 Entering Gaussian System, Link 0=g09
 Input=FuranAM1_47.com
 Output=FuranAM1_47.log
 Initial command:
 /home/Applications/g09/g09/l1.exe "/home/Applications/g09/scratch/Gau-5930.inp" -scrdir="/home/Applications/g09/scratch/"
 Entering Link 1 = /home/Applications/g09/g09/l1.exe PID=      5932.
  
 Copyright (c) 1988,1990,1992,1993,1995,1998,2003,2009,2013,
            Gaussian, Inc.  All Rights Reserved.
  
 This is part of the Gaussian(R) 09 program.  It is based on
 the Gaussian(R) 03 system (copyright 2003, Gaussian, Inc.),
 the Gaussian(R) 98 system (copyright 1998, Gaussian, Inc.),
 the Gaussian(R) 94 system (copyright 1995, Gaussian, Inc.),
 the Gaussian 92(TM) system (copyright 1992, Gaussian, Inc.),
 the Gaussian 90(TM) system (copyright 1990, Gaussian, Inc.),
 the Gaussian 88(TM) system (copyright 1988, Gaussian, Inc.),
 the Gaussian 86(TM) system (copyright 1986, Carnegie Mellon
 University), and the Gaussian 82(TM) system (copyright 1983,
 Carnegie Mellon University). Gaussian is a federally registered
 trademark of Gaussian, Inc.
  
 This software contains proprietary and confidential information,
 including trade secrets, belonging to Gaussian, Inc.
  
 This software is provided under written license and may be
 used, copied, transmitted, or stored only in accord with that
 written license.
  
 The following legend is applicable only to US Government
 contracts under FAR:
  
                    RESTRICTED RIGHTS LEGEND
  
 Use, reproduction and disclosure by the US Government is
 subject to restrictions as set forth in subparagraphs (a)
 and (c) of the Commercial Computer Software - Restricted
 Rights clause in FAR 52.227-19.
  
 Gaussian, Inc.
 340 Quinnipiac St., Bldg. 40, Wallingford CT 06492
  
  
 ---------------------------------------------------------------
 Warning -- This program may not be used in any manner that
 competes with the business of Gaussian, Inc. or will provide
 assistance to any competitor of Gaussian, Inc.  The licensee
 of this program is prohibited from giving any competitor of
 Gaussian, Inc. access to this program.  By using this program,
 the user acknowledges that Gaussian, Inc. is engaged in the
 business of creating and licensing software in the field of
 computational chemistry and represents and warrants to the
 licensee that it is not a competitor of Gaussian, Inc. and that
 it will not use this program in any manner prohibited above.
 ---------------------------------------------------------------
  

 Cite this work as:
 Gaussian 09, Revision D.01,
 M. J. Frisch, G. W. Trucks, H. B. Schlegel, G. E. Scuseria, 
 M. A. Robb, J. R. Cheeseman, G. Scalmani, V. Barone, B. Mennucci, 
 G. A. Petersson, H. Nakatsuji, M. Caricato, X. Li, H. P. Hratchian, 
 A. F. Izmaylov, J. Bloino, G. Zheng, J. L. Sonnenberg, M. Hada, 
 M. Ehara, K. Toyota, R. Fukuda, J. Hasegawa, M. Ishida, T. Nakajima, 
 Y. Honda, O. Kitao, H. Nakai, T. Vreven, J. A. Montgomery, Jr., 
 J. E. Peralta, F. Ogliaro, M. Bearpark, J. J. Heyd, E. Brothers, 
 K. N. Kudin, V. N. Staroverov, T. Keith, R. Kobayashi, J. Normand, 
 K. Raghavachari, A. Rendell, J. C. Burant, S. S. Iyengar, J. Tomasi, 
 M. Cossi, N. Rega, J. M. Millam, M. Klene, J. E. Knox, J. B. Cross, 
 V. Bakken, C. Adamo, J. Jaramillo, R. Gomperts, R. E. Stratmann, 
 O. Yazyev, A. J. Austin, R. Cammi, C. Pomelli, J. W. Ochterski, 
 R. L. Martin, K. Morokuma, V. G. Zakrzewski, G. A. Voth, 
 P. Salvador, J. J. Dannenberg, S. Dapprich, A. D. Daniels, 
 O. Farkas, J. B. Foresman, J. V. Ortiz, J. Cioslowski, 
 and D. J. Fox, Gaussian, Inc., Wallingford CT, 2013.
 
 ******************************************
 Gaussian 09:  ES64L-G09RevD.01 24-Apr-2013
                15-Dec-2015 
 ******************************************
 ------------------------------------------------------------
 #P AM1(Input,print) CIS(Singlets,NStates=15) pop(full) force
 ------------------------------------------------------------
 1/10=7,30=1,38=1/1,3;
 2/12=2,17=6,18=5,40=1/2;
 3/5=2,16=1,25=1,41=700000,71=1,135=100,136=1/1,2,8,3;
 4/35=1/1;
 5/5=2,35=1,38=5/2;
 8/6=1,10=1,108=15/1;
 9/15=2,41=15,42=1,48=1,49=10/14;
 10/5=4/2;
 6/7=3,18=1/1;
 7/12=6,13=5,29=1/1,2,3,16;
 1/10=7,30=1/3;
 99//99;
 Leave Link    1 at Tue Dec 15 16:19:44 2015, MaxMem=           0 cpu:         0.0
 (Enter /home/Applications/g09/g09/l101.exe)
 -----------------
 AM1-Reparam Input
 -----------------
 Symbolic Z-matrix:
 Charge =  0 Multiplicity = 1
 6                     0.99598  -0.74241   0.03888 
 6                    -0.39284  -1.09092   0.01132 
 8                    -1.10754   0.02643  -0.03768 
 6                    -0.38022   1.13649  -0.00486 
 6                     0.91183   0.70794  -0.02073 
 1                     1.77004   1.33702   0.04716 
 1                    -0.79995   2.01438   0.01647 
 1                    -0.82249  -2.08188  -0.02206 
 1                     1.76246  -1.34649  -0.00473 
 
 NAtoms=      9 NQM=        9 NQMF=       0 NMMI=      0 NMMIF=      0
                NMic=       0 NMicF=      0.
                    Isotopes and Nuclear Properties:
 (Nuclear quadrupole moments (NQMom) in fm**2, nuclear magnetic moments (NMagM)
  in nuclear magnetons)

  Atom         1           2           3           4           5           6           7           8           9
 IAtWgt=          12          12          16          12          12           1           1           1           1
 AtmWgt=  12.0000000  12.0000000  15.9949146  12.0000000  12.0000000   1.0078250   1.0078250   1.0078250   1.0078250
 NucSpn=           0           0           0           0           0           1           1           1           1
 AtZEff=   0.0000000   0.0000000   0.0000000   0.0000000   0.0000000   0.0000000   0.0000000   0.0000000   0.0000000
 NQMom=    0.0000000   0.0000000   0.0000000   0.0000000   0.0000000   0.0000000   0.0000000   0.0000000   0.0000000
 NMagM=    0.0000000   0.0000000   0.0000000   0.0000000   0.0000000   2.7928460   2.7928460   2.7928460   2.7928460
 AtZNuc=   6.0000000   6.0000000   8.0000000   6.0000000   6.0000000   1.0000000   1.0000000   1.0000000   1.0000000
 Leave Link  101 at Tue Dec 15 16:19:44 2015, MaxMem=    33554432 cpu:         0.0
 (Enter /home/Applications/g09/g09/l103.exe)

 GradGradGradGradGradGradGradGradGradGradGradGradGradGradGradGradGradGrad
 Berny optimization.
 Initialization pass.
 Trust Radius=3.00D-01 FncErr=1.00D-07 GrdErr=1.00D-07
 Number of steps in this run=      2 maximum allowed number of steps=      2.
 GradGradGradGradGradGradGradGradGradGradGradGradGradGradGradGradGradGrad

 Leave Link  103 at Tue Dec 15 16:19:44 2015, MaxMem=    33554432 cpu:         0.0
 (Enter /home/Applications/g09/g09/l202.exe)
                          Input orientation:                          
 ---------------------------------------------------------------------
 Center     Atomic      Atomic             Coordinates (Angstroms)
 Number     Number       Type             X           Y           Z
 ---------------------------------------------------------------------
      1          6           0        0.995979   -0.742408    0.038878
      2          6           0       -0.392842   -1.090915    0.011322
      3          8           0       -1.107536    0.026430   -0.037680
      4          6           0       -0.380215    1.136487   -0.004864
      5          6           0        0.911828    0.707941   -0.020732
      6          1           0        1.770041    1.337015    0.047159
      7          1           0       -0.799948    2.014381    0.016468
      8          1           0       -0.822489   -2.081883   -0.022058
      9          1           0        1.762460   -1.346494   -0.004725
 ---------------------------------------------------------------------
                    Distance matrix (angstroms):
                    1          2          3          4          5
     1  C    0.000000
     2  C    1.432145   0.000000
     3  O    2.240926   1.327271   0.000000
     4  C    2.329393   2.227497   1.327516   0.000000
     5  C    1.454011   2.222403   2.131332   1.361352   0.000000
     6  H    2.218838   3.251798   3.163112   2.160213   1.066242
     7  H    3.290249   3.131872   2.012335   0.973308   2.153682
     8  H    2.259365   1.080615   2.127552   3.248662   3.284962
     9  H    0.976890   2.170462   3.181648   3.279672   2.223631
                    6          7          8          9
     6  H    0.000000
     7  H    2.657933   0.000000
     8  H    4.291255   4.096507   0.000000
     9  H    2.684021   4.226330   2.687575   0.000000
 Stoichiometry    C4H4O
 Framework group  C1[X(C4H4O)]
 Deg. of freedom    21
 Full point group                 C1      NOp   1
 Largest Abelian subgroup         C1      NOp   1
 Largest concise Abelian subgroup C1      NOp   1
                         Standard orientation:                         
 ---------------------------------------------------------------------
 Center     Atomic      Atomic             Coordinates (Angstroms)
 Number     Number       Type             X           Y           Z
 ---------------------------------------------------------------------
      1          6           0       -0.948388    0.813173   -0.020257
      2          6           0       -0.985423   -0.618480   -0.014085
      3          8           0        0.261296   -1.072863    0.015507
      4          6           0        1.185691   -0.120481   -0.012115
      5          6           0        0.485941    1.046557    0.028516
      6          1           0        0.912059    2.022266   -0.028832
      7          1           0        2.133718   -0.338212   -0.046274
      8          1           0       -1.858493   -1.254421    0.018396
      9          1           0       -1.704583    1.428654    0.040298
 ---------------------------------------------------------------------
 Rotational constants (GHZ):      9.7546085      9.1218758      4.7161687
 Leave Link  202 at Tue Dec 15 16:19:44 2015, MaxMem=    33554432 cpu:         0.0
 (Enter /home/Applications/g09/g09/l301.exe)

 Semi-emprical parameters in input format:
 Method=8 CoreType=1 PeptideFC=0.0114510000 RIJScale=0.5291770000
 ****
 H       
 PQN=1 NValence=1 F0ss=0.4721550000 ZetaOverlap=1.1880780000 U=-0.4188110000
 Beta=-0.2268830000 CoreKO=1.0589200000 KON=0,0,0,1.0589200000 KON=1,0,1,1.0589200000
 KON=0,1,1,1.0589200000 KON=2,1,1,1.0589200000 EISol=-0.4188110042 EHeat=0.0830298228
 Alpha=1.5252600000
 GCore=0.0085280000,1.4001430000,2.2676710000
 GCore=0.0003530000,1.4001430000,3.4015070000
 GCore=-0.0012730000,0.5600570000,3.9684250000
 ****
 C       
 PQN=2,2 NValence=4 F0ss=0.4494440000 F0sp=0.4215150000 F0pp=0.3768030000 F2pp=0.1898720000
 G1sp=0.2679030000
 ZetaOverlap=1.8086650000,1.6851160000
 U=-1.9120180000,-1.4557970000
 Beta=-0.5775440000,-0.2836780000 DDN=0,1,0.8236740000 DDN=1,1,0.7268010000
 CoreKO=1.1124280000 KON=0,0,0,1.1124280000 KON=1,0,1,0.8219700000 KON=0,1,1,1.1124280000
 KON=2,1,1,0.7783930000 EISol=-4.4398989268 EHeat=0.2723305520 Alpha=1.4014060000
 DipHyp=1.6472532266
 GCore=0.0007890000,1.4001430000,3.0235620000
 GCore=0.0031890000,1.4001430000,3.4959930000
 GCore=-0.0013930000,1.4001430000,3.8739390000
 GCore=-0.0000880000,1.4001430000,5.0077740000
 ****
 O       
 PQN=2,2 NValence=6 F0ss=0.5666750000 F0sp=0.5321300000 F0pp=0.4958710000 F2pp=0.2358080000
 G1sp=0.4343770000
 ZetaOverlap=3.1080320000,2.5240390000
 U=-3.5951870000,-2.8760900000
 Beta=-1.0757550000,-1.0757550000 DDN=0,1,0.4988900000 DDN=1,1,0.4852320000
 CoreKO=0.8822960000 KON=0,0,0,0.8822960000 KON=1,0,1,0.5019540000 KON=0,1,1,0.8822960000
 KON=2,1,1,0.5515580000 EISol=-11.6164441184 EHeat=0.0949133088 Alpha=2.3576810000
 DipHyp=0.9977225968
 GCore=0.0195120000,1.4001430000,1.6023330000
 GCore=0.0056550000,1.9602000000,2.7307880000
 ****
 
 Standard basis: VSTO-6G (5D, 7F)
 Ernie: Thresh=  0.10000D-02 Tol=  0.10000D-05 Strict=F.
  NNHCO=     0 NNPyr=     0 NCTC=     0               EPep=         0.000000000
    EC=        69.088196826  ECS=         1.918011615   EG=         0.375358440
   EHC=         0.000000000  EAt=       -31.051283842  AtH=         1.516354808
 EPDDG=         0.000000000  ECC=        71.381566881 EAtT=        32.567638650
 There are    24 symmetry adapted cartesian basis functions of A   symmetry.
 There are    24 symmetry adapted basis functions of A   symmetry.
    24 basis functions,   144 primitive gaussians,    24 cartesian basis functions
    13 alpha electrons       13 beta electrons
       nuclear repulsion energy       103.9492055311 Hartrees.
 IExCor=    0 DFT=F Ex=HF Corr=None ExCW=0 ScaHFX=  1.000000
 ScaDFX=  1.000000  1.000000  1.000000  1.000000 ScalE2=  1.000000  1.000000
 IRadAn=      0 IRanWt=     -1 IRanGd=            0 ICorTp=0 IEmpDi=  4
 Integral buffers will be    131072 words long.
 Regular integral format.
 Two-electron integral symmetry is turned off.
 Leave Link  301 at Tue Dec 15 16:19:44 2015, MaxMem=    33554432 cpu:         0.0
 (Enter /home/Applications/g09/g09/l302.exe)
 Do NDO integrals.
 NPDir=0 NMtPBC=     1 NCelOv=     1 NCel=       1 NClECP=     1 NCelD=      1
         NCelK=      1 NCelE2=     1 NClLst=     1 CellRange=     0.0.
 One-electron integrals computed using PRISM.
 NBasis=    24 RedAO= F EigKep=  0.00D+00  NBF=    24
 NBsUse=    24 1.00D-04 EigRej=  0.00D+00 NBFU=    24
 Leave Link  302 at Tue Dec 15 16:19:44 2015, MaxMem=    33554432 cpu:         0.0
 (Enter /home/Applications/g09/g09/l308.exe)
 Leave Link  308 at Tue Dec 15 16:19:44 2015, MaxMem=    33554432 cpu:         0.0
 (Enter /home/Applications/g09/g09/l303.exe)
 DipDrv:  MaxL=1.
 Leave Link  303 at Tue Dec 15 16:19:44 2015, MaxMem=    33554432 cpu:         0.0
 (Enter /home/Applications/g09/g09/l401.exe)
 Simple Huckel Guess.
 JPrj=0 DoOrth=F DoCkMO=F.
 Leave Link  401 at Tue Dec 15 16:19:44 2015, MaxMem=    33554432 cpu:         0.0
 (Enter /home/Applications/g09/g09/l502.exe)
 Closed shell SCF:
 Using DIIS extrapolation, IDIIS=  1040.
 Overlap will be assumed to be unity.
 Two-electron integral symmetry not used.
 Keep J ints in memory in canonical form, NReq=888082.
 IVT=       79475 IEndB=       79475 NGot=    33554432 MDV=    33473473
 LenX=    33473473 LenY=    33472456
 Requested convergence on RMS density matrix=1.00D-08 within 128 cycles.
 Requested convergence on MAX density matrix=1.00D-06.
 Requested convergence on             energy=1.00D-06.
 No special actions if energy rises.
 FoFCou: FMM=F IPFlag=           0 FMFlag=           0 FMFlg1=           0
         NFxFlg=           0 DoJE=F BraDBF=F KetDBF=F FulRan=T
         wScrn=  0.000000 ICntrl=     600 IOpCl=  2 I1Cent=           0 NGrid=           0
         NMat0=    1 NMatS0=     54 NMatT0=    0 NMatD0=    1 NMtDS0=    0 NMtDT0=    0
 Symmetry not used in FoFCou.

 Cycle   1  Pass 1  IDiag  1:
 E= 0.355223665547115    
 DIIS: error= 6.49D-02 at cycle   1 NSaved=   1.
 NSaved= 1 IEnMin= 1 EnMin= 0.355223665547115     IErMin= 1 ErrMin= 6.49D-02
 ErrMax= 6.49D-02  0.00D+00 EMaxC= 1.00D-01 BMatC= 1.12D-01 BMatP= 1.12D-01
 IDIUse=3 WtCom= 3.51D-01 WtEn= 6.49D-01
 Coeff-Com:  0.100D+01
 Coeff-En:   0.100D+01
 Coeff:      0.100D+01
 GapD=    2.000 DampG=2.000 DampE=0.500 DampFc=1.0000 IDamp=-1.
 RMSDP=1.91D-02 MaxDP=1.64D-01              OVMax= 0.00D+00

 Cycle   2  Pass 1  IDiag  1:
 E= 0.822135045347352E-01 Delta-E=       -0.273010161012 Rises=F Damp=F
 DIIS: error= 1.90D-02 at cycle   2 NSaved=   2.
 NSaved= 2 IEnMin= 2 EnMin= 0.822135045347352E-01 IErMin= 2 ErrMin= 1.90D-02
 ErrMax= 1.90D-02  0.00D+00 EMaxC= 1.00D-01 BMatC= 9.62D-03 BMatP= 1.12D-01
 IDIUse=3 WtCom= 8.10D-01 WtEn= 1.90D-01
 Coeff-Com: -0.353D+00 0.135D+01
 Coeff-En:   0.000D+00 0.100D+01
 Coeff:     -0.286D+00 0.129D+01
 RMSDP=8.20D-03 MaxDP=7.03D-02 DE=-2.73D-01 OVMax= 0.00D+00

 Cycle   3  Pass 1  IDiag  3:
 E= 0.511680575305036E-01 Delta-E=       -0.031045447004 Rises=F Damp=F
 DIIS: error= 4.39D-03 at cycle   3 NSaved=   3.
 NSaved= 3 IEnMin= 3 EnMin= 0.511680575305036E-01 IErMin= 3 ErrMin= 4.39D-03
 ErrMax= 4.39D-03  0.00D+00 EMaxC= 1.00D-01 BMatC= 4.38D-04 BMatP= 9.62D-03
 IDIUse=3 WtCom= 9.56D-01 WtEn= 4.39D-02
 Coeff-Com:  0.113D+00-0.545D+00 0.143D+01
 Coeff-En:   0.000D+00 0.000D+00 0.100D+01
 Coeff:      0.108D+00-0.521D+00 0.141D+01
 Gap=     0.373 Goal=   None    Shift=    0.000
 RMSDP=2.80D-03 MaxDP=3.18D-02 DE=-3.10D-02 OVMax= 3.53D-02

 Cycle   4  Pass 1  IDiag  3:
 E= 0.486709391600328E-01 Delta-E=       -0.002497118370 Rises=F Damp=F
 DIIS: error= 1.43D-03 at cycle   4 NSaved=   4.
 NSaved= 4 IEnMin= 4 EnMin= 0.486709391600328E-01 IErMin= 4 ErrMin= 1.43D-03
 ErrMax= 1.43D-03  0.00D+00 EMaxC= 1.00D-01 BMatC= 3.87D-05 BMatP= 4.38D-04
 IDIUse=3 WtCom= 9.86D-01 WtEn= 1.43D-02
 Coeff-Com:  0.130D-01-0.277D-01-0.327D+00 0.134D+01
 Coeff-En:   0.000D+00 0.000D+00 0.000D+00 0.100D+01
 Coeff:      0.128D-01-0.273D-01-0.322D+00 0.134D+01
 Gap=     0.373 Goal=   None    Shift=    0.000
 RMSDP=1.08D-03 MaxDP=1.28D-02 DE=-2.50D-03 OVMax= 1.37D-02

 Cycle   5  Pass 1  IDiag  3:
 E= 0.484148303614944E-01 Delta-E=       -0.000256108799 Rises=F Damp=F
 DIIS: error= 1.78D-04 at cycle   5 NSaved=   5.
 NSaved= 5 IEnMin= 5 EnMin= 0.484148303614944E-01 IErMin= 5 ErrMin= 1.78D-04
 ErrMax= 1.78D-04  0.00D+00 EMaxC= 1.00D-01 BMatC= 1.75D-06 BMatP= 3.87D-05
 IDIUse=3 WtCom= 9.98D-01 WtEn= 1.78D-03
 Coeff-Com: -0.733D-02 0.247D-01 0.738D-01-0.522D+00 0.143D+01
 Coeff-En:   0.000D+00 0.000D+00 0.000D+00 0.000D+00 0.100D+01
 Coeff:     -0.731D-02 0.246D-01 0.737D-01-0.521D+00 0.143D+01
 Gap=     0.373 Goal=   None    Shift=    0.000
 RMSDP=2.27D-04 MaxDP=1.96D-03 DE=-2.56D-04 OVMax= 2.08D-03

 Cycle   6  Pass 1  IDiag  3:
 E= 0.484035510352783E-01 Delta-E=       -0.000011279326 Rises=F Damp=F
 DIIS: error= 6.34D-05 at cycle   6 NSaved=   6.
 NSaved= 6 IEnMin= 6 EnMin= 0.484035510352783E-01 IErMin= 6 ErrMin= 6.34D-05
 ErrMax= 6.34D-05  0.00D+00 EMaxC= 1.00D-01 BMatC= 1.14D-07 BMatP= 1.75D-06
 IDIUse=1 WtCom= 1.00D+00 WtEn= 0.00D+00
 Coeff-Com:  0.284D-02-0.102D-01-0.113D-01 0.144D+00-0.566D+00 0.144D+01
 Coeff:      0.284D-02-0.102D-01-0.113D-01 0.144D+00-0.566D+00 0.144D+01
 Gap=     0.373 Goal=   None    Shift=    0.000
 RMSDP=6.31D-05 MaxDP=4.58D-04 DE=-1.13D-05 OVMax= 7.96D-04

 Cycle   7  Pass 1  IDiag  3:
 E= 0.484026664195056E-01 Delta-E=       -0.000000884616 Rises=F Damp=F
 DIIS: error= 2.89D-05 at cycle   7 NSaved=   7.
 NSaved= 7 IEnMin= 7 EnMin= 0.484026664195056E-01 IErMin= 7 ErrMin= 2.89D-05
 ErrMax= 2.89D-05  0.00D+00 EMaxC= 1.00D-01 BMatC= 1.21D-08 BMatP= 1.14D-07
 IDIUse=1 WtCom= 1.00D+00 WtEn= 0.00D+00
 Coeff-Com: -0.616D-03 0.183D-02 0.382D-02-0.364D-01 0.163D+00-0.688D+00
 Coeff-Com:  0.156D+01
 Coeff:     -0.616D-03 0.183D-02 0.382D-02-0.364D-01 0.163D+00-0.688D+00
 Coeff:      0.156D+01
 Gap=     0.373 Goal=   None    Shift=    0.000
 RMSDP=2.72D-05 MaxDP=2.37D-04 DE=-8.85D-07 OVMax= 3.39D-04

 Cycle   8  Pass 1  IDiag  3:
 E= 0.484025457067361E-01 Delta-E=       -0.000000120713 Rises=F Damp=F
 DIIS: error= 8.70D-06 at cycle   8 NSaved=   8.
 NSaved= 8 IEnMin= 8 EnMin= 0.484025457067361E-01 IErMin= 8 ErrMin= 8.70D-06
 ErrMax= 8.70D-06  0.00D+00 EMaxC= 1.00D-01 BMatC= 9.19D-10 BMatP= 1.21D-08
 IDIUse=1 WtCom= 1.00D+00 WtEn= 0.00D+00
 Coeff-Com:  0.103D-03-0.654D-04-0.202D-02 0.108D-01-0.487D-01 0.258D+00
 Coeff-Com: -0.841D+00 0.162D+01
 Coeff:      0.103D-03-0.654D-04-0.202D-02 0.108D-01-0.487D-01 0.258D+00
 Coeff:     -0.841D+00 0.162D+01
 Gap=     0.373 Goal=   None    Shift=    0.000
 RMSDP=8.82D-06 MaxDP=8.26D-05 DE=-1.21D-07 OVMax= 1.04D-04

 Cycle   9  Pass 1  IDiag  3:
 E= 0.484025359842946E-01 Delta-E=       -0.000000009722 Rises=F Damp=F
 DIIS: error= 1.44D-06 at cycle   9 NSaved=   9.
 NSaved= 9 IEnMin= 9 EnMin= 0.484025359842946E-01 IErMin= 9 ErrMin= 1.44D-06
 ErrMax= 1.44D-06  0.00D+00 EMaxC= 1.00D-01 BMatC= 4.01D-11 BMatP= 9.19D-10
 IDIUse=1 WtCom= 1.00D+00 WtEn= 0.00D+00
 Coeff-Com:  0.168D-04-0.168D-03 0.484D-03-0.117D-02 0.699D-02-0.576D-01
 Coeff-Com:  0.243D+00-0.645D+00 0.145D+01
 Coeff:      0.168D-04-0.168D-03 0.484D-03-0.117D-02 0.699D-02-0.576D-01
 Coeff:      0.243D+00-0.645D+00 0.145D+01
 Gap=     0.373 Goal=   None    Shift=    0.000
 RMSDP=1.40D-06 MaxDP=1.25D-05 DE=-9.72D-09 OVMax= 1.84D-05

 Cycle  10  Pass 1  IDiag  3:
 E= 0.484025356768143E-01 Delta-E=       -0.000000000307 Rises=F Damp=F
 DIIS: error= 2.16D-07 at cycle  10 NSaved=  10.
 NSaved=10 IEnMin=10 EnMin= 0.484025356768143E-01 IErMin=10 ErrMin= 2.16D-07
 ErrMax= 2.16D-07  0.00D+00 EMaxC= 1.00D-01 BMatC= 2.17D-12 BMatP= 4.01D-11
 IDIUse=1 WtCom= 1.00D+00 WtEn= 0.00D+00
 Coeff-Com: -0.105D-04 0.804D-04-0.195D-03 0.364D-03-0.202D-02 0.184D-01
 Coeff-Com: -0.825D-01 0.231D+00-0.655D+00 0.149D+01
 Coeff:     -0.105D-04 0.804D-04-0.195D-03 0.364D-03-0.202D-02 0.184D-01
 Coeff:     -0.825D-01 0.231D+00-0.655D+00 0.149D+01
 Gap=     0.373 Goal=   None    Shift=    0.000
 RMSDP=2.76D-07 MaxDP=1.92D-06 DE=-3.07D-10 OVMax= 3.16D-06

 Cycle  11  Pass 1  IDiag  3:
 E= 0.484025356619924E-01 Delta-E=       -0.000000000015 Rises=F Damp=F
 DIIS: error= 4.35D-08 at cycle  11 NSaved=  11.
 NSaved=11 IEnMin=11 EnMin= 0.484025356619924E-01 IErMin=11 ErrMin= 4.35D-08
 ErrMax= 4.35D-08  0.00D+00 EMaxC= 1.00D-01 BMatC= 1.10D-13 BMatP= 2.17D-12
 IDIUse=1 WtCom= 1.00D+00 WtEn= 0.00D+00
 Coeff-Com:  0.345D-05-0.280D-04 0.732D-04-0.161D-03 0.792D-03-0.661D-02
 Coeff-Com:  0.285D-01-0.780D-01 0.226D+00-0.662D+00 0.149D+01
 Coeff:      0.345D-05-0.280D-04 0.732D-04-0.161D-03 0.792D-03-0.661D-02
 Coeff:      0.285D-01-0.780D-01 0.226D+00-0.662D+00 0.149D+01
 Gap=     0.373 Goal=   None    Shift=    0.000
 RMSDP=6.28D-08 MaxDP=4.70D-07 DE=-1.48D-11 OVMax= 5.62D-07

 Cycle  12  Pass 1  IDiag  3:
 E= 0.484025356617366E-01 Delta-E=        0.000000000000 Rises=F Damp=F
 DIIS: error= 7.94D-09 at cycle  12 NSaved=  12.
 NSaved=12 IEnMin=12 EnMin= 0.484025356617366E-01 IErMin=12 ErrMin= 7.94D-09
 ErrMax= 7.94D-09  0.00D+00 EMaxC= 1.00D-01 BMatC= 5.32D-15 BMatP= 1.10D-13
 IDIUse=1 WtCom= 1.00D+00 WtEn= 0.00D+00
 Coeff-Com: -0.123D-05 0.101D-04-0.266D-04 0.619D-04-0.281D-03 0.231D-02
 Coeff-Com: -0.984D-02 0.266D-01-0.772D-01 0.245D+00-0.700D+00 0.151D+01
 Coeff:     -0.123D-05 0.101D-04-0.266D-04 0.619D-04-0.281D-03 0.231D-02
 Coeff:     -0.984D-02 0.266D-01-0.772D-01 0.245D+00-0.700D+00 0.151D+01
 Gap=     0.373 Goal=   None    Shift=    0.000
 RMSDP=1.49D-08 MaxDP=9.75D-08 DE=-2.56D-13 OVMax= 1.60D-07

 Cycle  13  Pass 1  IDiag  3:
 E= 0.484025356614097E-01 Delta-E=        0.000000000000 Rises=F Damp=F
 DIIS: error= 2.54D-09 at cycle  13 NSaved=  13.
 NSaved=13 IEnMin=13 EnMin= 0.484025356614097E-01 IErMin=13 ErrMin= 2.54D-09
 ErrMax= 2.54D-09  0.00D+00 EMaxC= 1.00D-01 BMatC= 3.88D-16 BMatP= 5.32D-15
 IDIUse=1 WtCom= 1.00D+00 WtEn= 0.00D+00
 Coeff-Com:  0.232D-06-0.194D-05 0.529D-05-0.140D-04 0.506D-04-0.391D-03
 Coeff-Com:  0.161D-02-0.419D-02 0.123D-01-0.456D-01 0.167D+00-0.553D+00
 Coeff-Com:  0.142D+01
 Coeff:      0.232D-06-0.194D-05 0.529D-05-0.140D-04 0.506D-04-0.391D-03
 Coeff:      0.161D-02-0.419D-02 0.123D-01-0.456D-01 0.167D+00-0.553D+00
 Coeff:      0.142D+01
 Gap=     0.373 Goal=   None    Shift=    0.000
 RMSDP=3.98D-09 MaxDP=2.08D-08 DE=-3.27D-13 OVMax= 4.88D-08

 Cycle  14  Pass 2  IDiag  1:
 SCF Done:  E(RAM1) =  0.484025356614E-01 A.U. after   14 cycles
            NFock= 13  Conv=0.40D-08     -V/T= 1.0029
 KE=-1.664436176856D+01 PE=-1.716865191375D+02 EE= 8.443007791060D+01
 Leave Link  502 at Tue Dec 15 16:19:44 2015, MaxMem=    33554432 cpu:         0.0
 (Enter /home/Applications/g09/g09/l801.exe)
 Range of M.O.s used for correlation:     1    24
 NBasis=    24 NAE=    13 NBE=    13 NFC=     0 NFV=     0
 NROrb=     24 NOA=    13 NOB=    13 NVA=    11 NVB=    11
 Leave Link  801 at Tue Dec 15 16:19:44 2015, MaxMem=    33554432 cpu:         0.0
 (Enter /home/Applications/g09/g09/l914.exe)
 RHF ground state
 MDV=    33554432 DFT=F DoStab=F Mixed=F DoRPA=F DoScal=F NonHer=F
 Making orbital integer symmetry assigments:
 Orbital symmetries:
       Occupied  (A) (A) (A) (A) (A) (A) (A) (A) (A) (A) (A) (A)
                 (A)
       Virtual   (A) (A) (A) (A) (A) (A) (A) (A) (A) (A) (A)
    60 initial guesses have been made.
 Convergence on wavefunction:    0.000001000000000
 Davidson Disk Diagonalization:  ConvIn= 1.00D-06 SkipCon=T Conv= 1.00D-06.
 Max sub-space:   240 roots to seek:    60 dimension of matrix:          286
 Iteration     1 Dimension    60 NMult     0 NNew     60
 CISAX will form    60 AO SS matrices at one time.
 NMat=    60 NSing=    60 JSym2X= 0.
 FoFJK:  IHMeth= 8 ICntrl=       0 DoSepK=F KAlg= 0 I1Cent=   0 FoldK=F
 IRaf=         1 NMat= 120 IRICut=       1 DoRegI=T DoRafI=F ISym2E= 0.
 FoFCou: FMM=F IPFlag=           0 FMFlag=      100000 FMFlg1=           0
         NFxFlg=           0 DoJE=F BraDBF=F KetDBF=F FulRan=T
         wScrn=  0.000000 ICntrl=       0 IOpCl=  0 I1Cent=           0 NGrid=           0
         NMat0=  120 NMatS0=     60 NMatT0=    0 NMatD0=  120 NMtDS0=    0 NMtDT0=    0
 Symmetry not used in FoFCou.
 New state      2 was old state      4
 New state      3 was old state      2
 New state      4 was old state      6
 New state      5 was old state      7
 New state      6 was old state      3
 New state      7 was old state      9
 New state      8 was old state      5
 New state      9 was old state     10
 New state     10 was old state      8
 New state     11 was old state     15
 New state     12 was old state     11
 New state     15 was old state     19
 Excitation Energies [eV] at current iteration:
 Root      1 :     4.470169794093757
 Root      2 :     4.536995105711941
 Root      3 :     4.869339467361381
 Root      4 :     5.714137636223183
 Root      5 :     5.769965412090340
 Root      6 :     6.110847883386390
 Root      7 :     6.166314368353211
 Root      8 :     6.224315925655563
 Root      9 :     6.586342326460721
 Root     10 :     6.662851374981228
 Root     11 :     6.986374698027486
 Root     12 :     7.224341780670867
 Root     13 :     7.375785285938958
 Root     14 :     7.605406952755010
 Root     15 :     7.689751421822136
 Root     16 :     7.796754142305813
 Root     17 :     7.849418508641357
 Root     18 :     8.045543841028170
 Root     19 :     8.106723806252301
 Root     20 :     8.367147948940739
 Root     21 :     8.439270547431370
 Root     22 :     8.697733201754437
 Root     23 :     8.734387502252282
 Root     24 :     8.912602254195301
 Root     25 :     8.972117451269204
 Root     26 :     9.243005412738389
 Root     27 :     9.382750531885101
 Root     28 :     9.649485795104148
 Root     29 :     9.679965599860626
 Root     30 :     9.871031302260395
 Root     31 :     9.976415232686588
 Root     32 :    10.073684965149920
 Root     33 :    10.200853011448680
 Root     34 :    10.253099362421280
 Root     35 :    10.407312397139750
 Root     36 :    10.479632789884280
 Root     37 :    10.519223790719520
 Root     38 :    10.667807351802010
 Root     39 :    10.905727064202970
 Root     40 :    11.004672052834160
 Root     41 :    11.038307322685660
 Root     42 :    11.143595357398170
 Root     43 :    11.463493743591980
 Root     44 :    11.522671583293520
 Root     45 :    11.682730448165630
 Root     46 :    11.720144041238240
 Root     47 :    11.875912669732350
 Root     48 :    11.945980925383010
 Root     49 :    11.953106268598780
 Root     50 :    12.230528894349100
 Root     51 :    12.348943019500750
 Root     52 :    12.635882336627400
 Root     53 :    12.826199412773870
 Root     54 :    13.039012305252990
 Root     55 :    13.296525118148250
 Root     56 :    13.347194428978820
 Root     57 :    13.487406075480810
 Root     58 :    13.563048410984650
 Root     59 :    13.656798605982390
 Root     60 :    13.850527408455110
 Iteration     2 Dimension   120 NMult    60 NNew     60
 CISAX will form    60 AO SS matrices at one time.
 NMat=    60 NSing=    60 JSym2X= 0.
 Root      1 not converged, maximum delta is    0.025896732757406
 Root      2 not converged, maximum delta is    0.033904469999842
 Root      3 not converged, maximum delta is    0.015956406442576
 Root      4 not converged, maximum delta is    0.045175623784773
 Root      5 not converged, maximum delta is    0.046852907987837
 Root      6 not converged, maximum delta is    0.159543888225558
 Root      7 not converged, maximum delta is    0.143655453081487
 Root      8 not converged, maximum delta is    0.174584265338142
 Root      9 not converged, maximum delta is    0.049177918648536
 Root     10 not converged, maximum delta is    0.033760017367295
 Root     11 not converged, maximum delta is    0.034349107186631
 Root     12 not converged, maximum delta is    0.044741412976171
 Root     13 not converged, maximum delta is    0.036005254264945
 New state     14 was old state     16
 Root     14 not converged, maximum delta is    0.090349073921291
 New state     15 was old state     14
 Root     15 not converged, maximum delta is    0.091017089876986
 Excitation Energies [eV] at current iteration:
 Root      1 :     4.418894452006808   Change is   -0.051275342086950
 Root      2 :     4.501143086470181   Change is   -0.035852019241760
 Root      3 :     4.856613746977462   Change is   -0.012725720383919
 Root      4 :     5.651233861371376   Change is   -0.062903774851808
 Root      5 :     5.676448674539118   Change is   -0.093516737551222
 Root      6 :     5.993076672130410   Change is   -0.117771211255979
 Root      7 :     6.067377448348869   Change is   -0.098936920004342
 Root      8 :     6.146949859679570   Change is   -0.077366065975994
 Root      9 :     6.547298814074327   Change is   -0.039043512386395
 Root     10 :     6.613824993887696   Change is   -0.049026381093532
 Root     11 :     6.912707136861249   Change is   -0.073667561166237
 Root     12 :     7.123809011207556   Change is   -0.100532769463311
 Root     13 :     7.323497026165868   Change is   -0.052288259773090
 Root     14 :     7.531127010528442   Change is   -0.265627131777372
 Root     15 :     7.546006100588175   Change is   -0.059400852166835
 Root     16 :     7.636657665976922   Change is   -0.053093755845213
 Root     17 :     7.759986248020783   Change is   -0.089432260620574
 Root     18 :     7.953720239707150   Change is   -0.091823601321021
 Root     19 :     8.034815609495926   Change is   -0.071908196756376
 Root     20 :     8.260562246024568   Change is   -0.106585702916171
 Root     21 :     8.341991311892322   Change is   -0.097279235539047
 Root     22 :     8.657586460125064   Change is   -0.040146741629372
 Root     23 :     8.671244226033361   Change is   -0.063143276218923
 Root     24 :     8.721923126109612   Change is   -0.250194325159593
 Root     25 :     8.853291961918233   Change is   -0.059310292277067
 Root     26 :     9.089584424603522   Change is   -0.293166107281579
 Root     27 :     9.199734340734597   Change is   -0.043271072003793
 Root     28 :     9.349890401378468   Change is   -0.330075198482157
 Root     29 :     9.492148971669359   Change is   -0.378882330591036
 Root     30 :     9.553241332540443   Change is   -0.096244462563705
 Root     31 :     9.584389666574179   Change is   -0.392025566112409
 Root     32 :     9.738457689079736   Change is   -0.514641673341550
 Root     33 :     9.993811192795709   Change is   -0.079873772354208
 Root     34 :    10.028636396221370   Change is   -0.490587394498154
 Root     35 :    10.083965221625720   Change is   -0.323347175514034
 Root     36 :    10.134306881794560   Change is   -0.066546129654111
 Root     37 :    10.271246590400990   Change is   -0.208386199483293
 Root     38 :    10.320569837797380   Change is   -0.347237514004637
 Root     39 :    10.558102814944800   Change is   -0.446569237889358
 Root     40 :    10.652277108717750   Change is   -0.253449955485223
 Root     41 :    10.758659838792180   Change is   -0.279647483893480
 Root     42 :    10.821268455805960   Change is   -0.322326901592205
 Root     43 :    11.092966420333410   Change is   -0.370527323258567
 Root     44 :    11.181944984753030   Change is   -0.538199056485214
 Root     45 :    11.228128939907590   Change is   -0.294542643385935
 Root     46 :    11.506521262329380   Change is   -0.369391407402969
 Root     47 :    11.591811413874710   Change is   -0.090919034290915
 Root     48 :    11.623221464631620   Change is   -0.322759460751390
 Root     49 :    11.733129561281950   Change is   -0.219976707316829
 Root     50 :    11.909274945971440   Change is   -0.321253948377660
 Root     51 :    12.095069031455810   Change is   -0.253873988044943
 Root     52 :    12.172177553215410   Change is   -0.463704783411992
 Root     53 :    12.386772291191950   Change is   -0.652240014061040
 Root     54 :    12.558119716672620   Change is   -0.268079696101245
 Root     55 :    12.732163020400910   Change is   -0.564362097747338
 Root     56 :    13.077882115681830   Change is   -0.409523959798982
 Root     57 :    13.205039521193750   Change is   -0.358008889790907
 Root     58 :    13.280103769605300   Change is   -0.067090659373523
 Root     59 :    13.357347565304320
 Root     60 :    13.490551066014840   Change is   -0.166247539967551
 Iteration     3 Dimension   135 NMult   120 NNew     15
 CISAX will form    15 AO SS matrices at one time.
 NMat=    15 NSing=    15 JSym2X= 0.
 Root      1 not converged, maximum delta is    0.000766512378466
 Root      2 not converged, maximum delta is    0.000299116372973
 Root      3 not converged, maximum delta is    0.000364004325165
 Root      4 not converged, maximum delta is    0.000145261670603
 Root      5 not converged, maximum delta is    0.000217504640261
 Root      6 not converged, maximum delta is    0.001850108337495
 Root      7 not converged, maximum delta is    0.000912529041784
 Root      8 not converged, maximum delta is    0.001564044958151
 Root      9 not converged, maximum delta is    0.000302084140454
 Root     10 not converged, maximum delta is    0.000229921044905
 Root     11 not converged, maximum delta is    0.000140523592962
 Root     12 not converged, maximum delta is    0.000327609145122
 Root     13 not converged, maximum delta is    0.000171693563509
 Root     14 not converged, maximum delta is    0.003165459383832
 Root     15 not converged, maximum delta is    0.004448539932198
 Excitation Energies [eV] at current iteration:
 Root      1 :     4.418767341462135   Change is   -0.000127110544673
 Root      2 :     4.501130313800648   Change is   -0.000012772669532
 Root      3 :     4.856564999916378   Change is   -0.000048747061084
 Root      4 :     5.651229613961428   Change is   -0.000004247409947
 Root      5 :     5.676440810672332   Change is   -0.000007863866785
 Root      6 :     5.992476700002385   Change is   -0.000599972128025
 Root      7 :     6.067344886903434   Change is   -0.000032561445436
 Root      8 :     6.146690480227828   Change is   -0.000259379451741
 Root      9 :     6.547278162074285   Change is   -0.000020652000042
 Root     10 :     6.613815487117069   Change is   -0.000009506770626
 Root     11 :     6.912702136450914   Change is   -0.000005000410335
 Root     12 :     7.123778306664269   Change is   -0.000030704543287
 Root     13 :     7.323488520784172   Change is   -0.000008505381696
 Root     14 :     7.529733190479065   Change is   -0.001393820049377
 Root     15 :     7.545958775961383   Change is   -0.000047324626792
 Iteration     4 Dimension   143 NMult   135 NNew      8
 CISAX will form     8 AO SS matrices at one time.
 NMat=     8 NSing=     8 JSym2X= 0.
 Root      1 not converged, maximum delta is    0.000032399772716
 Root      2 not converged, maximum delta is    0.000011178812352
 Root      3 not converged, maximum delta is    0.000011456198521
 Root      4 not converged, maximum delta is    0.000005565152379
 Root      5 not converged, maximum delta is    0.000005020737431
 Root      6 not converged, maximum delta is    0.000078105291246
 Root      7 not converged, maximum delta is    0.000018073703074
 Root      8 not converged, maximum delta is    0.000067690876937
 Root      9 not converged, maximum delta is    0.000013336839309
 Root     10 not converged, maximum delta is    0.000013548934912
 Root     11 not converged, maximum delta is    0.000005087469036
 Root     12 not converged, maximum delta is    0.000015665611880
 Root     13 not converged, maximum delta is    0.000005909877485
 Root     14 not converged, maximum delta is    0.000112580535924
 Root     15 not converged, maximum delta is    0.000018953106555
 Excitation Energies [eV] at current iteration:
 Root      1 :     4.418767006816918   Change is   -0.000000334645217
 Root      2 :     4.501130276741400   Change is   -0.000000037059248
 Root      3 :     4.856564947730436   Change is   -0.000000052185941
 Root      4 :     5.651229601610102   Change is   -0.000000012351326
 Root      5 :     5.676440798841179   Change is   -0.000000011831153
 Root      6 :     5.992475082412819   Change is   -0.000001617589566
 Root      7 :     6.067344792620198   Change is   -0.000000094283235
 Root      8 :     6.146689762334479   Change is   -0.000000717893349
 Root      9 :     6.547278114883998   Change is   -0.000000047190287
 Root     10 :     6.613815447905840   Change is   -0.000000039211229
 Root     11 :     6.912702123232703   Change is   -0.000000013218211
 Root     12 :     7.123778252388743   Change is   -0.000000054275525
 Root     13 :     7.323488506678063   Change is   -0.000000014106109
 Root     14 :     7.529729440745981   Change is   -0.000003749733085
 Root     15 :     7.545958667553072   Change is   -0.000000108408311
 Convergence achieved on expansion vectors.
 ***********************************************************************
 Excited states from <AA,BB:AA,BB> singles matrix:
 ***********************************************************************
 
 1PDM for each excited state written to RWF  633
 Ground to excited state transition densities written to RWF  633
 Ground to excited state transition electric dipole moments (Au):
       state          X           Y           Z        Dip. S.      Osc.
         1         0.7459      0.3843     -0.0505      0.7066      0.0765
         2         0.2224      0.1538      0.0073      0.0732      0.0081
         3        -0.1586      0.2472      0.0255      0.0869      0.0103
         4        -0.0667     -0.0493      0.1090      0.0188      0.0026
         5        -0.0315      0.0786      0.0517      0.0098      0.0014
         6        -0.8045      1.2479     -0.0016      2.2045      0.3236
         7         0.2368     -0.2720     -0.0226      0.1306      0.0194
         8        -0.7841     -0.7601     -0.0822      1.1993      0.1806
         9         0.1163     -0.1126      0.1167      0.0398      0.0064
        10        -0.0543     -0.1325      0.0470      0.0227      0.0037
        11         0.0291     -0.0304     -0.0067      0.0018      0.0003
        12         0.0242     -0.0624     -0.0274      0.0052      0.0009
        13        -0.0052      0.0122      0.2428      0.0591      0.0106
        14        -0.0245     -0.5254      0.0060      0.2767      0.0510
        15         0.0316      0.0539     -0.0087      0.0040      0.0007
 Ground to excited state transition velocity dipole moments (Au):
       state          X           Y           Z        Dip. S.      Osc.
         1        -0.0227     -0.0372      0.0159      0.0022      0.0088
         2        -0.0033     -0.0108      0.0036      0.0001      0.0006
         3         0.0222     -0.0126     -0.0089      0.0007      0.0027
         4         0.0054      0.0052     -0.0813      0.0067      0.0214
         5         0.0071     -0.0228     -0.0178      0.0009      0.0028
         6         0.1350     -0.2651     -0.0080      0.0886      0.2681
         7        -0.0380      0.0572     -0.0067      0.0048      0.0142
         8         0.1214      0.1475      0.0060      0.0365      0.1078
         9        -0.0205      0.0303     -0.1026      0.0119      0.0329
        10         0.0017      0.0307      0.1013      0.0112      0.0307
        11        -0.0056      0.0085     -0.1110      0.0124      0.0326
        12        -0.0077      0.0169      0.0447      0.0023      0.0060
        13         0.0023      0.0009     -0.0490      0.0024      0.0060
        14        -0.0122      0.1076      0.0067      0.0118      0.0283
        15        -0.0072     -0.0083      0.0241      0.0007      0.0017
 Ground to excited state transition magnetic dipole moments (Au):
       state          X           Y           Z
         1         0.0210      0.1626      0.5310
         2         0.1619     -0.5476      0.1331
         3        -0.0274      0.0077     -0.0684
         4        -0.0291      0.0804     -0.0027
         5         0.3530     -0.0676     -0.0211
         6         0.0820     -0.0370     -0.1382
         7        -0.1954     -0.1888      0.0371
         8        -0.0088     -0.0832     -0.0709
         9         1.1675     -0.2861     -0.0150
        10         1.1845      0.3100     -0.0528
        11        -0.4106      0.4509      0.0264
        12        -0.3446     -0.6298     -0.0166
        13        -0.2200      0.5519     -0.0177
        14         0.0674      0.0734      0.0387
        15         0.2458     -0.1260      0.0069
 Ground to excited state transition velocity quadrupole moments (Au):
       state          XX          YY          ZZ          XY          XZ          YZ
         1        -0.2010      0.1748      0.0019      0.4722      0.0588      0.0144
         2        -0.0561      0.0568      0.0087      0.1471     -0.1754     -0.0459
         3         0.0868     -0.1135      0.0684      0.0398      0.0125      0.0094
         4        -0.0141      0.0310     -0.0163      0.0045     -0.0127      0.0870
         5         0.0257     -0.0081     -0.0041     -0.0002      0.0464      0.2434
         6         0.3150     -0.1308     -0.0307      0.2399     -0.0078     -0.0900
         7        -0.0482      0.0223     -0.0100     -0.0965      0.1403     -0.2280
         8        -0.4011      0.2553      0.0114      0.3773      0.0321      0.0246
         9        -0.0349      0.0147      0.0090     -0.0631      0.0453      0.0341
        10        -0.0236     -0.0107     -0.0112     -0.0329     -0.1196     -0.1694
        11        -0.0216     -0.0103     -0.0118      0.0193     -0.3061     -0.0411
        12        -0.0207     -0.0024      0.0112     -0.0196     -0.0862     -0.0270
        13        -0.0079     -0.0145      0.0340     -0.0018      0.0320     -0.2068
        14         0.0513      0.2302     -0.0455     -0.0412     -0.0149      0.0221
        15        -0.0187     -0.0465     -0.0094      0.0012     -0.1645      0.0877
 <0|del|b> * <b|rxdel|0> + <0|del|b> * <b|delr+rdel|0>
 Rotatory Strengths (R) in cgs (10**-40 erg-esu-cm/Gauss)
       state          XX          YY          ZZ    R(velocity)    E-M Angle
         1        26.2813      0.2804    -18.2447      2.7723       85.75
         2        10.7356     -0.9344     15.2197      8.3403       32.69
         3         0.6250      1.1172     -2.1226     -0.1268       90.00
         4         0.5813      1.5430     -0.4738      0.5502       86.02
         5         5.0521      7.8248      2.1425      5.0065       65.64
         6        11.1309      3.1147     56.3224     23.5227       63.40
         7       -29.2064     24.1172     -6.3584     -3.8159      101.00
         8       -23.7503     -1.1705    -18.1637    -14.3615      131.05
         9        -2.9841    -43.4822    -44.8957    -30.4540      103.74
        10         6.5255     -0.4710     11.7706      5.9417       87.29
        11         1.8973      2.4432      4.6093      2.9832       87.29
        12       -14.6334      4.0427    -13.0926     -7.8944      104.60
        13         1.9042     -0.2479      0.6887      0.7816       88.25
        14        12.1216     -0.7073      7.3422      6.2522       50.73
        15        -0.1602     -2.8932      1.6109     -0.4808       94.44
 1/2[<0|r|b>*<b|rxdel|0> + (<0|rxdel|b>*<b|r|0>)*]
 Rotatory Strengths (R) in cgs (10**-40 erg-esu-cm/Gauss)
       state          XX          YY          ZZ     R(length)
         1       -11.0770    -44.1946     18.9794    -12.0974
         2       -25.4518     59.5670     -0.6839     11.1438
         3        -3.0682     -1.3390      1.2317     -1.0585
         4        -1.3746      2.8019      0.2120      0.5464
         5         7.8554      3.7543      0.7705      4.1267
         6        46.6574     32.6250     -0.1612     26.3737
         7        32.7322    -36.3069      0.5934     -0.9938
         8        -4.8956    -44.7163     -4.1211    -17.9110
         9       -96.0033    -22.7756      1.2364    -39.1808
        10        45.5116     29.0515      1.7551     25.4394
        11         8.4481      9.6811      0.1254      6.0849
        12         5.8993    -27.7753     -0.3216     -7.3992
        13        -0.8137     -4.7552      3.0380     -0.8436
        14         1.1696     27.2893     -0.1638      9.4317
        15        -5.5020      4.7998      0.0421     -0.2200
  1/2[<0|del|b>*<b|r|0> + (<0|r|b>*<b|del|0>)*] (Au)
       state          X           Y           Z        Dip. S.   Osc.(frdel)
         1        -0.0170     -0.0143     -0.0008      0.0321      0.0214
         2        -0.0007     -0.0017      0.0000      0.0024      0.0016
         3        -0.0035     -0.0031     -0.0002      0.0069      0.0046
         4        -0.0004     -0.0003     -0.0089      0.0095      0.0063
         5        -0.0002     -0.0018     -0.0009      0.0029      0.0020
         6        -0.1086     -0.3308      0.0000      0.4394      0.2929
         7        -0.0090     -0.0156      0.0002      0.0244      0.0163
         8        -0.0952     -0.1121     -0.0005      0.2078      0.1385
         9        -0.0024     -0.0034     -0.0120      0.0178      0.0118
        10        -0.0001     -0.0041      0.0048     -0.0006     -0.0004
        11        -0.0002     -0.0003      0.0007     -0.0003     -0.0002
        12        -0.0002     -0.0011     -0.0012      0.0025      0.0016
        13         0.0000      0.0000     -0.0119      0.0119      0.0079
        14         0.0003     -0.0565      0.0000      0.0562      0.0375
        15        -0.0002     -0.0004     -0.0002      0.0009      0.0006

 Excitation energies and oscillator strengths:
 
 Excited State   1:      Singlet-A      4.4188 eV  280.59 nm  f=0.0765  <S**2>=0.000
      12 -> 15         0.23784
      13 -> 14         0.62701
      13 -> 16        -0.19813
 This state for optimization and/or second-order correction.
 Total Energy, E(CIS) =  0.210789242250    
 Copying the excited state density for this state as the 1-particle RhoCI density.
 
 Excited State   2:      Singlet-A      4.5011 eV  275.45 nm  f=0.0081  <S**2>=0.000
      13 -> 14         0.18683
      13 -> 16         0.65892
 
 Excited State   3:      Singlet-A      4.8566 eV  255.29 nm  f=0.0103  <S**2>=0.000
      12 -> 14        -0.41053
      13 -> 15         0.56674
 
 Excited State   4:      Singlet-A      5.6512 eV  219.39 nm  f=0.0026  <S**2>=0.000
       7 -> 16        -0.15474
      12 -> 16         0.65385
 
 Excited State   5:      Singlet-A      5.6764 eV  218.42 nm  f=0.0014  <S**2>=0.000
      12 -> 17         0.18267
      12 -> 18        -0.15100
      12 -> 21        -0.10745
      13 -> 17         0.44231
      13 -> 18        -0.34006
      13 -> 21        -0.25838
      13 -> 23         0.11646
 
 Excited State   6:      Singlet-A      5.9925 eV  206.90 nm  f=0.3236  <S**2>=0.000
      11 -> 18        -0.10203
      12 -> 14         0.51606
      13 -> 15         0.37358
 
 Excited State   7:      Singlet-A      6.0673 eV  204.35 nm  f=0.0194  <S**2>=0.000
      12 -> 14        -0.11731
      12 -> 18         0.11747
      12 -> 19        -0.26595
      12 -> 23         0.13259
      13 -> 17        -0.13442
      13 -> 18        -0.27314
      13 -> 19         0.40138
      13 -> 22         0.12318
      13 -> 23        -0.19051
 
 Excited State   8:      Singlet-A      6.1467 eV  201.71 nm  f=0.1806  <S**2>=0.000
      12 -> 15         0.63580
      13 -> 14        -0.22906
 
 Excited State   9:      Singlet-A      6.5473 eV  189.37 nm  f=0.0064  <S**2>=0.000
      11 -> 14         0.41617
      11 -> 15         0.14833
      12 -> 18        -0.17725
      13 -> 17        -0.19387
      13 -> 18        -0.30140
      13 -> 19        -0.26895
 
 Excited State  10:      Singlet-A      6.6138 eV  187.46 nm  f=0.0037  <S**2>=0.000
      10 -> 14        -0.20999
      10 -> 15         0.14339
      11 -> 14         0.39328
      11 -> 15         0.14959
      12 -> 17         0.12198
      12 -> 18         0.10591
      12 -> 20         0.10267
      13 -> 17         0.26096
      13 -> 18         0.29377
      13 -> 19         0.12978
      13 -> 23         0.10112
 
 Excited State  11:      Singlet-A      6.9127 eV  179.36 nm  f=0.0003  <S**2>=0.000
      12 -> 17         0.11021
      12 -> 18         0.52457
      12 -> 20         0.20534
      12 -> 21        -0.19288
      13 -> 18        -0.20559
      13 -> 19        -0.18632
 
 Excited State  12:      Singlet-A      7.1238 eV  174.04 nm  f=0.0009  <S**2>=0.000
       9 -> 14         0.11228
       9 -> 15        -0.11797
      10 -> 14         0.51595
      10 -> 15        -0.21288
      11 -> 14         0.14896
      11 -> 15         0.31597
      13 -> 19         0.11258
 
 Excited State  13:      Singlet-A      7.3235 eV  169.30 nm  f=0.0106  <S**2>=0.000
      12 -> 19         0.26641
      13 -> 17         0.24718
      13 -> 18        -0.17495
      13 -> 19         0.24634
      13 -> 20        -0.21572
      13 -> 21         0.37636
      13 -> 22        -0.15619
 
 Excited State  14:      Singlet-A      7.5297 eV  164.66 nm  f=0.0510  <S**2>=0.000
      10 -> 16        -0.42553
      11 -> 16         0.50024
 
 Excited State  15:      Singlet-A      7.5460 eV  164.31 nm  f=0.0007  <S**2>=0.000
       9 -> 15        -0.10963
      10 -> 15         0.28519
      11 -> 14        -0.15079
      11 -> 15         0.20556
      12 -> 17         0.36196
      12 -> 18        -0.15390
      12 -> 20         0.17854
      13 -> 17        -0.13349
      13 -> 19         0.10286
      13 -> 20        -0.24537
      13 -> 22        -0.10395
      13 -> 24         0.10688
 SavETr:  write IOETrn=   770 NScale= 10 NData=  16 NLR=1 NState=   15 LETran=     280.
 The selected state is a singlet
 CISAX will form     1 AO SS matrices at one time.
 NMat=     1 NSing=     1 JSym2X= 0.
 Leave Link  914 at Tue Dec 15 16:19:44 2015, MaxMem=    33554432 cpu:         0.1
 (Enter /home/Applications/g09/g09/l1002.exe)
 Minotr:  Closed shell wavefunction.
          Computing CIS/TD-HF/TD-KS derivatives.
          Using Z-Vector for PSCF gradient.
          Skipping F1 and S1 gradient terms here.
          IDoAtm=111111111
          Direct CPHF calculation.
          Differentiating once with respect to electric field.
                with respect to dipole field.
          Differentiating once with respect to nuclear coordinates.
          Electric field/nuclear overlap derivatives assumed to be zero.
          Requested convergence is 1.0D-10 RMS, and 1.0D-09 maximum.
          NewPWx=T KeepS1=F KeepF1=F KeepIn=T MapXYZ=F SortEE=F KeepMc=T.
          MDV=      33495423 using IRadAn=       0.
 Keep J ints in memory in canonical form, NReq=871704.
 FoFCou: FMM=F IPFlag=           0 FMFlag=           0 FMFlg1=           0
         NFxFlg=           0 DoJE=F BraDBF=F KetDBF=F FulRan=T
         wScrn=  0.000000 ICntrl=     600 IOpCl=  2 I1Cent=           0 NGrid=           0
         NMat0=    1 NMatS0=     54 NMatT0=    0 NMatD0=    1 NMtDS0=    0 NMtDT0=    0
 Symmetry not used in FoFCou.
          Solving linear equations separately, MaxMat=       0.
          There are     1 degrees of freedom in the 1st order CPHF.  IDoFFX=0 NUNeed=     1.
 LinEq1:  Iter=  0 NonCon=     1 RMS=1.51D-02 Max=8.92D-02 NDo=     1
 AX will form     1 AO Fock derivatives at one time.
 LinEq1:  Iter=  1 NonCon=     1 RMS=2.87D-03 Max=1.21D-02 NDo=     1
 LinEq1:  Iter=  2 NonCon=     1 RMS=3.87D-04 Max=1.63D-03 NDo=     1
 LinEq1:  Iter=  3 NonCon=     1 RMS=6.04D-05 Max=3.27D-04 NDo=     1
 LinEq1:  Iter=  4 NonCon=     1 RMS=8.32D-06 Max=3.91D-05 NDo=     1
 LinEq1:  Iter=  5 NonCon=     1 RMS=1.41D-06 Max=6.25D-06 NDo=     1
 LinEq1:  Iter=  6 NonCon=     1 RMS=1.73D-07 Max=7.64D-07 NDo=     1
 LinEq1:  Iter=  7 NonCon=     1 RMS=2.42D-08 Max=1.14D-07 NDo=     1
 LinEq1:  Iter=  8 NonCon=     1 RMS=3.12D-09 Max=1.14D-08 NDo=     1
 LinEq1:  Iter=  9 NonCon=     1 RMS=3.51D-10 Max=1.49D-09 NDo=     1
 LinEq1:  Iter= 10 NonCon=     0 RMS=4.93D-11 Max=1.87D-10 NDo=     1
 Linear equations converged to 1.000D-10 1.000D-09 after    10 iterations.
 End of Minotr F.D. properties file   721 does not exist.
 End of Minotr F.D. properties file   722 does not exist.
 End of Minotr F.D. properties file   788 does not exist.
 Leave Link 1002 at Tue Dec 15 16:19:44 2015, MaxMem=    33554432 cpu:         0.0
 (Enter /home/Applications/g09/g09/l601.exe)
 Copying SCF densities to generalized density rwf, IOpCl= 0 IROHF=0.

 **********************************************************************

            Population analysis using the SCF density.

 **********************************************************************

 Orbital symmetries:
       Occupied  (A) (A) (A) (A) (A) (A) (A) (A) (A) (A) (A) (A)
                 (A)
       Virtual   (A) (A) (A) (A) (A) (A) (A) (A) (A) (A) (A)
 The electronic state is 1-A.
 Alpha  occ. eigenvalues --   -1.58967  -1.22574  -1.12060  -0.84085  -0.81801
 Alpha  occ. eigenvalues --   -0.69935  -0.61807  -0.59469  -0.52448  -0.49315
 Alpha  occ. eigenvalues --   -0.48198  -0.38636  -0.34241
 Alpha virt. eigenvalues --    0.03060   0.05706   0.08366   0.14595   0.14974
 Alpha virt. eigenvalues --    0.16275   0.18475   0.18744   0.19838   0.21111
 Alpha virt. eigenvalues --    0.23312
     Molecular Orbital Coefficients:
                           1         2         3         4         5
                           O         O         O         O         O
     Eigenvalues --    -1.58967  -1.22574  -1.12060  -0.84085  -0.81801
   1 1   C  1S          0.23755  -0.48307  -0.30224   0.42401  -0.09998
   2        1PX         0.08092  -0.09843   0.08580  -0.16459  -0.19144
   3        1PY        -0.08288   0.01300   0.12556   0.08146  -0.28565
   4        1PZ         0.00307  -0.00639  -0.00334   0.00676  -0.00769
   5 2   C  1S          0.34308  -0.11370  -0.50814  -0.20793   0.39374
   6        1PX         0.18982   0.10769  -0.01730  -0.14641  -0.20931
   7        1PY         0.02172  -0.20793  -0.00943   0.28542   0.04923
   8        1PZ         0.00408   0.00189  -0.00487  -0.00620  -0.00447
   9 3   O  1S          0.67522   0.54189  -0.02114   0.10319  -0.26413
  10        1PX        -0.03697  -0.00223   0.37119   0.47573   0.08325
  11        1PY         0.19454  -0.05303   0.08248   0.03848   0.15871
  12        1PZ        -0.00606  -0.00198  -0.00018   0.00042  -0.01056
  13 4   C  1S          0.36941  -0.15055   0.52229  -0.02652   0.37340
  14        1PX        -0.18246  -0.00042   0.00443  -0.04939   0.15975
  15        1PY        -0.06031  -0.23222  -0.00206  -0.36611  -0.08610
  16        1PZ         0.00415   0.00016   0.00393   0.00171  -0.00675
  17 5   C  1S          0.26815  -0.49758   0.23101  -0.27323  -0.34536
  18        1PX        -0.02914   0.07631   0.18581  -0.24331   0.15916
  19        1PY        -0.12263   0.04631  -0.08844   0.01654  -0.22076
  20        1PZ        -0.00480   0.00892  -0.00407   0.00570   0.00317
  21 6   H  1S          0.05820  -0.16554   0.08923  -0.16196  -0.22958
  22 7   H  1S          0.09020  -0.04651   0.22902   0.00475   0.28353
  23 8   H  1S          0.06902  -0.03262  -0.19205  -0.12134   0.25474
  24 9   H  1S          0.05688  -0.17220  -0.12654   0.29916  -0.06833
                           6         7         8         9        10
                           O         O         O         O         O
     Eigenvalues --    -0.69935  -0.61807  -0.59469  -0.52448  -0.49315
   1 1   C  1S         -0.08973  -0.01732   0.16563   0.02015  -0.07368
   2        1PX         0.19227  -0.01265  -0.10915   0.49140  -0.18296
   3        1PY        -0.20602  -0.00641   0.12250  -0.26982  -0.01088
   4        1PZ        -0.00399   0.18610   0.02220  -0.00193   0.00320
   5 2   C  1S         -0.05940   0.00656  -0.16015   0.06309   0.09806
   6        1PX         0.24734  -0.05196   0.45628   0.06411   0.17937
   7        1PY         0.22250  -0.00248   0.05257   0.18569   0.07873
   8        1PZ        -0.00293   0.37513   0.03542   0.01401   0.01481
   9 3   O  1S         -0.19991   0.01073  -0.03484   0.00617  -0.12285
  10        1PX        -0.03285   0.02968  -0.43608   0.05009  -0.06002
  11        1PY         0.50914   0.00869   0.00933  -0.17979   0.49991
  12        1PZ        -0.00411   0.78712   0.05901   0.04336   0.01709
  13 4   C  1S         -0.08099  -0.00816   0.14133  -0.05536  -0.03268
  14        1PX        -0.40654  -0.02512   0.33987   0.33765   0.06479
  15        1PY         0.00434   0.01153   0.12425  -0.24998  -0.31113
  16        1PZ         0.01075   0.39149   0.01449   0.00094   0.00378
  17 5   C  1S         -0.08327   0.01706  -0.18884   0.03171  -0.03763
  18        1PX        -0.11922   0.01725  -0.02491  -0.37799   0.15921
  19        1PY        -0.27367  -0.01500  -0.14159   0.16532   0.54521
  20        1PZ         0.00257   0.20836   0.01664   0.00060   0.00308
  21 6   H  1S         -0.22140  -0.00117  -0.20152   0.02126   0.44492
  22 7   H  1S         -0.28633  -0.03162   0.29780   0.27069   0.09703
  23 8   H  1S         -0.22407   0.03788  -0.36011  -0.08854  -0.08326
  24 9   H  1S         -0.22089  -0.00002   0.21361  -0.41647   0.05877
                          11        12        13        14        15
                           O         O         O         V         V
     Eigenvalues --    -0.48198  -0.38636  -0.34241   0.03060   0.05706
   1 1   C  1S          0.01945  -0.01785  -0.01355   0.02406   0.01692
   2        1PX        -0.25418  -0.00807  -0.00520   0.00857  -0.01515
   3        1PY        -0.47419  -0.02833  -0.02247   0.01157   0.01222
   4        1PZ        -0.03332   0.55373   0.45218  -0.38714  -0.54676
   5 2   C  1S         -0.00744   0.00540  -0.01089  -0.01051  -0.02706
   6        1PX         0.00998   0.00847  -0.01371   0.00868  -0.02132
   7        1PY         0.50259   0.01622   0.02528   0.00742   0.02122
   8        1PZ        -0.02616   0.08080   0.61542   0.62883   0.27281
   9 3   O  1S          0.16364  -0.00251   0.00607  -0.00482   0.01555
  10        1PX         0.07556   0.00551   0.00335   0.00013  -0.01454
  11        1PY        -0.29256  -0.01950  -0.00797  -0.00903   0.02527
  12        1PZ         0.01140  -0.45932  -0.04097  -0.39778   0.05139
  13 4   C  1S         -0.08191  -0.00696   0.00213   0.00173  -0.01263
  14        1PX         0.02487   0.01284  -0.02077   0.01573  -0.00617
  15        1PY         0.22888  -0.01062   0.01283  -0.00941   0.01566
  16        1PZ         0.00619   0.24085  -0.57806   0.49784  -0.45163
  17 5   C  1S          0.00956   0.02696  -0.00741  -0.01352   0.02558
  18        1PX         0.39683   0.00332   0.00205   0.01641   0.00470
  19        1PY         0.01668   0.00267  -0.00087  -0.00580   0.01366
  20        1PZ        -0.01191   0.64396  -0.28009  -0.21481   0.64270
  21 6   H  1S          0.14816  -0.00262   0.00740   0.00623  -0.02734
  22 7   H  1S         -0.09718   0.00108  -0.00481  -0.00911   0.01739
  23 8   H  1S         -0.28525  -0.01205   0.00180   0.01257   0.02570
  24 9   H  1S         -0.08309   0.00111   0.00111  -0.01530  -0.02354
                          16        17        18        19        20
                           V         V         V         V         V
     Eigenvalues --     0.08366   0.14595   0.14974   0.16275   0.18475
   1 1   C  1S          0.04204   0.33626   0.09705  -0.13381   0.19820
   2        1PX         0.03846   0.03208   0.37768   0.17590   0.31944
   3        1PY         0.04193  -0.29064   0.41725  -0.02874   0.14804
   4        1PZ         0.03637   0.01539   0.01888  -0.00599   0.00638
   5 2   C  1S         -0.31230  -0.43339   0.20279  -0.00890   0.11356
   6        1PX        -0.27916   0.26019   0.12984   0.37956  -0.14235
   7        1PY         0.28626  -0.14229   0.24010   0.11930  -0.15408
   8        1PZ        -0.03111  -0.01710  -0.00584  -0.00212   0.00478
   9 3   O  1S          0.26290  -0.05370   0.00118  -0.05054   0.02723
  10        1PX        -0.10602  -0.11763   0.15089   0.20137   0.10198
  11        1PY         0.43957  -0.08926  -0.01715  -0.01462   0.07866
  12        1PZ        -0.02598   0.01050   0.00559   0.00891  -0.00077
  13 4   C  1S         -0.23528   0.20257   0.24041  -0.36383  -0.26039
  14        1PX         0.20188  -0.00327   0.20756   0.14897  -0.06274
  15        1PY         0.39782  -0.10169   0.17119  -0.29375   0.05803
  16        1PZ         0.02980  -0.00888  -0.01563  -0.01742  -0.01256
  17 5   C  1S         -0.01172  -0.25080  -0.25215   0.28168  -0.32422
  18        1PX        -0.01210   0.06421   0.30379   0.37145   0.26171
  19        1PY         0.06381  -0.07751   0.24552  -0.22940  -0.40742
  20        1PZ        -0.03276   0.02030   0.01950  -0.01468   0.03110
  21 6   H  1S         -0.09277   0.29485  -0.13284  -0.17884   0.47320
  22 7   H  1S          0.22776  -0.21583  -0.40019   0.11531   0.26491
  23 8   H  1S          0.36365   0.47552   0.05996   0.32243  -0.22660
  24 9   H  1S         -0.08735  -0.12559  -0.07991   0.29656  -0.03456
                          21        22        23        24
                           V         V         V         V
     Eigenvalues --     0.18744   0.19838   0.21111   0.23312
   1 1   C  1S         -0.42657  -0.12724  -0.07038   0.03411
   2        1PX         0.02301   0.12083   0.40750  -0.25369
   3        1PY         0.14349  -0.25208  -0.40057  -0.06674
   4        1PZ        -0.02701  -0.02201  -0.02080  -0.00498
   5 2   C  1S          0.07352  -0.02836  -0.05667   0.14198
   6        1PX         0.12848  -0.25243   0.00481   0.41293
   7        1PY         0.43529  -0.14996  -0.19950  -0.27529
   8        1PZ         0.00001   0.00681   0.01174   0.01365
   9 3   O  1S         -0.01770   0.10161  -0.00967  -0.00592
  10        1PX        -0.02341  -0.02395   0.08956   0.56165
  11        1PY        -0.14640   0.23349  -0.01995   0.11513
  12        1PZ        -0.00008  -0.00695  -0.00316   0.00045
  13 4   C  1S          0.10932   0.06101   0.06172  -0.12825
  14        1PX        -0.08663   0.56029  -0.24341   0.21668
  15        1PY         0.11299  -0.07169   0.28259   0.43332
  16        1PZ         0.00363  -0.02007   0.01140  -0.00884
  17 5   C  1S         -0.17937   0.08025  -0.19027  -0.01729
  18        1PX        -0.40013  -0.08736   0.02960  -0.24800
  19        1PY        -0.18453  -0.21762   0.36787  -0.00383
  20        1PZ         0.01931   0.00619   0.01351   0.00444
  21 6   H  1S          0.40671   0.12430  -0.12791   0.07184
  22 7   H  1S          0.00723  -0.46981   0.17240  -0.00711
  23 8   H  1S          0.21676  -0.18100  -0.03991   0.02515
  24 9   H  1S          0.30186   0.31475   0.50310  -0.12526
     Density Matrix:
                           1         2         3         4         5
   1 1   C  1S          1.22683
   2        1PX        -0.05252   0.95205
   3        1PY         0.05003  -0.03713   0.93522
   4        1PZ        -0.01531  -0.00896  -0.01044   1.09503
   5 2   C  1S          0.27023  -0.04971  -0.49003  -0.00910   1.26023
   6        1PX        -0.00052   0.12401   0.02543  -0.00269  -0.11330
   7        1PY         0.44085  -0.09815  -0.65239   0.01272  -0.02044
   8        1PZ        -0.02424  -0.00121  -0.01054   0.78907  -0.00718
   9 3   O  1S         -0.00104  -0.03559  -0.01771  -0.00214   0.11979
  10        1PX         0.02091  -0.01586  -0.06230  -0.00206  -0.39700
  11        1PY        -0.08527  -0.03433   0.06014  -0.00644   0.18701
  12        1PZ         0.01181   0.00732   0.00635  -0.25077  -0.01551
  13 4   C  1S         -0.03069  -0.01770   0.02503  -0.00183   0.01394
  14        1PX         0.02876  -0.00799  -0.02386  -0.00239   0.01137
  15        1PY        -0.01161  -0.08481  -0.05388  -0.00767  -0.03855
  16        1PZ        -0.00166  -0.00708   0.00441  -0.11004   0.00796
  17 5   C  1S          0.26408   0.45166   0.11468   0.02886  -0.02843
  18        1PX        -0.44893  -0.64110  -0.21041  -0.02031   0.00032
  19        1PY        -0.06173  -0.08454   0.08940  -0.00292   0.01973
  20        1PZ        -0.02270  -0.01620  -0.01352   0.53885   0.00994
  21 6   H  1S         -0.04381  -0.05984  -0.00677  -0.00772   0.05185
  22 7   H  1S          0.04074   0.05858   0.01561   0.00196   0.05397
  23 8   H  1S         -0.05584   0.00717   0.09851   0.00356   0.62006
  24 9   H  1S          0.61890  -0.57110   0.48760   0.02948  -0.05341
                           6         7         8         9        10
   6        1PX         0.84377
   7        1PY         0.07957   0.94827
   8        1PZ        -0.01122   0.01105   1.05690
   9 3   O  1S          0.28211  -0.10774   0.01064   1.82734
  10        1PX        -0.63240   0.29692  -0.01831   0.07043   1.15280
  11        1PY         0.39167   0.01087   0.01500  -0.29896  -0.05346
  12        1PZ        -0.02314   0.01352   0.47125   0.01164  -0.00684
  13 4   C  1S          0.01033  -0.03887   0.00198   0.11386   0.26554
  14        1PX         0.05755  -0.00539  -0.00814  -0.20724  -0.24500
  15        1PY         0.04512  -0.02000   0.00727  -0.22477  -0.41982
  16        1PZ         0.00319  -0.00952  -0.37804   0.00551   0.01236
  17 5   C  1S         -0.01265  -0.01679  -0.00106  -0.00152   0.01697
  18        1PX        -0.06337   0.06830  -0.01186   0.03707  -0.03162
  19        1PY         0.00821  -0.00775   0.00139   0.00082   0.01643
  20        1PZ         0.01158  -0.00295  -0.08252  -0.00614   0.00405
  21 6   H  1S         -0.00137   0.06210   0.00390   0.02533   0.03172
  22 7   H  1S          0.09735  -0.02846   0.00458  -0.04641  -0.02674
  23 8   H  1S         -0.53586  -0.49478   0.01600  -0.05205   0.06837
  24 9   H  1S         -0.01843  -0.06417   0.01032   0.02004  -0.05722
                          11        12        13        14        15
  11        1PY         1.40358
  12        1PZ         0.01850   1.67634
  13 4   C  1S          0.31776  -0.00904   1.21909
  14        1PX        -0.50273   0.02468   0.10824   0.92423
  15        1PY        -0.40265   0.01754   0.02329  -0.08736   0.85313
  16        1PZ         0.01789   0.44449  -0.00923   0.00928  -0.00790
  17 5   C  1S         -0.07902  -0.01152   0.30262  -0.22225   0.42127
  18        1PX        -0.01581   0.00011   0.25974  -0.04864   0.38278
  19        1PY         0.05823  -0.00109  -0.41484   0.28202  -0.43272
  20        1PZ        -0.00631  -0.23881  -0.01602   0.02929  -0.02784
  21 6   H  1S          0.09084   0.00307  -0.05353   0.04443  -0.04381
  22 7   H  1S         -0.06182   0.00473   0.64201   0.68686  -0.21208
  23 8   H  1S         -0.04813   0.00675   0.05292  -0.08313  -0.07216
  24 9   H  1S          0.05698  -0.00839   0.04682  -0.02609   0.05113
                          16        17        18        19        20
  16        1PZ         1.09177
  17 5   C  1S          0.03516   1.22594
  18        1PX         0.01312   0.01894   0.93315
  19        1PY        -0.01346   0.05921   0.03668   0.98811
  20        1PZ         0.79747   0.02022  -0.00169  -0.00377   1.07428
  21 6   H  1S         -0.01241   0.56765   0.31623   0.72599  -0.02416
  22 7   H  1S         -0.01743  -0.05570  -0.03784   0.07345   0.00087
  23 8   H  1S         -0.00261   0.04023  -0.05361  -0.00864  -0.00716
  24 9   H  1S          0.00067  -0.04914   0.06570   0.01658   0.00900
                          21        22        23        24
  21 6   H  1S          0.85548
  22 7   H  1S          0.01085   0.81397
  23 8   H  1S         -0.01112  -0.02644   0.79988
  24 9   H  1S         -0.00279  -0.01179   0.01676   0.84260
    Full Mulliken population analysis:
                           1         2         3         4         5
   1 1   C  1S          1.22683
   2        1PX         0.00000   0.95205
   3        1PY         0.00000   0.00000   0.93522
   4        1PZ         0.00000   0.00000   0.00000   1.09503
   5 2   C  1S          0.00000   0.00000   0.00000   0.00000   1.26023
   6        1PX         0.00000   0.00000   0.00000   0.00000   0.00000
   7        1PY         0.00000   0.00000   0.00000   0.00000   0.00000
   8        1PZ         0.00000   0.00000   0.00000   0.00000   0.00000
   9 3   O  1S          0.00000   0.00000   0.00000   0.00000   0.00000
  10        1PX         0.00000   0.00000   0.00000   0.00000   0.00000
  11        1PY         0.00000   0.00000   0.00000   0.00000   0.00000
  12        1PZ         0.00000   0.00000   0.00000   0.00000   0.00000
  13 4   C  1S          0.00000   0.00000   0.00000   0.00000   0.00000
  14        1PX         0.00000   0.00000   0.00000   0.00000   0.00000
  15        1PY         0.00000   0.00000   0.00000   0.00000   0.00000
  16        1PZ         0.00000   0.00000   0.00000   0.00000   0.00000
  17 5   C  1S          0.00000   0.00000   0.00000   0.00000   0.00000
  18        1PX         0.00000   0.00000   0.00000   0.00000   0.00000
  19        1PY         0.00000   0.00000   0.00000   0.00000   0.00000
  20        1PZ         0.00000   0.00000   0.00000   0.00000   0.00000
  21 6   H  1S          0.00000   0.00000   0.00000   0.00000   0.00000
  22 7   H  1S          0.00000   0.00000   0.00000   0.00000   0.00000
  23 8   H  1S          0.00000   0.00000   0.00000   0.00000   0.00000
  24 9   H  1S          0.00000   0.00000   0.00000   0.00000   0.00000
                           6         7         8         9        10
   6        1PX         0.84377
   7        1PY         0.00000   0.94827
   8        1PZ         0.00000   0.00000   1.05690
   9 3   O  1S          0.00000   0.00000   0.00000   1.82734
  10        1PX         0.00000   0.00000   0.00000   0.00000   1.15280
  11        1PY         0.00000   0.00000   0.00000   0.00000   0.00000
  12        1PZ         0.00000   0.00000   0.00000   0.00000   0.00000
  13 4   C  1S          0.00000   0.00000   0.00000   0.00000   0.00000
  14        1PX         0.00000   0.00000   0.00000   0.00000   0.00000
  15        1PY         0.00000   0.00000   0.00000   0.00000   0.00000
  16        1PZ         0.00000   0.00000   0.00000   0.00000   0.00000
  17 5   C  1S          0.00000   0.00000   0.00000   0.00000   0.00000
  18        1PX         0.00000   0.00000   0.00000   0.00000   0.00000
  19        1PY         0.00000   0.00000   0.00000   0.00000   0.00000
  20        1PZ         0.00000   0.00000   0.00000   0.00000   0.00000
  21 6   H  1S          0.00000   0.00000   0.00000   0.00000   0.00000
  22 7   H  1S          0.00000   0.00000   0.00000   0.00000   0.00000
  23 8   H  1S          0.00000   0.00000   0.00000   0.00000   0.00000
  24 9   H  1S          0.00000   0.00000   0.00000   0.00000   0.00000
                          11        12        13        14        15
  11        1PY         1.40358
  12        1PZ         0.00000   1.67634
  13 4   C  1S          0.00000   0.00000   1.21909
  14        1PX         0.00000   0.00000   0.00000   0.92423
  15        1PY         0.00000   0.00000   0.00000   0.00000   0.85313
  16        1PZ         0.00000   0.00000   0.00000   0.00000   0.00000
  17 5   C  1S          0.00000   0.00000   0.00000   0.00000   0.00000
  18        1PX         0.00000   0.00000   0.00000   0.00000   0.00000
  19        1PY         0.00000   0.00000   0.00000   0.00000   0.00000
  20        1PZ         0.00000   0.00000   0.00000   0.00000   0.00000
  21 6   H  1S          0.00000   0.00000   0.00000   0.00000   0.00000
  22 7   H  1S          0.00000   0.00000   0.00000   0.00000   0.00000
  23 8   H  1S          0.00000   0.00000   0.00000   0.00000   0.00000
  24 9   H  1S          0.00000   0.00000   0.00000   0.00000   0.00000
                          16        17        18        19        20
  16        1PZ         1.09177
  17 5   C  1S          0.00000   1.22594
  18        1PX         0.00000   0.00000   0.93315
  19        1PY         0.00000   0.00000   0.00000   0.98811
  20        1PZ         0.00000   0.00000   0.00000   0.00000   1.07428
  21 6   H  1S          0.00000   0.00000   0.00000   0.00000   0.00000
  22 7   H  1S          0.00000   0.00000   0.00000   0.00000   0.00000
  23 8   H  1S          0.00000   0.00000   0.00000   0.00000   0.00000
  24 9   H  1S          0.00000   0.00000   0.00000   0.00000   0.00000
                          21        22        23        24
  21 6   H  1S          0.85548
  22 7   H  1S          0.00000   0.81397
  23 8   H  1S          0.00000   0.00000   0.79988
  24 9   H  1S          0.00000   0.00000   0.00000   0.84260
     Gross orbital populations:
                           1
   1 1   C  1S          1.22683
   2        1PX         0.95205
   3        1PY         0.93522
   4        1PZ         1.09503
   5 2   C  1S          1.26023
   6        1PX         0.84377
   7        1PY         0.94827
   8        1PZ         1.05690
   9 3   O  1S          1.82734
  10        1PX         1.15280
  11        1PY         1.40358
  12        1PZ         1.67634
  13 4   C  1S          1.21909
  14        1PX         0.92423
  15        1PY         0.85313
  16        1PZ         1.09177
  17 5   C  1S          1.22594
  18        1PX         0.93315
  19        1PY         0.98811
  20        1PZ         1.07428
  21 6   H  1S          0.85548
  22 7   H  1S          0.81397
  23 8   H  1S          0.79988
  24 9   H  1S          0.84260
          Condensed to atoms (all electrons):
               1          2          3          4          5          6
     1  C    4.209136   0.000000   0.000000   0.000000   0.000000   0.000000
     2  C    0.000000   4.109172   0.000000   0.000000   0.000000   0.000000
     3  O    0.000000   0.000000   6.060058   0.000000   0.000000   0.000000
     4  C    0.000000   0.000000   0.000000   4.088229   0.000000   0.000000
     5  C    0.000000   0.000000   0.000000   0.000000   4.221477   0.000000
     6  H    0.000000   0.000000   0.000000   0.000000   0.000000   0.855477
     7  H    0.000000   0.000000   0.000000   0.000000   0.000000   0.000000
     8  H    0.000000   0.000000   0.000000   0.000000   0.000000   0.000000
     9  H    0.000000   0.000000   0.000000   0.000000   0.000000   0.000000
               7          8          9
     1  C    0.000000   0.000000   0.000000
     2  C    0.000000   0.000000   0.000000
     3  O    0.000000   0.000000   0.000000
     4  C    0.000000   0.000000   0.000000
     5  C    0.000000   0.000000   0.000000
     6  H    0.000000   0.000000   0.000000
     7  H    0.813972   0.000000   0.000000
     8  H    0.000000   0.799878   0.000000
     9  H    0.000000   0.000000   0.842601
 Mulliken charges:
               1
     1  C   -0.209136
     2  C   -0.109172
     3  O   -0.060058
     4  C   -0.088229
     5  C   -0.221477
     6  H    0.144523
     7  H    0.186028
     8  H    0.200122
     9  H    0.157399
 Sum of Mulliken charges =   0.00000
 Mulliken charges with hydrogens summed into heavy atoms:
               1
     1  C   -0.051738
     2  C    0.090950
     3  O   -0.060058
     4  C    0.097799
     5  C   -0.076953
 Charge=              0.0000 electrons
 Dipole moment (field-independent basis, Debye):
    X=             -0.1776    Y=              0.0195    Z=              0.0035  Tot=              0.1787
 N-N= 1.039492055311D+02 E-N=-1.716865191329D+02  KE=-1.664436176856D+01
 Orbital energies and kinetic energies (alpha):
                                 1                 2
   1         O                -1.589671         -1.321433
   2         O                -1.225740         -1.051043
   3         O                -1.120602         -0.974785
   4         O                -0.840847         -0.718811
   5         O                -0.818008         -0.731729
   6         O                -0.699350         -0.606432
   7         O                -0.618074         -0.494811
   8         O                -0.594686         -0.525060
   9         O                -0.524476         -0.444349
  10         O                -0.493154         -0.411385
  11         O                -0.481984         -0.393050
  12         O                -0.386358         -0.338061
  13         O                -0.342414         -0.311234
  14         V                 0.030598         -0.189808
  15         V                 0.057064         -0.195396
  16         V                 0.083655         -0.191673
  17         V                 0.145945         -0.224979
  18         V                 0.149743         -0.166360
  19         V                 0.162751         -0.165806
  20         V                 0.184750         -0.183683
  21         V                 0.187436         -0.169720
  22         V                 0.198384         -0.149177
  23         V                 0.211112         -0.142033
  24         V                 0.233122         -0.030740
 Total kinetic energy from orbitals=-1.664436176856D+01
 Leave Link  601 at Tue Dec 15 16:19:44 2015, MaxMem=    33554432 cpu:         0.0
 (Enter /home/Applications/g09/g09/l701.exe)
 Compute integral first derivatives.
 ... and contract with generalized density number  6.
 Leave Link  701 at Tue Dec 15 16:19:44 2015, MaxMem=    33554432 cpu:         0.0
 (Enter /home/Applications/g09/g09/l702.exe)
 L702 exits ... SP integral derivatives will be done elsewhere.
 Leave Link  702 at Tue Dec 15 16:19:44 2015, MaxMem=    33554432 cpu:         0.0
 (Enter /home/Applications/g09/g09/l703.exe)
 Compute integral first derivatives, UseDBF=F ICtDFT=           0.
 Integral derivatives from FoFJK, PRISM(SPDF).
 Calling FoFJK, ICntrl=  10005127 FMM=F ISym2X=0 I1Cent= 0 IOpClX= 0 NMat=1 NMatS=1 NMatT=0.
 FoFJK:  IHMeth= 8 ICntrl=10005127 DoSepK=F KAlg= 0 I1Cent=   0 FoldK=F
 IRaf=         0 NMat=   1 IRICut=       1 DoRegI=T DoRafI=F ISym2E= 0.
 FoFCou: FMM=F IPFlag=           0 FMFlag=      100000 FMFlg1=         800
         NFxFlg=           0 DoJE=F BraDBF=F KetDBF=F FulRan=T
         wScrn=  0.000000 ICntrl=10005127 IOpCl=  0 I1Cent=           0 NGrid=           0
         NMat0=    1 NMatS0=      1 NMatT0=    0 NMatD0=    1 NMtDS0=    0 NMtDT0=    0
 Symmetry not used in FoFCou.
 Leave Link  703 at Tue Dec 15 16:19:44 2015, MaxMem=    33554432 cpu:         0.0
 (Enter /home/Applications/g09/g09/l716.exe)
 Dipole        =-5.20801132D-02 1.38767061D-01-1.12470357D-01
 ***** Axes restored to original set *****
 -------------------------------------------------------------------
 Center     Atomic                   Forces (Hartrees/Bohr)
 Number     Number              X              Y              Z
 -------------------------------------------------------------------
      1        6          -0.066947281    0.102368172   -0.008956380
      2        6           0.046572421   -0.069286524    0.003658263
      3        8          -0.176000963   -0.026494449   -0.013586942
      4        6           0.052074660   -0.018086788   -0.000473864
      5        6           0.112545529   -0.038700173    0.010138316
      6        1           0.016537945    0.010534388   -0.002403654
      7        1          -0.049596560    0.092432939    0.006200329
      8        1          -0.012078223    0.001893556    0.004883715
      9        1           0.076892474   -0.054661122    0.000540216
 -------------------------------------------------------------------
 Cartesian Forces:  Max     0.176000963 RMS     0.058277647
 Z-matrix is all fixed cartesians, so copy forces.
 Force constants in Cartesian coordinates: 
                1             2             3             4             5 
      1  0.899245D+00
      2 -0.145997D+00  0.808971D+00
      3 -0.961934D-02 -0.315025D-03  0.180238D+00
      4 -0.391448D+00 -0.683034D-01 -0.409718D-02  0.805116D+00
      5 -0.486944D-01 -0.182063D+00 -0.110200D-02 -0.508326D-01  0.947765D+00
      6 -0.101255D-01 -0.272265D-02 -0.777145D-01  0.258199D-01 -0.642246D-02
      7 -0.750700D-02  0.300443D-01 -0.164952D-02 -0.293058D+00  0.187606D+00
      8 -0.482209D-02  0.192756D-01 -0.378573D-03  0.232824D+00 -0.457624D+00
      9 -0.655844D-03  0.101722D-02  0.815904D-02 -0.166647D-01  0.153035D-01
     10  0.110564D-01  0.637754D-03 -0.123605D-04  0.278741D-01  0.178810D-01
     11  0.334505D-01  0.190470D-02 -0.889782D-03 -0.183202D-01 -0.117599D-01
     12 -0.243298D-02 -0.215652D-03 -0.320491D-02  0.211300D-02  0.123495D-02
     13 -0.164241D+00  0.218015D-01 -0.226478D-03  0.811466D-02 -0.325014D-01
     14  0.363576D-02 -0.375651D+00  0.164809D-01  0.465746D-03 -0.190981D-02
     15 -0.664349D-03  0.162139D-01 -0.739398D-01  0.338618D-03 -0.646707D-03
     16  0.167244D-01  0.984504D-03  0.343879D-03  0.941657D-05 -0.124751D-04
     17 -0.231244D-01 -0.143428D-02 -0.225233D-02 -0.314740D-05  0.416968D-05
     18  0.285525D-02  0.844766D-03  0.165230D-01 -0.898716D-04  0.119062D-03
     19  0.101675D-05  0.164059D-05  0.384812D-04  0.193418D-05  0.000000D+00
     20 -0.443790D-05 -0.716081D-05 -0.167962D-03  0.110446D-04 -0.147810D-05
     21  0.202642D-03  0.326975D-03  0.766945D-02 -0.416472D-03  0.557364D-04
     22  0.648184D-02 -0.257409D-01 -0.113335D-02 -0.151755D+00 -0.926515D-01
     23 -0.280617D-02  0.111953D-01 -0.158497D-03 -0.897260D-01 -0.318712D+00
     24 -0.122155D-03 -0.103869D-02  0.192932D-01 -0.638879D-02 -0.946408D-02
     25 -0.370312D+00  0.186571D+00  0.163559D-01 -0.485467D-02  0.192053D-01
     26  0.188362D+00 -0.282191D+00 -0.112167D-01 -0.611539D-02  0.243017D-01
     27  0.205622D-01 -0.141108D-01 -0.770230D-01 -0.614464D-03  0.922036D-03
                6             7             8             9            10 
      6  0.160007D+00
      7 -0.147806D-01  0.558169D+00
      8  0.165183D-01  0.175237D-02  0.885038D+00
      9 -0.499636D-01  0.248196D-01 -0.459823D-02  0.660256D-01
     10  0.119806D-02 -0.297552D+00 -0.234716D+00 -0.951678D-02  0.966606D+00
     11 -0.920437D-03 -0.190719D+00 -0.451892D+00 -0.108321D-01 -0.565173D-01
     12 -0.194453D-02 -0.962735D-02 -0.122457D-01 -0.530444D-01 -0.490055D-03
     13  0.209111D-02 -0.102102D-01  0.667355D-02  0.651727D-03 -0.491460D+00
     14  0.427400D-03 -0.307260D-01  0.200944D-01  0.113974D-02  0.113779D+00
     15 -0.703584D-03 -0.123451D-02  0.391963D-03  0.106906D-01  0.507886D-02
     16 -0.316820D-03  0.000000D+00  0.324629D-05 -0.105074D-03 -0.576458D-02
     17  0.105894D-03 -0.113318D-05  0.172123D-04 -0.557121D-03  0.780026D-02
     18  0.302372D-02  0.132017D-04 -0.200525D-03  0.649050D-02  0.593470D-03
     19 -0.341123D-04  0.261692D-01 -0.171372D-01 -0.308768D-03 -0.210798D+00
     20 -0.194790D-03  0.124872D-01 -0.817487D-02 -0.231879D-03  0.151129D+00
     21  0.734515D-02  0.101652D-02 -0.768535D-03  0.346732D-02  0.342569D-02
     22 -0.563324D-02  0.239891D-01  0.154226D-01  0.178609D-02  0.278655D-04
     23 -0.765767D-02 -0.104537D-01 -0.672554D-02 -0.889285D-03  0.000000D+00
     24 -0.593570D-01  0.156928D-02  0.115337D-02  0.341115D-02 -0.385675D-03
     25  0.178121D-02  0.000000D+00  0.000000D+00 -0.624602D-05  0.101789D-04
     26  0.866411D-03  0.935023D-05 -0.944669D-05 -0.351777D-03  0.506225D-05
     27  0.193078D-01 -0.126622D-03  0.127928D-03  0.476380D-02  0.108798D-03
               11            12            13            14            15 
     11  0.111332D+01
     12  0.222989D-01  0.216631D+00
     13  0.929698D-01  0.924868D-02  0.911800D+00
     14 -0.222988D+00 -0.280216D-02  0.826873D-02  0.769751D+00
     15 -0.283610D-02 -0.104891D+00  0.128527D-01 -0.355917D-03  0.192843D+00
     16 -0.172912D-01 -0.239480D-02 -0.282796D+00 -0.125446D+00 -0.163645D-01
     17  0.235033D-01  0.380982D-03 -0.126396D+00 -0.204526D+00 -0.101485D-01
     18  0.799068D-03  0.267426D-01 -0.208118D-01 -0.132075D-01 -0.761913D-01
     19  0.156414D+00  0.368971D-02  0.960667D-02  0.289381D-01  0.687524D-03
     20 -0.452092D+00 -0.882685D-02  0.460298D-02  0.138932D-01 -0.418314D-03
     21 -0.784667D-02 -0.912086D-01 -0.407449D-03 -0.236678D-02  0.307431D-01
     22 -0.372924D-05 -0.491453D-03  0.144290D-05 -0.191155D-05 -0.485462D-04
     23  0.000000D+00 -0.160443D-04  0.317776D-05 -0.420990D-05 -0.106916D-03
     24  0.516149D-04  0.680200D-02 -0.112912D-03  0.149586D-03  0.379891D-02
     25  0.164243D-04  0.385244D-03  0.191834D-01  0.108650D-02 -0.645794D-03
     26  0.816823D-05  0.191592D-03  0.245776D-01  0.133998D-02 -0.209335D-02
     27  0.175552D-03  0.411770D-02 -0.328552D-02  0.534779D-03  0.176496D-01
               16            17            18            19            20 
     16  0.271769D+00
     17  0.141738D+00  0.182467D+00
     18  0.180398D-01  0.116538D-01  0.410664D-01
     19  0.000000D+00  0.511596D-05 -0.596013D-04  0.175018D+00
     20 -0.421150D-05 -0.223300D-04  0.260147D-03 -0.168222D+00  0.446405D+00
     21  0.192305D-03  0.101963D-02 -0.118788D-01 -0.401324D-02  0.957964D-02
     22  0.000000D+00  0.000000D+00  0.000000D+00  0.000000D+00  0.000000D+00
     23  0.000000D+00  0.000000D+00  0.000000D+00  0.000000D+00  0.000000D+00
     24  0.000000D+00  0.000000D+00  0.000000D+00  0.000000D+00  0.000000D+00
     25  0.566217D-04 -0.189253D-04 -0.540397D-03  0.000000D+00  0.000000D+00
     26  0.281594D-04 -0.941204D-05 -0.268753D-03  0.000000D+00  0.000000D+00
     27  0.605205D-03 -0.202284D-03 -0.577606D-02  0.000000D+00  0.000000D+00
               21            22            23            24            25 
     21  0.538624D-01
     22  0.000000D+00  0.121255D+00
     23  0.000000D+00  0.102982D+00  0.314262D+00
     24  0.000000D+00  0.543107D-02  0.863147D-02  0.330496D-01
     25  0.000000D+00  0.000000D+00  0.000000D+00  0.917503D-05  0.355917D+00
     26  0.000000D+00 -0.660340D-05 -0.145430D-04  0.516739D-03 -0.206860D+00
     27  0.000000D+00  0.894239D-04  0.196943D-03 -0.699774D-02 -0.173391D-01
               26            27 
     26  0.256574D+00
     27  0.123559D-01  0.439579D-01
 Leave Link  716 at Tue Dec 15 16:19:44 2015, MaxMem=    33554432 cpu:         0.0
 (Enter /home/Applications/g09/g09/l103.exe)

 GradGradGradGradGradGradGradGradGradGradGradGradGradGradGradGradGradGrad
 Berny optimization.
 Search for a local minimum.
 Step number   1 out of a maximum of    2
 All quantities printed in internal units (Hartrees-Bohrs-Radians)
 Second derivative matrix not updated -- first step.
 ITU=  0
     Eigenvalues ---    0.01592   0.03676   0.07655   0.07698   0.08472
     Eigenvalues ---    0.09121   0.13164   0.14094   0.17392   0.26768
     Eigenvalues ---    0.27499   0.28448   0.37545   0.48049   0.71358
     Eigenvalues ---    0.90709   1.23964   1.33846   1.46169   1.66821
     Eigenvalues ---    1.76461
 Quadratic step=6.426D-01 exceeds max=3.000D-01 adjusted using Lamda=-3.026D-01.
 Angle between NR and scaled steps=  28.03 degrees.
 Angle between quadratic step and forces=  26.19 degrees.
 Linear search not attempted -- first point.
 TrRot= -0.011821 -0.005552 -0.003113  0.514936 -0.001044 -0.514215
 Variable       Old X    -DE/DX   Delta X   Delta X   Delta X     New X
                                 (Linear)    (Quad)   (Total)
    X1        1.88213  -0.06695   0.00000   0.00468  -0.00622   1.87590
    Y1       -1.40295   0.10237   0.00000   0.06440   0.06018  -1.34277
    Z1        0.07347  -0.00896   0.00000  -0.01786  -0.01995   0.05352
    X2       -0.74236   0.04657   0.00000   0.00332  -0.00701  -0.74938
    Y2       -2.06153  -0.06929   0.00000  -0.03083  -0.03693  -2.09846
    Z2        0.02140   0.00366   0.00000   0.00338  -0.00148   0.01992
    X3       -2.09294  -0.17600   0.00000  -0.18613  -0.19788  -2.29082
    Y3        0.04995  -0.02649   0.00000  -0.03566  -0.04281   0.00713
    Z3       -0.07120  -0.01359   0.00000  -0.01721  -0.02239  -0.09359
    X4       -0.71850   0.05207   0.00000   0.02665   0.01330  -0.70520
    Y4        2.14765  -0.01809   0.00000  -0.01991  -0.02595   2.12170
    Z4       -0.00919  -0.00047   0.00000   0.00058  -0.00207  -0.01127
    X5        1.72311   0.11255   0.00000   0.12870   0.11594   1.83905
    Y5        1.33781  -0.03870   0.00000  -0.00925  -0.01346   1.32436
    Z5       -0.03918   0.01014   0.00000   0.01425   0.01350  -0.02568
    X6        3.34489   0.01654   0.00000   0.08763   0.07389   3.41878
    Y6        2.52659   0.01053   0.00000   0.02804   0.02491   2.55150
    Z6        0.08912  -0.00240   0.00000  -0.00153  -0.00021   0.08891
    X7       -1.51168  -0.04960   0.00000  -0.03709  -0.05177  -1.56346
    Y7        3.80663   0.09243   0.00000   0.10126   0.09457   3.90120
    Z7        0.03112   0.00620   0.00000   0.01423   0.01171   0.04283
    X8       -1.55428  -0.01208   0.00000  -0.01141  -0.02037  -1.57465
    Y8       -3.93419   0.00189   0.00000  -0.01345  -0.02011  -3.95430
    Z8       -0.04168   0.00488   0.00000   0.02139   0.01482  -0.02686
    X9        3.33057   0.07689   0.00000   0.09008   0.08012   3.41069
    Y9       -2.54450  -0.05466   0.00000  -0.03731  -0.04040  -2.58490
    Z9       -0.00893   0.00054   0.00000   0.00740   0.00607  -0.00286
         Item               Value     Threshold  Converged?
 Maximum Force            0.176001     0.000450     NO 
 RMS     Force            0.058278     0.000300     NO 
 Maximum Displacement     0.197876     0.001800     NO 
 RMS     Displacement     0.057281     0.001200     NO 
 Predicted change in Energy=-5.447511D-02
 GradGradGradGradGradGradGradGradGradGradGradGradGradGradGradGradGradGrad

 Leave Link  103 at Tue Dec 15 16:19:44 2015, MaxMem=    33554432 cpu:         0.0
 (Enter /home/Applications/g09/g09/l9999.exe)
 1\1\GINC-DUSTIN-DESKTOP\Force\RAM1-FC\STO-3G\C4H4O1\DUSTIN\15-Dec-2015
 \0\\#P AM1(Input,print) CIS(Singlets,NStates=15) pop(full) force\\AM1-
 Reparam Input\\0,1\C,0.995979,-0.742408,0.038878\C,-0.392842,-1.090915
 ,0.011322\O,-1.107536,0.02643,-0.03768\C,-0.380215,1.136487,-0.004864\
 C,0.911828,0.707941,-0.020732\H,1.770041,1.337015,0.047159\H,-0.799948
 ,2.014381,0.016468\H,-0.822489,-2.081883,-0.022058\H,1.76246,-1.346494
 ,-0.004725\\Version=ES64L-G09RevD.01\State=1-A\HF=0.0484025\RMSD=3.980
 e-09\RMSF=5.828e-02\Dipole=0.1448487,-0.019823,0.1150831\PG=C01 [X(C4H
 4O1)]\\@


 ON A TOMBSTONE, "HERE LIES LESTER MOORE,
 FOUR SLUGS FROM A 44, NO LES, NO MORE".
 Job cpu time:       0 days  0 hours  0 minutes  0.4 seconds.
 File lengths (MBytes):  RWF=      7 Int=      0 D2E=      0 Chk=      2 Scr=      1
 Normal termination of Gaussian 09 at Tue Dec 15 16:19:44 2015.
