 Entering Gaussian System, Link 0=g09
 Input=FuranDFT_50.com
 Output=FuranDFT_50.log
 Initial command:
 /home/Applications/g09/g09/l1.exe "/home/Applications/g09/scratch/Gau-5961.inp" -scrdir="/home/Applications/g09/scratch/"
 Entering Link 1 = /home/Applications/g09/g09/l1.exe PID=      5963.
  
 Copyright (c) 1988,1990,1992,1993,1995,1998,2003,2009,2013,
            Gaussian, Inc.  All Rights Reserved.
  
 This is part of the Gaussian(R) 09 program.  It is based on
 the Gaussian(R) 03 system (copyright 2003, Gaussian, Inc.),
 the Gaussian(R) 98 system (copyright 1998, Gaussian, Inc.),
 the Gaussian(R) 94 system (copyright 1995, Gaussian, Inc.),
 the Gaussian 92(TM) system (copyright 1992, Gaussian, Inc.),
 the Gaussian 90(TM) system (copyright 1990, Gaussian, Inc.),
 the Gaussian 88(TM) system (copyright 1988, Gaussian, Inc.),
 the Gaussian 86(TM) system (copyright 1986, Carnegie Mellon
 University), and the Gaussian 82(TM) system (copyright 1983,
 Carnegie Mellon University). Gaussian is a federally registered
 trademark of Gaussian, Inc.
  
 This software contains proprietary and confidential information,
 including trade secrets, belonging to Gaussian, Inc.
  
 This software is provided under written license and may be
 used, copied, transmitted, or stored only in accord with that
 written license.
  
 The following legend is applicable only to US Government
 contracts under FAR:
  
                    RESTRICTED RIGHTS LEGEND
  
 Use, reproduction and disclosure by the US Government is
 subject to restrictions as set forth in subparagraphs (a)
 and (c) of the Commercial Computer Software - Restricted
 Rights clause in FAR 52.227-19.
  
 Gaussian, Inc.
 340 Quinnipiac St., Bldg. 40, Wallingford CT 06492
  
  
 ---------------------------------------------------------------
 Warning -- This program may not be used in any manner that
 competes with the business of Gaussian, Inc. or will provide
 assistance to any competitor of Gaussian, Inc.  The licensee
 of this program is prohibited from giving any competitor of
 Gaussian, Inc. access to this program.  By using this program,
 the user acknowledges that Gaussian, Inc. is engaged in the
 business of creating and licensing software in the field of
 computational chemistry and represents and warrants to the
 licensee that it is not a competitor of Gaussian, Inc. and that
 it will not use this program in any manner prohibited above.
 ---------------------------------------------------------------
  

 Cite this work as:
 Gaussian 09, Revision D.01,
 M. J. Frisch, G. W. Trucks, H. B. Schlegel, G. E. Scuseria, 
 M. A. Robb, J. R. Cheeseman, G. Scalmani, V. Barone, B. Mennucci, 
 G. A. Petersson, H. Nakatsuji, M. Caricato, X. Li, H. P. Hratchian, 
 A. F. Izmaylov, J. Bloino, G. Zheng, J. L. Sonnenberg, M. Hada, 
 M. Ehara, K. Toyota, R. Fukuda, J. Hasegawa, M. Ishida, T. Nakajima, 
 Y. Honda, O. Kitao, H. Nakai, T. Vreven, J. A. Montgomery, Jr., 
 J. E. Peralta, F. Ogliaro, M. Bearpark, J. J. Heyd, E. Brothers, 
 K. N. Kudin, V. N. Staroverov, T. Keith, R. Kobayashi, J. Normand, 
 K. Raghavachari, A. Rendell, J. C. Burant, S. S. Iyengar, J. Tomasi, 
 M. Cossi, N. Rega, J. M. Millam, M. Klene, J. E. Knox, J. B. Cross, 
 V. Bakken, C. Adamo, J. Jaramillo, R. Gomperts, R. E. Stratmann, 
 O. Yazyev, A. J. Austin, R. Cammi, C. Pomelli, J. W. Ochterski, 
 R. L. Martin, K. Morokuma, V. G. Zakrzewski, G. A. Voth, 
 P. Salvador, J. J. Dannenberg, S. Dapprich, A. D. Daniels, 
 O. Farkas, J. B. Foresman, J. V. Ortiz, J. Cioslowski, 
 and D. J. Fox, Gaussian, Inc., Wallingford CT, 2013.
 
 ******************************************
 Gaussian 09:  ES64L-G09RevD.01 24-Apr-2013
                15-Dec-2015 
 ******************************************
 -------------------------------------------------------
 #P B3LYP/3-21G CIS(Singlets,NStates=15) pop(full) force
 -------------------------------------------------------
 1/10=7,30=1,38=1/1,3;
 2/12=2,17=6,18=5,40=1/2;
 3/5=5,11=9,16=1,25=1,30=1,71=1,74=-5/1,2,8,3;
 4//1;
 5/5=2,38=5/2;
 8/6=1,10=1,108=15/1;
 9/15=2,41=15,42=1,48=1/14;
 10/5=4/2;
 6/7=3,18=1/1;
 7/12=6,13=5,29=1/1,2,3,16;
 1/10=7,30=1/3;
 99//99;
 Leave Link    1 at Tue Dec 15 16:20:33 2015, MaxMem=           0 cpu:         0.0
 (Enter /home/Applications/g09/g09/l101.exe)
 --------
 FuranDFT
 --------
 Symbolic Z-matrix:
 Charge =  0 Multiplicity = 1
 6                     0.97983  -0.68498   0.0472 
 6                    -0.39561  -1.11031   0.02708 
 8                    -1.11091  -0.03029   0.01315 
 6                    -0.30084   1.0788    0.04874 
 6                     0.9291    0.68298  -0.01707 
 1                     1.85889   1.38739   0.02953 
 1                    -0.88223   2.03287  -0.01817 
 1                    -0.7956   -2.01204   0.01249 
 1                     1.76685  -1.32655   0.04309 
 
 NAtoms=      9 NQM=        9 NQMF=       0 NMMI=      0 NMMIF=      0
                NMic=       0 NMicF=      0.
                    Isotopes and Nuclear Properties:
 (Nuclear quadrupole moments (NQMom) in fm**2, nuclear magnetic moments (NMagM)
  in nuclear magnetons)

  Atom         1           2           3           4           5           6           7           8           9
 IAtWgt=          12          12          16          12          12           1           1           1           1
 AtmWgt=  12.0000000  12.0000000  15.9949146  12.0000000  12.0000000   1.0078250   1.0078250   1.0078250   1.0078250
 NucSpn=           0           0           0           0           0           1           1           1           1
 AtZEff=   0.0000000   0.0000000   0.0000000   0.0000000   0.0000000   0.0000000   0.0000000   0.0000000   0.0000000
 NQMom=    0.0000000   0.0000000   0.0000000   0.0000000   0.0000000   0.0000000   0.0000000   0.0000000   0.0000000
 NMagM=    0.0000000   0.0000000   0.0000000   0.0000000   0.0000000   2.7928460   2.7928460   2.7928460   2.7928460
 AtZNuc=   6.0000000   6.0000000   8.0000000   6.0000000   6.0000000   1.0000000   1.0000000   1.0000000   1.0000000
 Leave Link  101 at Tue Dec 15 16:20:33 2015, MaxMem=    33554432 cpu:         0.0
 (Enter /home/Applications/g09/g09/l103.exe)

 GradGradGradGradGradGradGradGradGradGradGradGradGradGradGradGradGradGrad
 Berny optimization.
 Initialization pass.
 Trust Radius=3.00D-01 FncErr=1.00D-07 GrdErr=1.00D-07
 Number of steps in this run=      2 maximum allowed number of steps=      2.
 GradGradGradGradGradGradGradGradGradGradGradGradGradGradGradGradGradGrad

 Leave Link  103 at Tue Dec 15 16:20:33 2015, MaxMem=    33554432 cpu:         0.0
 (Enter /home/Applications/g09/g09/l202.exe)
                          Input orientation:                          
 ---------------------------------------------------------------------
 Center     Atomic      Atomic             Coordinates (Angstroms)
 Number     Number       Type             X           Y           Z
 ---------------------------------------------------------------------
      1          6           0        0.979829   -0.684975    0.047202
      2          6           0       -0.395614   -1.110312    0.027079
      3          8           0       -1.110911   -0.030286    0.013154
      4          6           0       -0.300835    1.078798    0.048738
      5          6           0        0.929100    0.682982   -0.017071
      6          1           0        1.858894    1.387389    0.029531
      7          1           0       -0.882226    2.032868   -0.018172
      8          1           0       -0.795595   -2.012040    0.012487
      9          1           0        1.766845   -1.326551    0.043085
 ---------------------------------------------------------------------
                    Distance matrix (angstroms):
                    1          2          3          4          5
     1  C    0.000000
     2  C    1.439847   0.000000
     3  O    2.191112   1.295492   0.000000
     4  C    2.179678   2.191268   1.373884   0.000000
     5  C    1.370405   2.229960   2.161321   1.293732   0.000000
     6  H    2.251169   3.364717   3.290868   2.181749   1.167424
     7  H    3.295177   3.180946   2.076026   1.119260   2.259003
     8  H    2.216853   0.986565   2.006682   3.130396   3.199780
     9  H    1.015397   2.173303   3.156371   3.171914   2.177994
                    6          7          8          9
     6  H    0.000000
     7  H    2.816497   0.000000
     8  H    4.313087   4.045952   0.000000
     9  H    2.715534   4.278671   2.652721   0.000000
 Stoichiometry    C4H4O
 Framework group  C1[X(C4H4O)]
 Deg. of freedom    21
 Full point group                 C1      NOp   1
 Largest Abelian subgroup         C1      NOp   1
 Largest concise Abelian subgroup C1      NOp   1
                         Standard orientation:                         
 ---------------------------------------------------------------------
 Center     Atomic      Atomic             Coordinates (Angstroms)
 Number     Number       Type             X           Y           Z
 ---------------------------------------------------------------------
      1          6           0       -0.255349    1.154326   -0.018917
      2          6           0       -1.171603    0.043826    0.001751
      3          8           0       -0.444608   -1.028435    0.007647
      4          6           0        0.888982   -0.700744   -0.033743
      5          6           0        0.990899    0.587051    0.036535
      6          1           0        1.995673    1.179372   -0.013098
      7          1           0        1.550679   -1.601472    0.026153
      8          1           0       -2.157597    0.016672    0.021472
      9          1           0       -0.549466    2.126148   -0.009459
 ---------------------------------------------------------------------
 Rotational constants (GHZ):      9.9525407      9.3836719      4.8332163
 Leave Link  202 at Tue Dec 15 16:20:33 2015, MaxMem=    33554432 cpu:         0.0
 (Enter /home/Applications/g09/g09/l301.exe)
 Standard basis: 3-21G (6D, 7F)
 Ernie: Thresh=  0.10000D-02 Tol=  0.10000D-05 Strict=F.
 There are    53 symmetry adapted cartesian basis functions of A   symmetry.
 There are    53 symmetry adapted basis functions of A   symmetry.
    53 basis functions,    87 primitive gaussians,    53 cartesian basis functions
    18 alpha electrons       18 beta electrons
       nuclear repulsion energy       163.4463427533 Hartrees.
 IExCor=  402 DFT=T Ex+Corr=B3LYP ExCW=0 ScaHFX=  0.200000
 ScaDFX=  0.800000  0.720000  1.000000  0.810000 ScalE2=  1.000000  1.000000
 IRadAn=      0 IRanWt=     -1 IRanGd=            0 ICorTp=0 IEmpDi=  4
 NAtoms=    9 NActive=    9 NUniq=    9 SFac= 1.00D+00 NAtFMM=   60 NAOKFM=F Big=F
 Integral buffers will be    131072 words long.
 Regular integral format.
 Two-electron integral symmetry is turned on.
 Leave Link  301 at Tue Dec 15 16:20:33 2015, MaxMem=    33554432 cpu:         0.0
 (Enter /home/Applications/g09/g09/l302.exe)
 NPDir=0 NMtPBC=     1 NCelOv=     1 NCel=       1 NClECP=     1 NCelD=      1
         NCelK=      1 NCelE2=     1 NClLst=     1 CellRange=     0.0.
 One-electron integrals computed using PRISM.
 NBasis=    53 RedAO= T EigKep=  2.94D-03  NBF=    53
 NBsUse=    53 1.00D-06 EigRej= -1.00D+00 NBFU=    53
 Precomputing XC quadrature grid using
 IXCGrd= 4 IRadAn=           0 IRanWt=          -1 IRanGd=           0 AccXCQ= 0.00D+00.
 Generated NRdTot=       0 NPtTot=           0 NUsed=           0 NTot=          32
 NSgBfM=    53    53    53    53    53 MxSgAt=     9 MxSgA2=     9.
 Leave Link  302 at Tue Dec 15 16:20:34 2015, MaxMem=    33554432 cpu:         0.1
 (Enter /home/Applications/g09/g09/l308.exe)
 Leave Link  308 at Tue Dec 15 16:20:34 2015, MaxMem=    33554432 cpu:         0.0
 (Enter /home/Applications/g09/g09/l303.exe)
 DipDrv:  MaxL=1.
 Leave Link  303 at Tue Dec 15 16:20:34 2015, MaxMem=    33554432 cpu:         0.0
 (Enter /home/Applications/g09/g09/l401.exe)
 ExpMin= 1.83D-01 ExpMax= 3.22D+02 ExpMxC= 3.22D+02 IAcc=1 IRadAn=         1 AccDes= 0.00D+00
 Harris functional with IExCor=  402 and IRadAn=       1 diagonalized for initial guess.
 HarFok:  IExCor=  402 AccDes= 0.00D+00 IRadAn=         1 IDoV= 1 UseB2=F ITyADJ=14
 ICtDFT=  3500011 ScaDFX=  1.000000  1.000000  1.000000  1.000000
 FoFCou: FMM=F IPFlag=           0 FMFlag=      100000 FMFlg1=           0
         NFxFlg=           0 DoJE=T BraDBF=F KetDBF=T FulRan=T
         wScrn=  0.000000 ICntrl=     500 IOpCl=  0 I1Cent=   200000004 NGrid=           0
         NMat0=    1 NMatS0=      1 NMatT0=    0 NMatD0=    1 NMtDS0=    0 NMtDT0=    0
 Petite list used in FoFCou.
 Harris En= -228.711916970902    
 JPrj=0 DoOrth=F DoCkMO=F.
 Leave Link  401 at Tue Dec 15 16:20:34 2015, MaxMem=    33554432 cpu:         0.2
 (Enter /home/Applications/g09/g09/l502.exe)
 Closed shell SCF:
 Using DIIS extrapolation, IDIIS=  1040.
 Integral symmetry usage will be decided dynamically.
 Keep R1 ints in memory in canonical form, NReq=1925595.
 IVT=       27707 IEndB=       27707 NGot=    33554432 MDV=    32502130
 LenX=    32502130 LenY=    32498880
 Requested convergence on RMS density matrix=1.00D-08 within 128 cycles.
 Requested convergence on MAX density matrix=1.00D-06.
 Requested convergence on             energy=1.00D-06.
 No special actions if energy rises.
 FoFCou: FMM=F IPFlag=           0 FMFlag=           0 FMFlg1=           0
         NFxFlg=           0 DoJE=F BraDBF=F KetDBF=F FulRan=T
         wScrn=  0.000000 ICntrl=     600 IOpCl=  0 I1Cent=           0 NGrid=           0
         NMat0=    1 NMatS0=   1431 NMatT0=    0 NMatD0=    1 NMtDS0=    0 NMtDT0=    0
 Symmetry not used in FoFCou.
 Integral accuracy reduced to 1.0D-05 until final iterations.

 Cycle   1  Pass 0  IDiag  1:
 E= -228.621422087319    
 DIIS: error= 3.55D-02 at cycle   1 NSaved=   1.
 NSaved= 1 IEnMin= 1 EnMin= -228.621422087319     IErMin= 1 ErrMin= 3.55D-02
 ErrMax= 3.55D-02  0.00D+00 EMaxC= 1.00D-01 BMatC= 8.79D-02 BMatP= 8.79D-02
 IDIUse=3 WtCom= 6.45D-01 WtEn= 3.55D-01
 Coeff-Com:  0.100D+01
 Coeff-En:   0.100D+01
 Coeff:      0.100D+01
 Gap=     0.217 Goal=   None    Shift=    0.000
 GapD=    0.217 DampG=1.000 DampE=0.500 DampFc=0.5000 IDamp=-1.
 Damping current iteration by 5.00D-01
 RMSDP=1.32D-02 MaxDP=1.21D-01              OVMax= 2.22D-01

 Cycle   2  Pass 0  IDiag  1:
 E= -228.655690198446     Delta-E=       -0.034268111127 Rises=F Damp=T
 DIIS: error= 1.53D-02 at cycle   2 NSaved=   2.
 NSaved= 2 IEnMin= 2 EnMin= -228.655690198446     IErMin= 2 ErrMin= 1.53D-02
 ErrMax= 1.53D-02  0.00D+00 EMaxC= 1.00D-01 BMatC= 1.05D-02 BMatP= 8.79D-02
 IDIUse=3 WtCom= 8.47D-01 WtEn= 1.53D-01
 Coeff-Com:  0.128D+00 0.872D+00
 Coeff-En:   0.227D+00 0.773D+00
 Coeff:      0.143D+00 0.857D+00
 Gap=     0.238 Goal=   None    Shift=    0.000
 RMSDP=4.62D-03 MaxDP=3.92D-02 DE=-3.43D-02 OVMax= 1.65D-01

 Cycle   3  Pass 0  IDiag  1:
 E= -228.702872418339     Delta-E=       -0.047182219893 Rises=F Damp=F
 DIIS: error= 1.97D-02 at cycle   3 NSaved=   3.
 NSaved= 3 IEnMin= 3 EnMin= -228.702872418339     IErMin= 2 ErrMin= 1.53D-02
 ErrMax= 1.97D-02  0.00D+00 EMaxC= 1.00D-01 BMatC= 1.19D-02 BMatP= 1.05D-02
 IDIUse=2 WtCom= 0.00D+00 WtEn= 1.00D+00
 Coeff-En:   0.000D+00 0.000D+00 0.100D+01
 Coeff:      0.000D+00 0.000D+00 0.100D+01
 Gap=     0.227 Goal=   None    Shift=    0.000
 RMSDP=6.05D-03 MaxDP=5.05D-02 DE=-4.72D-02 OVMax= 1.31D-01

 Cycle   4  Pass 0  IDiag  1:
 E= -228.671730933311     Delta-E=        0.031141485028 Rises=F Damp=F
 DIIS: error= 4.29D-02 at cycle   4 NSaved=   4.
 NSaved= 4 IEnMin= 3 EnMin= -228.702872418339     IErMin= 2 ErrMin= 1.53D-02
 ErrMax= 4.29D-02  0.00D+00 EMaxC= 1.00D-01 BMatC= 4.56D-02 BMatP= 1.05D-02
 IDIUse=2 WtCom= 0.00D+00 WtEn= 1.00D+00
 Coeff-En:   0.000D+00 0.000D+00 0.746D+00 0.254D+00
 Coeff:      0.000D+00 0.000D+00 0.746D+00 0.254D+00
 Gap=     0.240 Goal=   None    Shift=    0.000
 RMSDP=3.05D-03 MaxDP=2.42D-02 DE= 3.11D-02 OVMax= 6.83D-02

 Cycle   5  Pass 0  IDiag  1:
 E= -228.711759433487     Delta-E=       -0.040028500176 Rises=F Damp=F
 DIIS: error= 9.09D-03 at cycle   5 NSaved=   5.
 NSaved= 5 IEnMin= 5 EnMin= -228.711759433487     IErMin= 5 ErrMin= 9.09D-03
 ErrMax= 9.09D-03  0.00D+00 EMaxC= 1.00D-01 BMatC= 2.39D-03 BMatP= 1.05D-02
 IDIUse=3 WtCom= 9.09D-01 WtEn= 9.09D-02
 Coeff-Com: -0.303D-02 0.198D-01 0.270D+00-0.443D-01 0.757D+00
 Coeff-En:   0.000D+00 0.000D+00 0.201D+00 0.000D+00 0.799D+00
 Coeff:     -0.276D-02 0.180D-01 0.264D+00-0.403D-01 0.761D+00
 Gap=     0.246 Goal=   None    Shift=    0.000
 RMSDP=1.01D-03 MaxDP=8.14D-03 DE=-4.00D-02 OVMax= 1.87D-02

 Cycle   6  Pass 0  IDiag  1:
 E= -228.713955769311     Delta-E=       -0.002196335823 Rises=F Damp=F
 DIIS: error= 7.57D-04 at cycle   6 NSaved=   6.
 NSaved= 6 IEnMin= 6 EnMin= -228.713955769311     IErMin= 6 ErrMin= 7.57D-04
 ErrMax= 7.57D-04  0.00D+00 EMaxC= 1.00D-01 BMatC= 1.82D-05 BMatP= 2.39D-03
 IDIUse=3 WtCom= 9.92D-01 WtEn= 7.57D-03
 Coeff-Com: -0.562D-02 0.139D-01 0.961D-01-0.478D-01 0.423D+00 0.520D+00
 Coeff-En:   0.000D+00 0.000D+00 0.000D+00 0.000D+00 0.000D+00 0.100D+01
 Coeff:     -0.558D-02 0.138D-01 0.953D-01-0.474D-01 0.420D+00 0.524D+00
 Gap=     0.246 Goal=   None    Shift=    0.000
 RMSDP=8.68D-05 MaxDP=7.00D-04 DE=-2.20D-03 OVMax= 1.71D-03

 Cycle   7  Pass 0  IDiag  1:
 E= -228.713971902262     Delta-E=       -0.000016132951 Rises=F Damp=F
 DIIS: error= 1.72D-04 at cycle   7 NSaved=   7.
 NSaved= 7 IEnMin= 7 EnMin= -228.713971902262     IErMin= 7 ErrMin= 1.72D-04
 ErrMax= 1.72D-04  0.00D+00 EMaxC= 1.00D-01 BMatC= 9.79D-07 BMatP= 1.82D-05
 IDIUse=3 WtCom= 9.98D-01 WtEn= 1.72D-03
 Coeff-Com: -0.326D-02 0.684D-02 0.222D-01-0.257D-01 0.164D+00 0.301D+00
 Coeff-Com:  0.535D+00
 Coeff-En:   0.000D+00 0.000D+00 0.000D+00 0.000D+00 0.000D+00 0.000D+00
 Coeff-En:   0.100D+01
 Coeff:     -0.325D-02 0.683D-02 0.221D-01-0.256D-01 0.164D+00 0.301D+00
 Coeff:      0.535D+00
 Gap=     0.246 Goal=   None    Shift=    0.000
 RMSDP=1.81D-05 MaxDP=2.16D-04 DE=-1.61D-05 OVMax= 3.99D-04

 Cycle   8  Pass 0  IDiag  1:
 E= -228.713972813583     Delta-E=       -0.000000911321 Rises=F Damp=F
 DIIS: error= 1.74D-05 at cycle   8 NSaved=   8.
 NSaved= 8 IEnMin= 8 EnMin= -228.713972813583     IErMin= 8 ErrMin= 1.74D-05
 ErrMax= 1.74D-05  0.00D+00 EMaxC= 1.00D-01 BMatC= 1.14D-08 BMatP= 9.79D-07
 IDIUse=1 WtCom= 1.00D+00 WtEn= 0.00D+00
 Coeff-Com: -0.723D-04-0.166D-03 0.805D-03-0.118D-02 0.990D-02 0.417D-01
 Coeff-Com:  0.120D+00 0.829D+00
 Coeff:     -0.723D-04-0.166D-03 0.805D-03-0.118D-02 0.990D-02 0.417D-01
 Coeff:      0.120D+00 0.829D+00
 Gap=     0.246 Goal=   None    Shift=    0.000
 RMSDP=2.20D-06 MaxDP=2.18D-05 DE=-9.11D-07 OVMax= 3.84D-05

 Initial convergence to 1.0D-05 achieved.  Increase integral accuracy.
 Cycle   9  Pass 1  IDiag  1:
 E= -228.713961361563     Delta-E=        0.000011452020 Rises=F Damp=F
 DIIS: error= 9.93D-06 at cycle   1 NSaved=   1.
 NSaved= 1 IEnMin= 1 EnMin= -228.713961361563     IErMin= 1 ErrMin= 9.93D-06
 ErrMax= 9.93D-06  0.00D+00 EMaxC= 1.00D-01 BMatC= 5.38D-09 BMatP= 5.38D-09
 IDIUse=1 WtCom= 1.00D+00 WtEn= 0.00D+00
 Coeff-Com:  0.100D+01
 Coeff:      0.100D+01
 Gap=     0.246 Goal=   None    Shift=    0.000
 RMSDP=2.20D-06 MaxDP=2.18D-05 DE= 1.15D-05 OVMax= 2.73D-05

 Cycle  10  Pass 1  IDiag  1:
 E= -228.713961367354     Delta-E=       -0.000000005791 Rises=F Damp=F
 DIIS: error= 4.97D-06 at cycle   2 NSaved=   2.
 NSaved= 2 IEnMin= 2 EnMin= -228.713961367354     IErMin= 2 ErrMin= 4.97D-06
 ErrMax= 4.97D-06  0.00D+00 EMaxC= 1.00D-01 BMatC= 1.69D-09 BMatP= 5.38D-09
 IDIUse=1 WtCom= 1.00D+00 WtEn= 0.00D+00
 Coeff-Com:  0.288D+00 0.712D+00
 Coeff:      0.288D+00 0.712D+00
 Gap=     0.246 Goal=   None    Shift=    0.000
 RMSDP=1.41D-06 MaxDP=1.77D-05 DE=-5.79D-09 OVMax= 2.14D-05

 Cycle  11  Pass 1  IDiag  1:
 E= -228.713961367839     Delta-E=       -0.000000000485 Rises=F Damp=F
 DIIS: error= 5.44D-06 at cycle   3 NSaved=   3.
 NSaved= 3 IEnMin= 3 EnMin= -228.713961367839     IErMin= 2 ErrMin= 4.97D-06
 ErrMax= 5.44D-06  0.00D+00 EMaxC= 1.00D-01 BMatC= 1.21D-09 BMatP= 1.69D-09
 IDIUse=1 WtCom= 1.00D+00 WtEn= 0.00D+00
 Coeff-Com: -0.138D-01 0.460D+00 0.554D+00
 Coeff:     -0.138D-01 0.460D+00 0.554D+00
 Gap=     0.246 Goal=   None    Shift=    0.000
 RMSDP=7.06D-07 MaxDP=9.13D-06 DE=-4.85D-10 OVMax= 1.28D-05

 Cycle  12  Pass 1  IDiag  1:
 E= -228.713961368810     Delta-E=       -0.000000000971 Rises=F Damp=F
 DIIS: error= 1.58D-06 at cycle   4 NSaved=   4.
 NSaved= 4 IEnMin= 4 EnMin= -228.713961368810     IErMin= 4 ErrMin= 1.58D-06
 ErrMax= 1.58D-06  0.00D+00 EMaxC= 1.00D-01 BMatC= 7.29D-11 BMatP= 1.21D-09
 IDIUse=1 WtCom= 1.00D+00 WtEn= 0.00D+00
 Coeff-Com: -0.172D-01 0.268D+00 0.349D+00 0.400D+00
 Coeff:     -0.172D-01 0.268D+00 0.349D+00 0.400D+00
 Gap=     0.246 Goal=   None    Shift=    0.000
 RMSDP=1.69D-07 MaxDP=2.47D-06 DE=-9.71D-10 OVMax= 3.86D-06

 Cycle  13  Pass 1  IDiag  1:
 E= -228.713961368880     Delta-E=       -0.000000000070 Rises=F Damp=F
 DIIS: error= 1.10D-07 at cycle   5 NSaved=   5.
 NSaved= 5 IEnMin= 5 EnMin= -228.713961368880     IErMin= 5 ErrMin= 1.10D-07
 ErrMax= 1.10D-07  0.00D+00 EMaxC= 1.00D-01 BMatC= 7.99D-13 BMatP= 7.29D-11
 IDIUse=1 WtCom= 1.00D+00 WtEn= 0.00D+00
 Coeff-Com: -0.571D-02 0.726D-01 0.961D-01 0.154D+00 0.683D+00
 Coeff:     -0.571D-02 0.726D-01 0.961D-01 0.154D+00 0.683D+00
 Gap=     0.246 Goal=   None    Shift=    0.000
 RMSDP=2.88D-08 MaxDP=2.24D-07 DE=-7.00D-11 OVMax= 5.37D-07

 Cycle  14  Pass 1  IDiag  1:
 E= -228.713961368880     Delta-E=        0.000000000000 Rises=F Damp=F
 DIIS: error= 7.00D-08 at cycle   6 NSaved=   6.
 NSaved= 6 IEnMin= 6 EnMin= -228.713961368880     IErMin= 6 ErrMin= 7.00D-08
 ErrMax= 7.00D-08  0.00D+00 EMaxC= 1.00D-01 BMatC= 1.94D-13 BMatP= 7.99D-13
 IDIUse=1 WtCom= 1.00D+00 WtEn= 0.00D+00
 Coeff-Com: -0.916D-03 0.788D-02 0.111D-01 0.381D-01 0.386D+00 0.558D+00
 Coeff:     -0.916D-03 0.788D-02 0.111D-01 0.381D-01 0.386D+00 0.558D+00
 Gap=     0.246 Goal=   None    Shift=    0.000
 RMSDP=9.08D-09 MaxDP=1.09D-07 DE=-2.84D-13 OVMax= 1.67D-07

 SCF Done:  E(RB3LYP) =  -228.713961369     A.U. after   14 cycles
            NFock= 14  Conv=0.91D-08     -V/T= 2.0064
 KE= 2.272649004814D+02 PE=-8.596378226217D+02 EE= 2.402126180181D+02
 Leave Link  502 at Tue Dec 15 16:20:37 2015, MaxMem=    33554432 cpu:         3.3
 (Enter /home/Applications/g09/g09/l801.exe)
 DoSCS=F DFT=T ScalE2(SS,OS)=  1.000000  1.000000
 ExpMin= 1.83D-01 ExpMax= 3.22D+02 ExpMxC= 3.22D+02 IAcc=3 IRadAn=         5 AccDes= 0.00D+00
 HarFok:  IExCor=  205 AccDes= 0.00D+00 IRadAn=         5 IDoV=-2 UseB2=F ITyADJ=14
 ICtDFT= 12500011 ScaDFX=  1.000000  1.000000  1.000000  1.000000
 Largest valence mixing into a core orbital is  1.80D-04
 Largest core mixing into a valence orbital is  4.90D-05
 Range of M.O.s used for correlation:     6    53
 NBasis=    53 NAE=    18 NBE=    18 NFC=     5 NFV=     0
 NROrb=     48 NOA=    13 NOB=    13 NVA=    35 NVB=    35
 Leave Link  801 at Tue Dec 15 16:20:37 2015, MaxMem=    33554432 cpu:         0.2
 (Enter /home/Applications/g09/g09/l914.exe)
 RHF ground state
 MDV=    33554432 DFT=T DoStab=F Mixed=T DoRPA=F DoScal=F NonHer=F
 Keep R1, R2, and R3 ints in memory in canonical form, NReq=5596273.
 FoFCou: FMM=F IPFlag=           0 FMFlag=           0 FMFlg1=           0
         NFxFlg=           0 DoJE=F BraDBF=F KetDBF=F FulRan=T
         wScrn=  0.000000 ICntrl=     600 IOpCl=  0 I1Cent=           0 NGrid=           0
         NMat0=    1 NMatS0=   1431 NMatT0=    0 NMatD0=    1 NMtDS0=    0 NMtDT0=    0
 Symmetry not used in FoFCou.
 Making orbital integer symmetry assigments:
 Orbital symmetries:
       Occupied  (A) (A) (A) (A) (A) (A) (A) (A) (A) (A) (A) (A)
                 (A) (A) (A) (A) (A) (A)
       Virtual   (A) (A) (A) (A) (A) (A) (A) (A) (A) (A) (A) (A)
                 (A) (A) (A) (A) (A) (A) (A) (A) (A) (A) (A) (A)
                 (A) (A) (A) (A) (A) (A) (A) (A) (A) (A) (A)
    60 initial guesses have been made.
 Convergence on wavefunction:    0.000001000000000
 Davidson Disk Diagonalization:  ConvIn= 1.00D-06 SkipCon=T Conv= 1.00D-06.
 Max sub-space:   240 roots to seek:    60 dimension of matrix:          910
 Iteration     1 Dimension    60 NMult     0 NNew     60
 CISAX will form    60 AO SS matrices at one time.
 NMat=    60 NSing=    60 JSym2X= 0.
 New state      1 was old state      3
 New state      2 was old state      4
 New state      3 was old state      1
 New state      4 was old state      5
 New state      5 was old state      6
 New state      6 was old state      8
 New state      7 was old state      9
 New state      8 was old state     10
 New state      9 was old state     11
 New state     10 was old state     13
 New state     11 was old state     14
 New state     12 was old state      7
 New state     13 was old state     12
 New state     14 was old state     15
 New state     15 was old state      2
 Excitation Energies [eV] at current iteration:
 Root      1 :     7.522608428900930
 Root      2 :     8.023228212622122
 Root      3 :     8.163529745163636
 Root      4 :     8.533154013701470
 Root      5 :     9.208667115666348
 Root      6 :     9.629797801913847
 Root      7 :     9.889552133247632
 Root      8 :     9.901911023768655
 Root      9 :    10.373601131552300
 Root     10 :    10.537784632083300
 Root     11 :    10.580189056985940
 Root     12 :    10.741198994159350
 Root     13 :    10.779774985819460
 Root     14 :    10.939957596183040
 Root     15 :    11.294824510409630
 Root     16 :    11.615562293303990
 Root     17 :    11.667869764156880
 Root     18 :    11.725322174658820
 Root     19 :    11.758059973787120
 Root     20 :    11.836776290378770
 Root     21 :    12.250033995661020
 Root     22 :    12.341557561907520
 Root     23 :    12.577394774097870
 Root     24 :    12.710312333989210
 Root     25 :    13.327610398874490
 Root     26 :    13.409579197970640
 Root     27 :    13.574710974067060
 Root     28 :    13.608307602821520
 Root     29 :    13.754202938381450
 Root     30 :    13.888127749013000
 Root     31 :    14.059354902938820
 Root     32 :    14.105302444583350
 Root     33 :    14.132303747445270
 Root     34 :    14.412730567132170
 Root     35 :    14.480647390527470
 Root     36 :    14.606527141545330
 Root     37 :    14.687347357296230
 Root     38 :    14.844879788278530
 Root     39 :    15.042191222686340
 Root     40 :    15.146786160257490
 Root     41 :    15.221859385255160
 Root     42 :    15.322973990843250
 Root     43 :    15.504051424383970
 Root     44 :    15.552482538360170
 Root     45 :    15.675489533990540
 Root     46 :    15.727175182479370
 Root     47 :    15.916925580833310
 Root     48 :    15.999293495309260
 Root     49 :    16.125450093842090
 Root     50 :    16.208070575680960
 Root     51 :    16.396399208203360
 Root     52 :    16.405493250448250
 Root     53 :    16.527461501558890
 Root     54 :    16.713895399491800
 Root     55 :    16.984466183679940
 Root     56 :    17.109905158257740
 Root     57 :    17.260641606553780
 Root     58 :    17.370524890021570
 Root     59 :    17.984185217684750
 Root     60 :    19.512867645747980
 Iteration     2 Dimension   120 NMult    60 NNew     60
 CISAX will form    60 AO SS matrices at one time.
 NMat=    60 NSing=    60 JSym2X= 0.
 New state      1 was old state      3
 Root      1 not converged, maximum delta is    0.343605779464120
 New state      2 was old state      1
 Root      2 not converged, maximum delta is    0.467705672322118
 New state      3 was old state      2
 Root      3 not converged, maximum delta is    0.246418829651339
 Root      4 not converged, maximum delta is    0.055453937387721
 Root      5 not converged, maximum delta is    0.061029698919621
 New state      6 was old state      9
 Root      6 not converged, maximum delta is    0.316484724276909
 New state      7 was old state      6
 Root      7 not converged, maximum delta is    0.075472849176180
 New state      8 was old state      7
 Root      8 not converged, maximum delta is    0.299122679761987
 New state      9 was old state      8
 Root      9 not converged, maximum delta is    0.297640300764491
 New state     10 was old state     15
 Root     10 not converged, maximum delta is    0.455758563930782
 Root     11 not converged, maximum delta is    0.316026193183833
 New state     12 was old state     10
 Root     12 not converged, maximum delta is    0.330123473434880
 New state     13 was old state     12
 Root     13 not converged, maximum delta is    0.115883190081935
 New state     14 was old state     13
 Root     14 not converged, maximum delta is    0.376550368856706
 New state     15 was old state     14
 Root     15 not converged, maximum delta is    0.266293909045392
 Excitation Energies [eV] at current iteration:
 Root      1 :     7.204176058252307   Change is   -0.959353686911328
 Root      2 :     7.479603727582167   Change is   -0.043004701318763
 Root      3 :     8.031751354138120   Change is    0.008523141515998
 Root      4 :     8.503827780623476   Change is   -0.029326233077993
 Root      5 :     9.178380833623745   Change is   -0.030286282042602
 Root      6 :     9.569787674592364   Change is   -0.803813456959934
 Root      7 :     9.614428544140072   Change is   -0.015369257773776
 Root      8 :     9.885077133453036   Change is   -0.004474999794596
 Root      9 :     9.894582467592812   Change is   -0.007328556175843
 Root     10 :    10.371503127374010   Change is   -0.923321383035622
 Root     11 :    10.502188991758560   Change is   -0.078000065227385
 Root     12 :    10.530409873534170   Change is   -0.007374758549131
 Root     13 :    10.725855180354380   Change is   -0.015343813804973
 Root     14 :    10.898786124386370   Change is    0.119011138566910
 Root     15 :    10.907291191452820   Change is   -0.032666404730217
 Root     16 :    11.577237611169780   Change is   -0.038324682134208
 Root     17 :    11.614253120652810   Change is   -0.053616643504068
 Root     18 :    11.695163638757670   Change is   -0.030158535901148
 Root     19 :    11.729690590381840   Change is   -0.028369383405282
 Root     20 :    11.784422630935030   Change is   -0.052353659443743
 Root     21 :    12.228468534355810   Change is   -0.021565461305213
 Root     22 :    12.291134255334200   Change is   -0.050423306573319
 Root     23 :    12.503679393057750   Change is   -0.073715381040125
 Root     24 :    12.689153625134370   Change is   -0.021158708854844
 Root     25 :    12.966341347376130   Change is   -0.921786401636876
 Root     26 :    13.297518462947880   Change is   -0.030091935926603
 Root     27 :    13.359938022811580   Change is   -0.049641175159062
 Root     28 :    13.504143091589350   Change is   -0.070567882477706
 Root     29 :    13.562793876315210   Change is   -0.045513726506312
 Root     30 :    13.730914102130380   Change is   -0.023288836251072
 Root     31 :    13.949096229541180   Change is   -0.156206215042169
 Root     32 :    14.029787269741970   Change is   -0.029567633196847
 Root     33 :    14.061713517146880   Change is   -0.070590230298392
 Root     34 :    14.100956233900360   Change is   -0.311774333231810
 Root     35 :    14.169108769397680   Change is   -0.311538621129795
 Root     36 :    14.539233649396390   Change is   -0.067293492148939
 Root     37 :    14.559855679499760   Change is   -0.127491677796466
 Root     38 :    14.706694670459080   Change is   -0.335496552227259
 Root     39 :    14.784306350517870   Change is   -0.060573437760659
 Root     40 :    14.927196027108350   Change is   -0.294663358146806
 Root     41 :    15.128922098558960   Change is   -0.017864061698532
 Root     42 :    15.195898143688650   Change is   -0.127075847154595
 Root     43 :    15.307811578658640   Change is   -0.367677955331907
 Root     44 :    15.392864792439490   Change is   -0.159617745920683
 Root     45 :    15.497008954144230   Change is   -0.007042470239736
 Root     46 :    15.702911859026370   Change is   -0.024263323452997
 Root     47 :    15.822616776128920   Change is   -0.176676719180341
 Root     48 :    15.862529124675070   Change is   -0.054396456158238
 Root     49 :    15.900294862049640   Change is   -0.225155231792450
 Root     50 :    15.945227611857400   Change is   -0.262842963823560
 Root     51 :    16.134033994753870   Change is   -0.271459255694380
 Root     52 :    16.329521828035580   Change is   -0.066877380167776
 Root     53 :    16.471877605566020   Change is   -0.055583895992864
 Root     54 :    16.493600866310900   Change is   -0.220294533180902
 Root     55 :    16.594163492402910   Change is   -0.390302691277030
 Root     56 :    16.916663727188300   Change is   -1.067521490496453
 Root     57 :    17.042046182903780   Change is   -0.067858975353959
 Root     58 :    17.130281807208570   Change is   -0.130359799345204
 Root     59 :    17.187429618844380   Change is   -0.183095271177189
 Root     60 :    17.693472682767090
 Iteration     3 Dimension   135 NMult   120 NNew     15
 CISAX will form    15 AO SS matrices at one time.
 NMat=    15 NSing=    15 JSym2X= 0.
 Root      1 not converged, maximum delta is    0.002413872949298
 Root      2 not converged, maximum delta is    0.001548978244991
 Root      3 not converged, maximum delta is    0.000208867199026
 Root      4 not converged, maximum delta is    0.000157585416025
 Root      5 not converged, maximum delta is    0.000768603861994
 Root      6 not converged, maximum delta is    0.007812423077181
 Root      7 not converged, maximum delta is    0.004858309207468
 Root      8 not converged, maximum delta is    0.002966637209351
 Root      9 not converged, maximum delta is    0.002793852244163
 Root     10 not converged, maximum delta is    0.002506081476967
 Root     11 not converged, maximum delta is    0.000828608450769
 Root     12 not converged, maximum delta is    0.000847491427837
 Root     13 not converged, maximum delta is    0.000163890389666
 Root     14 not converged, maximum delta is    0.010422600871731
 Root     15 not converged, maximum delta is    0.009692975843083
 Excitation Energies [eV] at current iteration:
 Root      1 :     7.201891285225885   Change is   -0.002284773026423
 Root      2 :     7.478507980765280   Change is   -0.001095746816887
 Root      3 :     8.031719286838140   Change is   -0.000032067299981
 Root      4 :     8.503804370839902   Change is   -0.000023409783575
 Root      5 :     9.178224679395274   Change is   -0.000156154228471
 Root      6 :     9.566580389754352   Change is   -0.003207284838013
 Root      7 :     9.614280556218313   Change is   -0.000147987921759
 Root      8 :     9.885018328496731   Change is   -0.000058804956306
 Root      9 :     9.894509843727484   Change is   -0.000072623865328
 Root     10 :    10.368613352202140   Change is   -0.002889775171860
 Root     11 :    10.502116231183110   Change is   -0.000072760575449
 Root     12 :    10.530352959667470   Change is   -0.000056913866701
 Root     13 :    10.725834082472430   Change is   -0.000021097881951
 Root     14 :    10.898393993160690   Change is   -0.000392131225678
 Root     15 :    10.907168998171710   Change is   -0.000122193281106
 Iteration     4 Dimension   150 NMult   135 NNew     15
 CISAX will form    15 AO SS matrices at one time.
 NMat=    15 NSing=    15 JSym2X= 0.
 Root      1 not converged, maximum delta is    0.000068596517094
 Root      2 not converged, maximum delta is    0.000052990001216
 Root      3 not converged, maximum delta is    0.000005972425424
 Root      4 not converged, maximum delta is    0.000004657392494
 Root      5 not converged, maximum delta is    0.000015543833634
 Root      6 not converged, maximum delta is    0.000074960820772
 Root      7 not converged, maximum delta is    0.000018566554210
 Root      8 not converged, maximum delta is    0.000010830504210
 Root      9 not converged, maximum delta is    0.000012759636233
 Root     10 not converged, maximum delta is    0.000079046944761
 Root     11 not converged, maximum delta is    0.000011745142653
 Root     12 not converged, maximum delta is    0.000007683802502
 Root     13 not converged, maximum delta is    0.000007138951307
 Root     14 not converged, maximum delta is    0.000030537782567
 Root     15 not converged, maximum delta is    0.000014072001915
 Excitation Energies [eV] at current iteration:
 Root      1 :     7.201888244158677   Change is   -0.000003041067209
 Root      2 :     7.478506796190573   Change is   -0.000001184574707
 Root      3 :     8.031719243385966   Change is   -0.000000043452173
 Root      4 :     8.503804356568061   Change is   -0.000000014271841
 Root      5 :     9.178224461351030   Change is   -0.000000218044243
 Root      6 :     9.566575489771290   Change is   -0.000004899983061
 Root      7 :     9.614280363150581   Change is   -0.000000193067733
 Root      8 :     9.885018252750280   Change is   -0.000000075746450
 Root      9 :     9.894509741779558   Change is   -0.000000101947925
 Root     10 :    10.368609070220940   Change is   -0.000004281981210
 Root     11 :    10.502116135036490   Change is   -0.000000096146614
 Root     12 :    10.530352903274150   Change is   -0.000000056393324
 Root     13 :    10.725834052865490   Change is   -0.000000029606936
 Root     14 :    10.898393400529950   Change is   -0.000000592630744
 Root     15 :    10.907168840005130   Change is   -0.000000158166585
 Iteration     5 Dimension   165 NMult   150 NNew     15
 CISAX will form    15 AO SS matrices at one time.
 NMat=    15 NSing=    15 JSym2X= 0.
 Root      1 not converged, maximum delta is    0.000002057218146
 Root      2 not converged, maximum delta is    0.000001015562954
 Root      3 has converged.
 Root      4 has converged.
 Root      5 has converged.
 Root      6 not converged, maximum delta is    0.000003551803589
 Root      7 has converged.
 Root      8 has converged.
 Root      9 has converged.
 Root     10 not converged, maximum delta is    0.000002690954670
 Root     11 has converged.
 Root     12 has converged.
 Root     13 has converged.
 Root     14 not converged, maximum delta is    0.000001107865201
 Root     15 has converged.
 Excitation Energies [eV] at current iteration:
 Root      1 :     7.201888241380598   Change is   -0.000000002778078
 Root      2 :     7.478506795366080   Change is   -0.000000000824494
 Root      3 :     8.031719243350629   Change is   -0.000000000035337
 Root      4 :     8.503804356557707   Change is   -0.000000000010355
 Root      5 :     9.178224461174695   Change is   -0.000000000176335
 Root      6 :     9.566575485178083   Change is   -0.000000004593208
 Root      7 :     9.614280362930604   Change is   -0.000000000219976
 Root      8 :     9.885018252655009   Change is   -0.000000000095272
 Root      9 :     9.894509741673760   Change is   -0.000000000105798
 Root     10 :    10.368609066001970   Change is   -0.000000004218969
 Root     11 :    10.502116134931260   Change is   -0.000000000105231
 Root     12 :    10.530352903218060   Change is   -0.000000000056088
 Root     13 :    10.725834052834740   Change is   -0.000000000030754
 Root     14 :    10.898393399957560   Change is   -0.000000000572389
 Root     15 :    10.907168839819540   Change is   -0.000000000185593
 Iteration     6 Dimension   170 NMult   165 NNew      5
 CISAX will form     5 AO SS matrices at one time.
 NMat=     5 NSing=     5 JSym2X= 0.
 Root      1 has converged.
 Root      2 has converged.
 Root      3 has converged.
 Root      4 has converged.
 Root      5 has converged.
 Root      6 has converged.
 Root      7 has converged.
 Root      8 has converged.
 Root      9 has converged.
 Root     10 has converged.
 Root     11 has converged.
 Root     12 has converged.
 Root     13 has converged.
 Root     14 has converged.
 Root     15 has converged.
 Excitation Energies [eV] at current iteration:
 Root      1 :     7.201888241379195   Change is   -0.000000000001403
 Root      2 :     7.478506795365984   Change is   -0.000000000000095
 Root      3 :     8.031719243350594   Change is   -0.000000000000035
 Root      4 :     8.503804356557703   Change is   -0.000000000000005
 Root      5 :     9.178224461174624   Change is   -0.000000000000071
 Root      6 :     9.566575485175695   Change is   -0.000000000002387
 Root      7 :     9.614280362930460   Change is   -0.000000000000144
 Root      8 :     9.885018252654943   Change is   -0.000000000000065
 Root      9 :     9.894509741673698   Change is   -0.000000000000062
 Root     10 :    10.368609065999270   Change is   -0.000000000002693
 Root     11 :    10.502116134931230   Change is   -0.000000000000036
 Root     12 :    10.530352903218040   Change is   -0.000000000000023
 Root     13 :    10.725834052834720   Change is   -0.000000000000015
 Root     14 :    10.898393399957200   Change is   -0.000000000000356
 Root     15 :    10.907168839819400   Change is   -0.000000000000133
 Convergence achieved on expansion vectors.
 ***********************************************************************
 Excited states from <AA,BB:AA,BB> singles matrix:
 ***********************************************************************
 
 1PDM for each excited state written to RWF  633
 Ground to excited state transition densities written to RWF  633
 Ground to excited state transition electric dipole moments (Au):
       state          X           Y           Z        Dip. S.      Osc.
         1         1.0437     -0.0905     -0.0666      1.1018      0.1944
         2        -0.5387      0.0089      0.0251      0.2909      0.0533
         3        -0.0565     -0.0681      0.0264      0.0085      0.0017
         4         0.0428     -0.0309     -0.1247      0.0183      0.0038
         5         0.0587     -0.3098     -0.0241      0.1000      0.0225
         6        -0.2896      1.3161      0.0124      1.8161      0.4256
         7         0.1882     -0.1662      0.0301      0.0639      0.0151
         8        -0.1057      0.1566     -0.0370      0.0371      0.0090
         9         0.0792     -0.1799      0.0218      0.0391      0.0095
        10        -0.8172     -0.5214     -0.1178      0.9536      0.2422
        11         0.0325     -0.1824     -0.0038      0.0344      0.0088
        12        -0.0752     -0.0326      0.1100      0.0188      0.0049
        13        -0.0185      0.0852     -0.0364      0.0089      0.0023
        14        -0.2448     -0.2796      0.0485      0.1405      0.0375
        15         0.1576      0.0462     -0.0077      0.0270      0.0072
 Ground to excited state transition velocity dipole moments (Au):
       state          X           Y           Z        Dip. S.      Osc.
         1         0.0215      0.0443     -0.0040      0.0024      0.0062
         2         0.0024      0.0313      0.0016      0.0010      0.0024
         3        -0.0047     -0.0011     -0.0153      0.0003      0.0006
         4        -0.0011      0.0015      0.0682      0.0047      0.0099
         5        -0.0159      0.0207     -0.0046      0.0007      0.0014
         6         0.0511     -0.0608      0.0012      0.0063      0.0120
         7        -0.0259      0.0071      0.0294      0.0016      0.0030
         8         0.0244     -0.0137      0.0407      0.0024      0.0045
         9        -0.0163      0.0115     -0.0189      0.0008      0.0014
        10         0.0921      0.0234     -0.0031      0.0090      0.0158
        11        -0.0124      0.0182      0.0377      0.0019      0.0033
        12         0.0119      0.0062     -0.0522      0.0029      0.0050
        13         0.0086     -0.0097      0.0142      0.0004      0.0006
        14         0.0331      0.0232      0.0102      0.0017      0.0029
        15        -0.0224     -0.0058     -0.0192      0.0009      0.0015
 Ground to excited state transition magnetic dipole moments (Au):
       state          X           Y           Z
         1         0.0568     -0.0372      0.3506
         2        -0.0094     -0.0027     -0.0879
         3         0.1981      0.3685     -0.0410
         4        -1.4091      0.7569     -0.0006
         5        -0.0518     -0.0528      0.0187
         6         0.0407     -0.0430     -0.0800
         7         0.1534     -0.3443     -0.0033
         8        -0.0230     -0.0448     -0.0569
         9         0.0608      0.0194     -0.0147
        10         0.0182     -0.0996      0.1812
        11         0.2033      0.1797      0.0541
        12         0.2866      0.4083      0.0113
        13        -0.1977      0.2223      0.0007
        14        -0.0409      0.1997      0.0901
        15         0.2192      0.1490     -0.0619
 Ground to excited state transition velocity quadrupole moments (Au):
       state          XX          YY          ZZ          XY          XZ          YZ
         1         0.1390     -0.1663     -0.0181      0.1367     -0.0060      0.0131
         2        -0.0833      0.1363     -0.0181     -0.0859     -0.0059      0.0006
         3        -0.0239      0.0139      0.0055      0.0131     -0.0329      0.0513
         4        -0.0013     -0.0144      0.0009      0.0033     -0.0596     -0.1549
         5        -0.0560      0.0109      0.0099      0.0393     -0.1568      0.0829
         6         0.2335     -0.1761     -0.0351     -0.0538     -0.0079      0.0505
         7        -0.0871      0.0467      0.0076     -0.0692      0.0273      0.0545
         8         0.0533     -0.0182     -0.0036     -0.0161     -0.1528     -0.0547
         9        -0.0381      0.0163      0.0023      0.0244      0.0468      0.0317
        10         0.1736     -0.1125      0.0247      0.3932      0.0235      0.0422
        11        -0.0498      0.0605      0.0036      0.0081      0.0090      0.0993
        12         0.0285     -0.0498      0.0113      0.0704     -0.0436      0.0518
        13         0.0257     -0.0266     -0.0052     -0.0089     -0.0273     -0.0172
        14         0.0181     -0.0344      0.0217      0.1745     -0.0050     -0.1004
        15        -0.0777      0.0483     -0.0080     -0.0848     -0.0202     -0.0119
 <0|del|b> * <b|rxdel|0> + <0|del|b> * <b|delr+rdel|0>
 Rotatory Strengths (R) in cgs (10**-40 erg-esu-cm/Gauss)
       state          XX          YY          ZZ    R(velocity)    E-M Angle
         1        -4.4611      0.8621     -1.3056     -1.6349       95.97
         2        -0.2196     -0.0305     -0.3755     -0.2086       95.03
         3        -0.0185     -0.4218     -1.2751     -0.5718       96.09
         4         1.5508      1.6665      2.7208      1.9794       88.62
         5         1.9821     -0.4189     -2.3123     -0.2497      100.17
         6         1.9857      4.6588      2.6093      3.0846       54.42
         7        -4.7694     -3.4448     -4.8102     -4.3415      115.69
         8        -4.3306     -3.4572      3.3863     -1.4672      127.10
         9        -0.4823     -0.7456      0.2767     -0.3171      105.81
        10        -4.3261      5.7737     -3.7016     -0.7514       93.53
        11         4.9950     -1.8600      1.9595      1.6982       76.71
        12        -1.3174      6.4988      4.6360      3.2725       78.47
        13        -2.2736     -1.5353     -3.0858     -2.2983      132.18
        14         6.5794     -4.8873      5.7184      2.4701       63.13
        15         1.6104     -4.4824     -5.2240     -2.6987      124.15
 1/2[<0|r|b>*<b|rxdel|0> + (<0|rxdel|b>*<b|r|0>)*]
 Rotatory Strengths (R) in cgs (10**-40 erg-esu-cm/Gauss)
       state          XX          YY          ZZ     R(length)
         1       -41.9530     -2.3840     16.5107     -9.2754
         2        -3.5655      0.0168      1.5594     -0.6631
         3         7.9139     17.7557      0.7673      8.8123
         4        42.6322     16.5463     -0.0506     19.7093
         5         2.1505    -11.5665      0.3200     -3.0320
         6         8.3442     40.0277      0.7014     16.3578
         7       -20.4114    -40.4769      0.0704    -20.2727
         8        -1.7207      4.9565     -1.4879      0.5826
         9        -3.4086      2.4716      0.2268     -0.2367
        10        10.5423    -36.7374     15.0970     -3.6994
        11        -4.6716     23.1904      0.1451      6.2213
        12        15.2454      9.4019     -0.8811      7.9221
        13        -2.5844    -13.3863      0.0169     -5.3179
        14        -7.0881     39.4895     -3.0900      9.7705
        15       -24.4317     -4.8688     -0.3351     -9.8785
  1/2[<0|del|b>*<b|r|0> + (<0|r|b>*<b|del|0>)*] (Au)
       state          X           Y           Z        Dip. S.   Osc.(frdel)
         1         0.0224     -0.0040      0.0003     -0.0187     -0.0125
         2        -0.0013      0.0003      0.0000      0.0010      0.0006
         3         0.0003      0.0001     -0.0004      0.0001      0.0000
         4         0.0000      0.0000     -0.0085      0.0086      0.0057
         5        -0.0009     -0.0064      0.0001      0.0072      0.0048
         6        -0.0148     -0.0800      0.0000      0.0948      0.0632
         7        -0.0049     -0.0012      0.0009      0.0052      0.0034
         8        -0.0026     -0.0021     -0.0015      0.0062      0.0041
         9        -0.0013     -0.0021     -0.0004      0.0038      0.0025
        10        -0.0752     -0.0122      0.0004      0.0871      0.0580
        11        -0.0004     -0.0033     -0.0001      0.0039      0.0026
        12        -0.0009     -0.0002     -0.0057      0.0068      0.0046
        13        -0.0002     -0.0008     -0.0005      0.0015      0.0010
        14        -0.0081     -0.0065      0.0005      0.0141      0.0094
        15        -0.0035     -0.0003      0.0001      0.0037      0.0024

 Excitation energies and oscillator strengths:
 
 Excited State   1:      Singlet-A      7.2019 eV  172.16 nm  f=0.1944  <S**2>=0.000
      17 -> 19         0.18191
      18 -> 19         0.61504
      18 -> 20        -0.23903
 This state for optimization and/or second-order correction.
 Total Energy, E(CIS) =  -228.449296834    
 Copying the excited state density for this state as the 1-particle RhoCI density.
 
 Excited State   2:      Singlet-A      7.4785 eV  165.79 nm  f=0.0533  <S**2>=0.000
      17 -> 19         0.46304
      18 -> 19        -0.28721
      18 -> 20        -0.43388
 
 Excited State   3:      Singlet-A      8.0317 eV  154.37 nm  f=0.0017  <S**2>=0.000
      18 -> 21         0.69404
 
 Excited State   4:      Singlet-A      8.5038 eV  145.80 nm  f=0.0038  <S**2>=0.000
      16 -> 19         0.70273
 
 Excited State   5:      Singlet-A      9.1782 eV  135.09 nm  f=0.0225  <S**2>=0.000
      17 -> 19        -0.10887
      18 -> 20        -0.11945
      18 -> 22         0.67249
 
 Excited State   6:      Singlet-A      9.5666 eV  129.60 nm  f=0.4256  <S**2>=0.000
      17 -> 19         0.41036
      17 -> 20         0.16918
      17 -> 21         0.15398
      18 -> 20         0.41964
      18 -> 22         0.18023
 
 Excited State   7:      Singlet-A      9.6143 eV  128.96 nm  f=0.0151  <S**2>=0.000
      17 -> 20        -0.23091
      17 -> 21         0.63842
      18 -> 23         0.15385
 
 Excited State   8:      Singlet-A      9.8850 eV  125.43 nm  f=0.0090  <S**2>=0.000
      15 -> 19         0.45555
      16 -> 20        -0.10334
      18 -> 23         0.49971
 
 Excited State   9:      Singlet-A      9.8945 eV  125.31 nm  f=0.0095  <S**2>=0.000
      15 -> 19         0.50261
      16 -> 20        -0.12167
      17 -> 21         0.10400
      18 -> 23        -0.44809
 
 Excited State  10:      Singlet-A     10.3686 eV  119.58 nm  f=0.2422  <S**2>=0.000
      17 -> 19        -0.13924
      17 -> 20         0.58916
      17 -> 21         0.19074
      17 -> 22        -0.17491
      18 -> 20        -0.11735
 
 Excited State  11:      Singlet-A     10.5021 eV  118.06 nm  f=0.0088  <S**2>=0.000
      18 -> 24         0.67803
      18 -> 25         0.12363
 
 Excited State  12:      Singlet-A     10.5304 eV  117.74 nm  f=0.0049  <S**2>=0.000
      14 -> 19         0.51026
      15 -> 19         0.11684
      16 -> 20         0.43682
      17 -> 22        -0.13144
 
 Excited State  13:      Singlet-A     10.7258 eV  115.59 nm  f=0.0023  <S**2>=0.000
      14 -> 19        -0.43853
      15 -> 19         0.10390
      16 -> 20         0.52198
      17 -> 22         0.10249
 
 Excited State  14:      Singlet-A     10.8984 eV  113.76 nm  f=0.0375  <S**2>=0.000
      14 -> 19         0.12671
      17 -> 20         0.12782
      17 -> 22         0.52181
      18 -> 25         0.40289
 
 Excited State  15:      Singlet-A     10.9072 eV  113.67 nm  f=0.0072  <S**2>=0.000
      17 -> 22        -0.39630
      18 -> 25         0.55277
 SavETr:  write IOETrn=   770 NScale= 10 NData=  16 NLR=1 NState=   15 LETran=     280.
 The selected state is a singlet
 CISAX will form     1 AO SS matrices at one time.
 NMat=     1 NSing=     1 JSym2X= 0.
 CISAX will form     1 AO SS matrices at one time.
 NMat=     1 NSing=     1 JSym2X= 0.
 Leave Link  914 at Tue Dec 15 16:21:11 2015, MaxMem=    33554432 cpu:        33.8
 (Enter /home/Applications/g09/g09/l1002.exe)
 Minotr:  Closed shell wavefunction.
          Computing CIS/TD-HF/TD-KS derivatives.
          Using Z-Vector for PSCF gradient.
          Skipping F1 and S1 gradient terms here.
          IDoAtm=111111111
          Frozen-core window.
          Direct CPHF calculation.
          Differentiating once with respect to electric field.
                with respect to dipole field.
          Differentiating once with respect to nuclear coordinates.
          Requested convergence is 1.0D-10 RMS, and 1.0D-09 maximum.
          NewPWx=F KeepS1=T KeepF1=T KeepIn=T MapXYZ=F SortEE=F KeepMc=T.
          MDV=      33554290 using IRadAn=       0.
 Using stored XC quadrature information.
 Keep R1 ints in memory in canonical form, NReq=1898913.
 FoFCou: FMM=F IPFlag=           0 FMFlag=           0 FMFlg1=           0
         NFxFlg=           0 DoJE=F BraDBF=F KetDBF=F FulRan=T
         wScrn=  0.000000 ICntrl=     600 IOpCl=  0 I1Cent=           0 NGrid=           0
         NMat0=    1 NMatS0=   1431 NMatT0=    0 NMatD0=    1 NMtDS0=    0 NMtDT0=    0
 Symmetry not used in FoFCou.
          Solving linear equations separately, MaxMat=       0.
          There are     1 degrees of freedom in the 1st order CPHF.  IDoFFX=0 NUNeed=     1.
 LinEq1:  Iter=  0 NonCon=     1 RMS=3.82D-02 Max=5.84D-01 NDo=     1
 AX will form     1 AO Fock derivatives at one time.
 LinEq1:  Iter=  1 NonCon=     1 RMS=1.93D-02 Max=2.93D-01 NDo=     1
 LinEq1:  Iter=  2 NonCon=     1 RMS=1.44D-02 Max=1.71D-01 NDo=     1
 LinEq1:  Iter=  3 NonCon=     1 RMS=5.86D-03 Max=7.68D-02 NDo=     1
 LinEq1:  Iter=  4 NonCon=     1 RMS=4.28D-03 Max=5.39D-02 NDo=     1
 LinEq1:  Iter=  5 NonCon=     1 RMS=1.18D-03 Max=7.23D-03 NDo=     1
 LinEq1:  Iter=  6 NonCon=     1 RMS=6.02D-04 Max=6.41D-03 NDo=     1
 LinEq1:  Iter=  7 NonCon=     1 RMS=2.46D-04 Max=1.58D-03 NDo=     1
 LinEq1:  Iter=  8 NonCon=     1 RMS=9.65D-05 Max=6.52D-04 NDo=     1
 LinEq1:  Iter=  9 NonCon=     1 RMS=1.16D-05 Max=5.17D-05 NDo=     1
 LinEq1:  Iter= 10 NonCon=     1 RMS=1.03D-06 Max=5.49D-06 NDo=     1
 LinEq1:  Iter= 11 NonCon=     1 RMS=1.29D-07 Max=8.44D-07 NDo=     1
 LinEq1:  Iter= 12 NonCon=     1 RMS=1.39D-08 Max=7.45D-08 NDo=     1
 LinEq1:  Iter= 13 NonCon=     1 RMS=1.84D-09 Max=1.06D-08 NDo=     1
 LinEq1:  Iter= 14 NonCon=     1 RMS=2.40D-10 Max=1.40D-09 NDo=     1
 LinEq1:  Iter= 15 NonCon=     0 RMS=3.03D-11 Max=1.62D-10 NDo=     1
 Linear equations converged to 1.000D-10 1.000D-09 after    15 iterations.
 End of Minotr F.D. properties file   721 does not exist.
 End of Minotr F.D. properties file   722 does not exist.
 End of Minotr F.D. properties file   788 does not exist.
 Leave Link 1002 at Tue Dec 15 16:21:22 2015, MaxMem=    33554432 cpu:        10.1
 (Enter /home/Applications/g09/g09/l601.exe)
 Copying SCF densities to generalized density rwf, IOpCl= 0 IROHF=0.

 **********************************************************************

            Population analysis using the SCF density.

 **********************************************************************

 Orbital symmetries:
       Occupied  (A) (A) (A) (A) (A) (A) (A) (A) (A) (A) (A) (A)
                 (A) (A) (A) (A) (A) (A)
       Virtual   (A) (A) (A) (A) (A) (A) (A) (A) (A) (A) (A) (A)
                 (A) (A) (A) (A) (A) (A) (A) (A) (A) (A) (A) (A)
                 (A) (A) (A) (A) (A) (A) (A) (A) (A) (A) (A)
 The electronic state is 1-A.
 Alpha  occ. eigenvalues --  -19.11463 -10.17110 -10.16995 -10.12314 -10.11296
 Alpha  occ. eigenvalues --   -1.14892  -0.81649  -0.75502  -0.60819  -0.57957
 Alpha  occ. eigenvalues --   -0.54272  -0.46244  -0.46035  -0.42123  -0.39452
 Alpha  occ. eigenvalues --   -0.35168  -0.28742  -0.22399
 Alpha virt. eigenvalues --    0.02208   0.09055   0.11789   0.15355   0.18444
 Alpha virt. eigenvalues --    0.20484   0.22377   0.25676   0.34509   0.43116
 Alpha virt. eigenvalues --    0.50554   0.67056   0.69641   0.72470   0.75394
 Alpha virt. eigenvalues --    0.77180   0.78896   0.79670   0.83090   0.84979
 Alpha virt. eigenvalues --    0.92655   0.98749   1.01632   1.05392   1.18513
 Alpha virt. eigenvalues --    1.24080   1.32262   1.36761   1.50518   1.56626
 Alpha virt. eigenvalues --    1.62661   1.73869   1.98040   2.11921   3.21774
     Molecular Orbital Coefficients:
                           1         2         3         4         5
                           O         O         O         O         O
     Eigenvalues --   -19.11463 -10.17110 -10.16995 -10.12314 -10.11296
   1 1   C  1S          0.00023  -0.00845  -0.00231  -0.05879   0.98423
   2        2S          0.00096  -0.00346  -0.00095  -0.01099   0.10992
   3        2PX         0.00142   0.00151   0.00036  -0.00153   0.00043
   4        2PY         0.00042   0.00089   0.00075   0.00139  -0.00148
   5        2PZ        -0.00006  -0.00002   0.00000  -0.00008   0.00017
   6        3S         -0.00837   0.02770  -0.00887   0.04607  -0.09973
   7        3PX        -0.00326  -0.01059  -0.00008   0.01762  -0.00902
   8        3PY         0.01032  -0.01242   0.00784  -0.02079   0.02981
   9        3PZ         0.00024   0.00019  -0.00016   0.00061  -0.00148
  10 2   C  1S         -0.00026   0.96682   0.19017   0.00020   0.00849
  11        2S         -0.00025   0.10522   0.01758  -0.00023  -0.00236
  12        2PX         0.00114   0.00175  -0.00098  -0.00040  -0.00092
  13        2PY        -0.00246  -0.00167  -0.00053  -0.00082  -0.00079
  14        2PZ         0.00000  -0.00003   0.00006  -0.00012   0.00005
  15        3S          0.01875  -0.06811  -0.00066  -0.00962   0.03215
  16        3PX         0.01910  -0.01275   0.01860  -0.00512   0.02075
  17        3PY        -0.00676  -0.01026   0.00104  -0.00007   0.00904
  18        3PZ        -0.00013   0.00042  -0.00054   0.00053  -0.00023
  19 3   O  1S          0.98284   0.00029   0.00031   0.00004   0.00008
  20        2S          0.10850   0.00129   0.00218   0.00007   0.00033
  21        2PX         0.00125  -0.00010   0.00084  -0.00002  -0.00012
  22        2PY         0.00411   0.00024   0.00053  -0.00009  -0.00008
  23        2PZ        -0.00013   0.00000  -0.00008  -0.00008   0.00003
  24        3S         -0.06364  -0.00072  -0.00109  -0.00277  -0.00461
  25        3PX        -0.00363   0.00089  -0.00157  -0.00267   0.00163
  26        3PY        -0.01393  -0.00420  -0.00402  -0.00038  -0.00242
  27        3PZ         0.00037   0.00005   0.00041   0.00031  -0.00009
  28 4   C  1S         -0.00046  -0.19123   0.96670   0.00775   0.00100
  29        2S         -0.00061  -0.02393   0.10427  -0.00468  -0.00109
  30        2PX        -0.00259   0.00125  -0.00250   0.00005  -0.00029
  31        2PY        -0.00070  -0.00124   0.00113  -0.00317  -0.00121
  32        2PZ         0.00009   0.00000   0.00040  -0.00012   0.00004
  33        3S          0.01669   0.03268  -0.07483   0.04774  -0.00535
  34        3PX        -0.01219  -0.00972   0.00209  -0.00831   0.00304
  35        3PY         0.00491   0.02141  -0.01835   0.02762  -0.00024
  36        3PZ         0.00060   0.00053  -0.00180   0.00095  -0.00054
  37 5   C  1S          0.00010   0.00087  -0.00823   0.98429   0.05834
  38        2S          0.00028   0.00082  -0.00620   0.11090   0.00184
  39        2PX        -0.00057   0.00042  -0.00018  -0.00214   0.00169
  40        2PY         0.00127  -0.00012   0.00386  -0.00149  -0.00058
  41        2PZ         0.00006  -0.00005   0.00015  -0.00037   0.00000
  42        3S         -0.00352  -0.02468   0.03934  -0.11745   0.03649
  43        3PX         0.00433   0.00376  -0.00353   0.03003  -0.02305
  44        3PY         0.00396   0.01341  -0.01989   0.01941   0.00188
  45        3PZ        -0.00027   0.00110  -0.00085   0.00310  -0.00056
  46 6   H  1S         -0.00070  -0.00001  -0.00107  -0.00212  -0.00040
  47        2S         -0.00152  -0.00064   0.00188   0.00349   0.00419
  48 7   H  1S          0.00000   0.00197  -0.00281  -0.00006  -0.00007
  49        2S          0.00269   0.00522   0.00820   0.00561   0.00060
  50 8   H  1S          0.00070  -0.00500   0.00061  -0.00006  -0.00019
  51        2S          0.00684   0.01064   0.01199  -0.00037   0.00610
  52 9   H  1S         -0.00100  -0.00114  -0.00062   0.00005  -0.00475
  53        2S         -0.00370   0.00088  -0.00136   0.00535   0.00554
                           6         7         8         9        10
                           O         O         O         O         O
     Eigenvalues --    -1.14892  -0.81649  -0.75502  -0.60819  -0.57957
   1 1   C  1S         -0.02691  -0.12087  -0.10413  -0.12476   0.00559
   2        2S          0.02432   0.12910   0.10969   0.12656  -0.00823
   3        2PX        -0.00230   0.06881  -0.04161  -0.04419  -0.16461
   4        2PY        -0.03323  -0.05934  -0.03919   0.06451   0.01818
   5        2PZ         0.00082   0.00386   0.00321   0.00352  -0.00202
   6        3S          0.05770   0.22962   0.22451   0.40983   0.00195
   7        3PX         0.01664  -0.00229   0.02734  -0.00864  -0.06928
   8        3PY        -0.05603  -0.03773  -0.01501  -0.01608   0.01086
   9        3PZ         0.00002   0.00297   0.00276   0.00310  -0.00067
  10 2   C  1S         -0.08397   0.00250  -0.15125   0.04489  -0.09825
  11        2S          0.09111   0.00048   0.16532  -0.05050   0.10744
  12        2PX         0.07610   0.03133   0.01982   0.06583  -0.20084
  13        2PY        -0.07256   0.10790  -0.00780   0.16508   0.12476
  14        2PZ         0.00020  -0.00074   0.00109  -0.00384   0.00160
  15        3S          0.05751  -0.03516   0.34152  -0.14862   0.30093
  16        3PX        -0.06517   0.01669   0.03301   0.01464  -0.10493
  17        3PY         0.01130   0.01366   0.03024   0.04313   0.05125
  18        3PZ         0.00056  -0.00075  -0.00096  -0.00132   0.00156
  19 3   O  1S         -0.21041   0.08294   0.03280  -0.02405   0.03522
  20        2S          0.19025  -0.08047  -0.02995   0.02251  -0.03607
  21        2PX         0.02354   0.07424  -0.21140   0.21447   0.09079
  22        2PY         0.11386  -0.00217   0.09136  -0.08440  -0.08364
  23        2PZ        -0.00275   0.00079   0.00246  -0.00646   0.00116
  24        3S          0.67542  -0.30080  -0.12371   0.10203  -0.16005
  25        3PX         0.03617   0.05582  -0.17810   0.18975   0.07822
  26        3PY         0.14259  -0.01229   0.06756  -0.07083  -0.07690
  27        3PZ        -0.00373   0.00028   0.00288  -0.00549   0.00052
  28 4   C  1S         -0.06986  -0.09653   0.12481   0.03415  -0.09802
  29        2S          0.07842   0.11051  -0.13195  -0.04349   0.10647
  30        2PX        -0.08159   0.01382   0.05370  -0.14475   0.06322
  31        2PY         0.00844   0.13303   0.02876  -0.18291  -0.10294
  32        2PZ         0.00360   0.00652  -0.00860  -0.00511   0.00833
  33        3S          0.04788   0.16704  -0.32737  -0.04239   0.32685
  34        3PX         0.02592  -0.00189   0.01575  -0.06542   0.04175
  35        3PY        -0.02664   0.04531  -0.03521  -0.04225  -0.04321
  36        3PZ         0.00001   0.00432  -0.00570  -0.00195   0.00738
  37 5   C  1S         -0.02976  -0.16593   0.01186   0.08333   0.05489
  38        2S          0.03019   0.17941  -0.01440  -0.08549  -0.05372
  39        2PX        -0.02419  -0.08423  -0.04954  -0.10770   0.06975
  40        2PY        -0.02957  -0.06191   0.08870   0.14292  -0.09925
  41        2PZ        -0.00166  -0.01098   0.00104   0.00735   0.00535
  42        3S          0.04540   0.32415  -0.00248  -0.29575  -0.18766
  43        3PX        -0.02591  -0.04101   0.00775  -0.01225   0.04396
  44        3PY        -0.02429  -0.01363  -0.02261   0.06701  -0.01499
  45        3PZ        -0.00061  -0.00727  -0.00093   0.00677   0.00341
  46 6   H  1S          0.00558   0.04997  -0.00569  -0.06325  -0.03452
  47        2S          0.00856   0.01079  -0.00158  -0.03748  -0.02670
  48 7   H  1S          0.01075   0.02676  -0.06892  -0.00300   0.13414
  49        2S         -0.01748   0.00655  -0.02970   0.01052   0.07000
  50 8   H  1S          0.01583  -0.00811   0.10266  -0.07395   0.19839
  51        2S         -0.04040   0.00404   0.03568  -0.03781   0.09066
  52 9   H  1S          0.00868   0.04963   0.06003   0.13725   0.02609
  53        2S          0.02044   0.01064   0.01761   0.07251   0.01354
                          11        12        13        14        15
                           O         O         O         O         O
     Eigenvalues --    -0.54272  -0.46244  -0.46035  -0.42123  -0.39452
   1 1   C  1S         -0.03526  -0.02800   0.01929   0.00849   0.03115
   2        2S          0.03373   0.03042  -0.01866  -0.01378  -0.03292
   3        2PX         0.09379  -0.11170   0.08509  -0.17116  -0.19919
   4        2PY         0.20563   0.06863  -0.04931   0.26276  -0.05818
   5        2PZ         0.00153   0.05622   0.08725  -0.00908  -0.00063
   6        3S          0.15173   0.08236  -0.08362  -0.02171  -0.11882
   7        3PX         0.01932  -0.05015   0.02661  -0.11546  -0.07929
   8        3PY         0.12251   0.05832  -0.01753   0.16943  -0.03754
   9        3PZ         0.00280   0.04145   0.06284  -0.00592   0.00092
  10 2   C  1S          0.03564   0.00936  -0.00415   0.02794  -0.03933
  11        2S         -0.04211  -0.00707   0.00112  -0.03277   0.04401
  12        2PX        -0.14460   0.21348  -0.14774  -0.07117   0.12706
  13        2PY        -0.09486  -0.05166   0.03738  -0.02152   0.13639
  14        2PZ         0.00407   0.10800   0.16319   0.00173   0.00283
  15        3S         -0.07763  -0.03108   0.02530  -0.09651   0.15281
  16        3PX        -0.11505   0.13076  -0.07790  -0.05424   0.11280
  17        3PY        -0.08454  -0.00322   0.00219  -0.00366   0.13476
  18        3PZ         0.00261   0.09656   0.14571   0.00230   0.00414
  19 3   O  1S         -0.06088   0.01155  -0.01064  -0.01756   0.00585
  20        2S          0.06109  -0.01053   0.01005   0.01431  -0.00893
  21        2PX        -0.10729  -0.15413   0.11077   0.03827   0.15101
  22        2PY        -0.17048   0.11400  -0.08105   0.03095   0.11699
  23        2PZ         0.00409   0.22158   0.31359   0.00690   0.01144
  24        3S          0.23564  -0.04332   0.04028   0.09458   0.00300
  25        3PX        -0.10152  -0.14485   0.10651   0.03192   0.15958
  26        3PY        -0.15661   0.10443  -0.07448   0.03543   0.11920
  27        3PZ         0.00391   0.22166   0.31530   0.00713   0.01166
  28 4   C  1S          0.01747  -0.03589   0.03088  -0.01261   0.03383
  29        2S         -0.02173   0.03754  -0.03211   0.02146  -0.03884
  30        2PX         0.09725   0.18526  -0.12426  -0.08997  -0.06319
  31        2PY        -0.09687  -0.05989   0.03836   0.28883  -0.07568
  32        2PZ        -0.00248   0.10950   0.14889   0.00801   0.00412
  33        3S         -0.03856   0.12165  -0.11985   0.04811  -0.09811
  34        3PX         0.04181   0.12901  -0.07163  -0.07202  -0.02388
  35        3PY        -0.11600  -0.04576   0.00880   0.20737   0.00058
  36        3PZ         0.00061   0.09772   0.13402   0.00507   0.00571
  37 5   C  1S         -0.06619   0.03931  -0.03046   0.00586  -0.00600
  38        2S          0.06403  -0.04414   0.03094  -0.00347  -0.00288
  39        2PX         0.10895   0.06155  -0.06108   0.12388   0.31345
  40        2PY         0.17045  -0.06595   0.04142  -0.24572   0.12732
  41        2PZ        -0.00120   0.07129   0.09495  -0.00458   0.01008
  42        3S          0.27941  -0.12563   0.13126  -0.05704   0.02116
  43        3PX         0.08691   0.01456  -0.05506   0.06433   0.23546
  44        3PY         0.07309  -0.04619   0.01450  -0.10020   0.09805
  45        3PZ        -0.00635   0.04894   0.06488  -0.00038   0.00818
  46 6   H  1S          0.13388  -0.02861   0.00941  -0.01947   0.24160
  47        2S          0.07967  -0.01116   0.01146  -0.02352   0.24228
  48 7   H  1S          0.04968   0.13790  -0.09304  -0.17748  -0.03881
  49        2S          0.01973   0.10049  -0.07902  -0.15708  -0.03070
  50 8   H  1S          0.03791  -0.15257   0.10615   0.01008  -0.04154
  51        2S          0.00489  -0.10838   0.08028   0.00855  -0.03197
  52 9   H  1S          0.11981   0.09347  -0.06675   0.19848  -0.04246
  53        2S          0.05470   0.05914  -0.05296   0.16471  -0.02382
                          16        17        18        19        20
                           O         O         O         V         V
     Eigenvalues --    -0.35168  -0.28742  -0.22399   0.02208   0.09055
   1 1   C  1S          0.02604   0.00285   0.00279  -0.00432  -0.00442
   2        2S         -0.02339  -0.00435  -0.00326   0.00409  -0.00216
   3        2PX         0.15570  -0.01036  -0.01065   0.00693  -0.00396
   4        2PY         0.18296   0.00249   0.00233  -0.00472   0.01259
   5        2PZ         0.00743   0.23366   0.26306  -0.21110  -0.30335
   6        3S         -0.16238   0.00532  -0.01267   0.03756   0.08580
   7        3PX         0.14055  -0.00136  -0.00984   0.02544   0.00507
   8        3PY         0.11314  -0.00364   0.00366  -0.00321   0.02598
   9        3PZ         0.00269   0.23396   0.29790  -0.34868  -0.63093
  10 2   C  1S         -0.00699   0.00029   0.00012   0.00138  -0.00522
  11        2S          0.01516  -0.00032  -0.00032  -0.00021   0.00090
  12        2PX        -0.09505   0.00074   0.00714   0.00591   0.00198
  13        2PY        -0.22014   0.00142   0.00835   0.00252  -0.00388
  14        2PZ         0.00821  -0.04441   0.32213   0.35854   0.15791
  15        3S         -0.01187  -0.00399   0.00014  -0.01046   0.06143
  16        3PX        -0.05486  -0.00419   0.00748   0.00683   0.01255
  17        3PY        -0.03937  -0.00073   0.00554   0.01175  -0.00744
  18        3PZ         0.00517  -0.06915   0.34476   0.55011   0.29910
  19 3   O  1S          0.06213  -0.00025  -0.00028  -0.00050   0.00443
  20        2S         -0.06229   0.00056  -0.00070   0.00161  -0.00286
  21        2PX         0.13466  -0.00846  -0.00554  -0.00119  -0.00206
  22        2PY         0.38237  -0.00866  -0.00372  -0.00312   0.00324
  23        2PZ        -0.00898  -0.28605  -0.08425  -0.29639   0.03197
  24        3S         -0.22438  -0.00048   0.00510  -0.00130  -0.03803
  25        3PX         0.15067  -0.01184  -0.00306  -0.00699  -0.00335
  26        3PY         0.41701  -0.00876  -0.00341  -0.00468   0.00503
  27        3PZ        -0.01063  -0.32210  -0.10373  -0.42134   0.04434
  28 4   C  1S         -0.02769   0.00389  -0.00779   0.01024  -0.01620
  29        2S          0.03307  -0.00409   0.00995  -0.00616   0.00544
  30        2PX        -0.10014  -0.00086   0.00251  -0.00696   0.01856
  31        2PY        -0.11691   0.00208   0.00682   0.00315  -0.04268
  32        2PZ         0.00086   0.16445  -0.30625   0.27981  -0.24233
  33        3S          0.12995  -0.00907   0.01876  -0.09475   0.19160
  34        3PX        -0.00342  -0.00659   0.00809  -0.03240   0.04238
  35        3PY         0.03394   0.00215  -0.00869   0.00531  -0.09112
  36        3PZ         0.00068   0.11857  -0.34342   0.41575  -0.50202
  37 5   C  1S          0.01708  -0.00938   0.00304   0.00228  -0.01460
  38        2S         -0.01712   0.01213  -0.00446   0.00084   0.00274
  39        2PX        -0.03546  -0.00222   0.00284   0.00082   0.04107
  40        2PY         0.12622  -0.01250   0.00119  -0.01547   0.02960
  41        2PZ         0.00813   0.33427  -0.08877  -0.10788   0.36137
  42        3S         -0.13563   0.02188   0.00372  -0.03047   0.18291
  43        3PX        -0.07558   0.01248  -0.00096   0.01720   0.10109
  44        3PY         0.11831  -0.00911  -0.01228  -0.03196   0.04803
  45        3PZ         0.01271   0.33002  -0.08706  -0.18731   0.75053
  46 6   H  1S          0.00725  -0.00441   0.00147   0.00711  -0.03454
  47        2S          0.02968  -0.00769   0.00438   0.02166  -0.21586
  48 7   H  1S          0.06224  -0.00256  -0.00745   0.01579  -0.03245
  49        2S          0.06404  -0.00377  -0.01319   0.06155  -0.21711
  50 8   H  1S          0.10268  -0.00296  -0.00236   0.00360  -0.00434
  51        2S          0.09791  -0.00467  -0.00318   0.00888  -0.03548
  52 9   H  1S          0.07460   0.00175   0.00273  -0.00156  -0.01329
  53        2S          0.09864   0.00316   0.00235  -0.00325  -0.08278
                          21        22        23        24        25
                           V         V         V         V         V
     Eigenvalues --     0.11789   0.15355   0.18444   0.20484   0.22377
   1 1   C  1S          0.02021   0.02160  -0.04213   0.10957  -0.06495
   2        2S         -0.01287  -0.01228   0.05280  -0.07682   0.03652
   3        2PX        -0.04701   0.00341   0.08170   0.00582  -0.21671
   4        2PY        -0.09301   0.01008  -0.08844  -0.22260   0.05448
   5        2PZ        -0.04481  -0.01840  -0.00338   0.00116   0.01683
   6        3S         -0.32237  -0.20071   0.07683  -1.42323   0.94467
   7        3PX        -0.13299   0.02390   0.15940   0.08784  -0.99641
   8        3PY        -0.25426  -0.04577   0.08622  -1.11612   0.32934
   9        3PZ        -0.11449  -0.03540  -0.01250   0.01111   0.05158
  10 2   C  1S          0.02806   0.05498   0.09371  -0.00339   0.08219
  11        2S         -0.02377  -0.03494  -0.07323   0.01678  -0.05086
  12        2PX         0.00513   0.01815   0.17863   0.14506   0.12153
  13        2PY        -0.07439   0.11987   0.04350  -0.01676  -0.15183
  14        2PZ         0.01735   0.00363  -0.00343  -0.00231  -0.00705
  15        3S         -0.33332  -0.63070  -1.21068  -0.37560  -1.31612
  16        3PX        -0.01322   0.18126   0.97585   0.16059   0.49366
  17        3PY        -0.24108   0.37061   0.11736  -0.00779  -0.70601
  18        3PZ         0.03913   0.00514  -0.01993   0.00108  -0.01880
  19 3   O  1S          0.04152  -0.07858  -0.05319   0.03169   0.06599
  20        2S         -0.02785   0.05656   0.03491  -0.02192  -0.02635
  21        2PX        -0.09074   0.08040   0.04371  -0.03740  -0.10308
  22        2PY        -0.07019   0.07582   0.03238  -0.04751   0.01866
  23        2PZ         0.01749   0.00844  -0.00543  -0.00171   0.00440
  24        3S         -0.34855   0.64601   0.46130  -0.27370  -0.71772
  25        3PX        -0.14649   0.10439   0.12970  -0.13384  -0.21755
  26        3PY        -0.13269   0.11302   0.04817  -0.06800  -0.05130
  27        3PZ         0.02943   0.01403  -0.01124  -0.00316   0.01135
  28 4   C  1S          0.01759   0.13213  -0.00503  -0.01120  -0.01585
  29        2S         -0.00283  -0.10136   0.00398  -0.00706   0.02379
  30        2PX        -0.21841   0.01257   0.24060  -0.00699  -0.21082
  31        2PY         0.07413   0.20506  -0.04175  -0.12236  -0.09537
  32        2PZ        -0.05480  -0.04823   0.00285   0.01283   0.01191
  33        3S         -0.42530  -1.19507   0.09928   0.36643  -0.14145
  34        3PX        -0.42422  -0.23408   0.82205  -0.15249  -0.58827
  35        3PY         0.15002   0.75066  -0.21348  -0.31171  -0.45380
  36        3PZ        -0.13880  -0.10403  -0.00281   0.05935   0.03258
  37 5   C  1S          0.05458  -0.05823   0.06971  -0.06550  -0.05932
  38        2S         -0.03228   0.06251  -0.05609   0.04697   0.00530
  39        2PX        -0.20593   0.05249  -0.05104   0.06388   0.12749
  40        2PY        -0.15589   0.00337  -0.01896   0.08342   0.02880
  41        2PZ         0.07336   0.02346   0.01748  -0.02359  -0.02437
  42        3S         -0.58338   0.27011  -0.58488   0.65414   1.35386
  43        3PX        -0.58483   0.37342  -0.29603   0.40334   0.15098
  44        3PY        -0.35280   0.18216  -0.27204   0.42462  -0.00314
  45        3PZ         0.17629   0.08003   0.02880  -0.06397  -0.10830
  46 6   H  1S          0.13203  -0.05168   0.00016  -0.00984   0.05454
  47        2S          1.22456  -0.60363   0.59221  -0.78523  -0.56725
  48 7   H  1S          0.06223   0.09821  -0.03459   0.00223   0.01068
  49        2S          0.71741   1.48601  -0.74935  -0.36294   0.03337
  50 8   H  1S          0.00404   0.04867   0.07645  -0.02358  -0.02445
  51        2S          0.17625   0.61872   1.82724   0.43373   1.17231
  52 9   H  1S          0.05988  -0.00454  -0.01540   0.04923   0.01897
  53        2S          0.53498   0.11892  -0.02372   1.98781  -1.05305
                          26        27        28        29        30
                           V         V         V         V         V
     Eigenvalues --     0.25676   0.34509   0.43116   0.50554   0.67056
   1 1   C  1S         -0.06157   0.07771   0.01028   0.12084  -0.06470
   2        2S          0.00218  -0.03488  -0.03391  -0.00768   0.04221
   3        2PX         0.07822   0.07249  -0.24336  -0.03599  -0.34301
   4        2PY        -0.04804   0.19257  -0.07309   0.19859  -0.26168
   5        2PZ         0.00737   0.00363  -0.01011  -0.00630  -0.00815
   6        3S          1.38110  -1.24914  -0.07007  -3.00211   0.29405
   7        3PX         0.81681   0.95017  -1.26883  -1.50249   0.43617
   8        3PY        -0.51826   1.43873  -0.60387   2.16569  -0.26464
   9        3PZ         0.05670  -0.00680  -0.04952  -0.09463   0.02836
  10 2   C  1S         -0.06876  -0.09102   0.01607  -0.08815   0.05379
  11        2S          0.05082  -0.00176  -0.04519   0.02000   0.01912
  12        2PX         0.10672   0.28207   0.00074   0.17102  -0.15615
  13        2PY        -0.20884   0.18728  -0.02940  -0.19744  -0.08772
  14        2PZ        -0.00270  -0.00492   0.01175  -0.01069   0.02805
  15        3S          0.64872   1.42055  -0.44220   1.37792  -0.37573
  16        3PX         0.23774   1.61854  -0.20954   1.41885  -0.18741
  17        3PY        -0.90363   0.75786  -1.21794  -0.00192   0.02762
  18        3PZ        -0.00486  -0.02888   0.04464  -0.00672  -0.03025
  19 3   O  1S          0.05279   0.06458   0.01283   0.00740  -0.02712
  20        2S         -0.02449  -0.02470  -0.00180   0.00145   0.07454
  21        2PX         0.27903  -0.09965   0.13450   0.25768   0.09812
  22        2PY        -0.13726  -0.12576  -0.08809  -0.07701   0.11240
  23        2PZ         0.00506   0.00435  -0.01355  -0.01321   0.00736
  24        3S         -0.59063  -0.84388  -0.22364  -0.14729  -0.06621
  25        3PX         0.59745  -0.26926   0.38214   0.54051  -0.09413
  26        3PY        -0.34897  -0.42673  -0.30414  -0.19929   0.12843
  27        3PZ         0.00822   0.01134  -0.02632  -0.00863   0.01379
  28 4   C  1S          0.07582  -0.05654  -0.07407   0.09068   0.02786
  29        2S         -0.05866   0.00765   0.00276  -0.00631   0.06519
[...]
     1  C    5.249426   0.487000  -0.077143  -0.161129   0.450228  -0.025811
     2  C    0.487000   5.028925   0.272046  -0.159931  -0.127251   0.004540
     3  O   -0.077143   0.272046   8.145551   0.313165  -0.096060   0.002020
     4  C   -0.161129  -0.159931   0.313165   5.108605   0.451895  -0.028864
     5  C    0.450228  -0.127251  -0.096060   0.451895   5.244945   0.369925
     6  H   -0.025811   0.004540   0.002020  -0.028864   0.369925   0.500899
     7  H    0.003050   0.003330  -0.027320   0.384071  -0.035155  -0.000912
     8  H   -0.039557   0.393636  -0.033836   0.004309   0.002706  -0.000018
     9  H    0.390319  -0.030448   0.002904   0.006632  -0.031430  -0.001587
               7          8          9
     1  C    0.003050  -0.039557   0.390319
     2  C    0.003330   0.393636  -0.030448
     3  O   -0.027320  -0.033836   0.002904
     4  C    0.384071   0.004309   0.006632
     5  C   -0.035155   0.002706  -0.031430
     6  H   -0.000912  -0.000018  -0.001587
     7  H    0.459794  -0.000053  -0.000035
     8  H   -0.000053   0.448039  -0.000223
     9  H   -0.000035  -0.000223   0.483787
 Mulliken charges:
               1
     1  C   -0.276385
     2  C    0.128152
     3  O   -0.501328
     4  C    0.081247
     5  C   -0.229803
     6  H    0.179806
     7  H    0.213231
     8  H    0.224998
     9  H    0.180081
 Sum of Mulliken charges =   0.00000
 Mulliken charges with hydrogens summed into heavy atoms:
               1
     1  C   -0.096303
     2  C    0.353150
     3  O   -0.501328
     4  C    0.294479
     5  C   -0.049997
 Electronic spatial extent (au):  <R**2>=            283.9201
 Charge=              0.0000 electrons
 Dipole moment (field-independent basis, Debye):
    X=              0.1562    Y=              0.4538    Z=              0.0348  Tot=              0.4812
 Quadrupole moment (field-independent basis, Debye-Ang):
   XX=            -24.1422   YY=            -27.5586   ZZ=            -31.5993
   XY=             -1.4078   XZ=             -0.0239   YZ=             -0.1032
 Traceless Quadrupole moment (field-independent basis, Debye-Ang):
   XX=              3.6245   YY=              0.2081   ZZ=             -3.8326
   XY=             -1.4078   XZ=             -0.0239   YZ=             -0.1032
 Octapole moment (field-independent basis, Debye-Ang**2):
  XXX=             -4.8098  YYY=             -1.2920  ZZZ=              0.1418  XYY=              3.0992
  XXY=             -1.6888  XXZ=              0.1511  XZZ=             -1.6135  YZZ=             -3.0920
  YYZ=              0.0955  XYZ=             -0.2086
 Hexadecapole moment (field-independent basis, Debye-Ang**3):
 XXXX=           -151.0949 YYYY=           -148.0666 ZZZZ=            -30.6824 XXXY=              3.4172
 XXXZ=             -0.3965 YYYX=             -6.7703 YYYZ=             -0.3469 ZZZX=             -0.0468
 ZZZY=             -0.1696 XXYY=            -48.7199 XXZZ=            -38.0016 YYZZ=            -34.0364
 XXYZ=             -0.4742 YYXZ=              0.1338 ZZXY=              1.2298
 N-N= 1.634463427533D+02 E-N=-8.596378234846D+02  KE= 2.272649004814D+02
 Orbital energies and kinetic energies (alpha):
                                 1                 2
   1         O               -19.114627         28.827981
   2         O               -10.171098         15.799378
   3         O               -10.169955         15.796510
   4         O               -10.123141         15.802903
   5         O               -10.112962         15.804820
   6         O                -1.148916          2.536864
   7         O                -0.816487          1.861107
   8         O                -0.755024          1.831225
   9         O                -0.608194          1.686730
  10         O                -0.579575          1.395882
  11         O                -0.542724          1.397667
  12         O                -0.462440          1.540920
  13         O                -0.460345          1.584843
  14         O                -0.421227          1.367981
  15         O                -0.394523          1.415808
  16         O                -0.351679          2.236231
  17         O                -0.287424          1.506481
  18         O                -0.223986          1.239119
  19         V                 0.022082          1.859532
  20         V                 0.090547          1.474432
  21         V                 0.117885          1.253421
  22         V                 0.153555          1.622840
  23         V                 0.184439          1.351455
  24         V                 0.204835          1.231709
  25         V                 0.223765          1.575799
  26         V                 0.256759          2.063318
  27         V                 0.345085          2.008067
  28         V                 0.431162          1.582248
  29         V                 0.505539          2.830666
  30         V                 0.670563          2.559149
  31         V                 0.696407          2.488662
  32         V                 0.724698          2.693234
  33         V                 0.753942          2.663194
  34         V                 0.771802          2.596681
  35         V                 0.788956          2.574912
  36         V                 0.796700          2.637031
  37         V                 0.830903          2.706903
  38         V                 0.849789          2.634377
  39         V                 0.926549          2.745382
  40         V                 0.987495          3.418796
  41         V                 1.016317          3.119736
  42         V                 1.053923          3.208524
  43         V                 1.185135          2.763988
  44         V                 1.240805          2.906893
  45         V                 1.322621          2.593269
  46         V                 1.367609          2.876233
  47         V                 1.505176          4.929560
  48         V                 1.566262          3.437444
  49         V                 1.626610          3.705050
  50         V                 1.738695          4.400606
  51         V                 1.980403          3.959239
  52         V                 2.119213          4.369154
  53         V                 3.217743          6.837285
 Total kinetic energy from orbitals= 2.272649004814D+02
 No NMR shielding tensors so no spin-rotation constants.
 Leave Link  601 at Tue Dec 15 16:21:22 2015, MaxMem=    33554432 cpu:         0.1
 (Enter /home/Applications/g09/g09/l701.exe)
 Compute integral first derivatives.
 ... and contract with generalized density number  6.
 Leave Link  701 at Tue Dec 15 16:21:22 2015, MaxMem=    33554432 cpu:         0.1
 (Enter /home/Applications/g09/g09/l702.exe)
 L702 exits ... SP integral derivatives will be done elsewhere.
 Leave Link  702 at Tue Dec 15 16:21:22 2015, MaxMem=    33554432 cpu:         0.0
 (Enter /home/Applications/g09/g09/l703.exe)
 Compute integral first derivatives, UseDBF=F ICtDFT=           0.
 Integral derivatives from FoFJK, PRISM(SPDF).
 Calling FoFJK, ICntrl=  10005127 FMM=F ISym2X=0 I1Cent= 0 IOpClX= 0 NMat=1 NMatS=1 NMatT=0.
 FoFJK:  IHMeth= 1 ICntrl=10005127 DoSepK=F KAlg= 0 I1Cent=   0 FoldK=F
 IRaf=         0 NMat=   1 IRICut=       1 DoRegI=T DoRafI=F ISym2E= 0.
 FoFCou: FMM=F IPFlag=           0 FMFlag=      100000 FMFlg1=         800
         NFxFlg=           0 DoJE=F BraDBF=F KetDBF=F FulRan=T
         wScrn=  0.000000 ICntrl=10005127 IOpCl=  0 I1Cent=           0 NGrid=           0
         NMat0=    1 NMatS0=      1 NMatT0=    0 NMatD0=    1 NMtDS0=    0 NMtDT0=    0
 Symmetry not used in FoFCou.
 Leave Link  703 at Tue Dec 15 16:21:24 2015, MaxMem=    33554432 cpu:         1.6
 (Enter /home/Applications/g09/g09/l716.exe)
 Dipole        =-3.79074919D-01 4.43225613D-01 3.32233371D-02
 ***** Axes restored to original set *****
 -------------------------------------------------------------------
 Center     Atomic                   Forces (Hartrees/Bohr)
 Number     Number              X              Y              Z
 -------------------------------------------------------------------
      1        6          -0.013237795   -0.012555340   -0.005370242
      2        6           0.067488812    0.004399721    0.009912099
      3        8          -0.144884530   -0.014796789   -0.002502322
      4        6          -0.084661183    0.126550207    0.004471789
      5        6           0.186339840    0.051680913   -0.004259447
      6        1          -0.037669718   -0.029928710    0.000257342
      7        1           0.020653933   -0.020776047    0.000382673
      8        1          -0.038205004   -0.075018825   -0.003359459
      9        1           0.044175646   -0.029555130    0.000467568
 -------------------------------------------------------------------
 Cartesian Forces:  Max     0.186339840 RMS     0.060846492
 Z-matrix is all fixed cartesians, so copy forces.
 Force constants in Cartesian coordinates: 
                1             2             3             4             5 
      1  0.848933D+00
      2 -0.108359D+00  0.919778D+00
      3  0.396207D-02 -0.193197D-01  0.212629D+00
      4 -0.375070D+00 -0.762586D-01 -0.393070D-02  0.867568D+00
      5 -0.553247D-01 -0.189027D+00 -0.262425D-03 -0.339815D-01  0.112728D+01
      6 -0.717167D-02 -0.122938D-02 -0.820241D-01  0.137522D-01  0.149376D-02
      7 -0.924734D-02  0.298754D-01 -0.774084D-03 -0.329107D+00  0.228887D+00
      8 -0.609733D-02  0.198182D-01  0.131122D-03  0.272219D+00 -0.508531D+00
      9 -0.810741D-03  0.387921D-03  0.794551D-02 -0.648920D-02  0.433402D-02
     10  0.117996D-01  0.356943D-03 -0.157079D-02  0.264341D-01  0.175092D-01
     11  0.372393D-01  0.113528D-02 -0.519113D-02 -0.193187D-01 -0.128229D-01
     12 -0.333596D-02 -0.177122D-03 -0.563681D-02  0.834052D-03  0.292336D-03
     13 -0.181675D+00  0.222440D-01  0.562104D-03  0.104090D-01 -0.337793D-01
     14 -0.198301D-02 -0.507379D+00  0.254145D-01  0.385402D-03 -0.128518D-02
     15 -0.648762D-04  0.216934D-01 -0.990602D-01  0.264511D-03 -0.619114D-03
     16  0.166862D-01  0.614156D-03 -0.985291D-04  0.124503D-04 -0.198294D-04
     17 -0.221991D-01 -0.886637D-03 -0.134961D-02 -0.655456D-05  0.104394D-04
     18  0.262889D-02  0.114833D-02  0.223656D-01 -0.149331D-03  0.237838D-03
     19  0.664711D-04  0.474308D-04  0.957031D-03  0.111349D-04  0.292920D-05
     20  0.897663D-04  0.640532D-04  0.129243D-02 -0.345025D-05  0.000000D+00
     21  0.702400D-03  0.501201D-03  0.101129D-01 -0.145950D-03 -0.383944D-04
     22  0.852264D-02 -0.275361D-01 -0.510901D-03 -0.194533D+00 -0.141793D+00
     23 -0.377910D-02  0.122255D-01 -0.991810D-04 -0.136016D+00 -0.438313D+00
     24 -0.801800D-04 -0.693237D-03  0.201333D-01 -0.369886D-02 -0.599041D-02
     25 -0.320015D+00  0.159016D+00  0.140380D-02 -0.572528D-02  0.184994D-01
     26  0.160413D+00 -0.255728D+00 -0.615953D-03 -0.702035D-02  0.226895D-01
     27  0.417007D-02 -0.231139D-02 -0.864649D-01 -0.436742D-03  0.552390D-03
                6             7             8             9            10 
      6  0.175663D+00
      7 -0.664100D-02  0.576429D+00
      8  0.540903D-02 -0.736547D-01  0.845162D+00
      9 -0.471725D-01  0.149609D-01  0.413153D-02  0.624657D-01
     10  0.129927D-02 -0.274919D+00 -0.202611D+00 -0.124231D-01  0.104822D+01
     11 -0.137132D-02 -0.155316D+00 -0.361573D+00 -0.122857D-01 -0.721915D-01
     12 -0.367423D-02 -0.802278D-02 -0.953460D-02 -0.527863D-01 -0.108991D-01
     13  0.270105D-02 -0.979129D-02  0.709514D-02  0.181443D-02 -0.640714D+00
     14  0.517286D-03 -0.301482D-01  0.219165D-01  0.314613D-02  0.158637D+00
     15  0.290577D-03 -0.158946D-02  0.772336D-03  0.101724D-01  0.320713D-01
     16 -0.431867D-03  0.613798D-05 -0.101158D-04  0.175558D-03 -0.551235D-02
     17  0.227360D-03 -0.260615D-04  0.429512D-04 -0.745410D-03  0.706255D-02
     18  0.517989D-02  0.271466D-03 -0.447394D-03  0.776445D-02  0.322818D-02
     19 -0.344785D-03  0.199373D-01 -0.146284D-01  0.206352D-02 -0.165335D+00
     20  0.106835D-03  0.122322D-01 -0.898254D-02  0.150067D-02  0.912111D-01
     21  0.451925D-02  0.118083D-02 -0.973740D-03  0.346782D-02 -0.119625D-01
     22 -0.347690D-02  0.266915D-01  0.176873D-01  0.746704D-03  0.681563D-05
     23 -0.542173D-02 -0.118506D-01 -0.785370D-02 -0.395686D-03  0.117168D-05
     24 -0.709585D-01  0.678381D-03  0.500654D-03  0.398391D-02 -0.259228D-03
     25  0.313685D-03  0.000000D+00  0.000000D+00 -0.381296D-04  0.231599D-04
     26  0.268157D-03  0.113516D-05  0.000000D+00 -0.734614D-04  0.250994D-04
     27  0.181763D-01 -0.642664D-04  0.110591D-04  0.415897D-02  0.515924D-03
               11            12            13            14            15 
     11  0.855169D+00
     12  0.947968D-02  0.246242D+00
     13  0.128490D+00  0.324346D-01  0.100134D+01
     14 -0.248383D+00 -0.947194D-02 -0.695628D-01  0.881432D+00
     15 -0.116093D-01 -0.135916D+00 -0.229005D-01 -0.816536D-02  0.245844D+00
     16 -0.169238D-01 -0.123272D-02 -0.207689D+00 -0.828944D-01 -0.638451D-02
     17  0.220166D-01 -0.426190D-03 -0.841706D-01 -0.162053D+00 -0.367765D-02
     18  0.487079D-02  0.310370D-01 -0.117634D-01 -0.869553D-02 -0.890742D-01
     19  0.980027D-01 -0.990046D-02  0.792221D-02  0.248243D-01 -0.124678D-02
     20 -0.255561D+00  0.951274D-02  0.488199D-02  0.148478D-01  0.193774D-02
     21  0.158070D-01 -0.947211D-01  0.775154D-03 -0.398637D-02  0.384637D-01
     22  0.179296D-05 -0.211042D-03  0.142717D-05 -0.227304D-05 -0.495048D-04
     23  0.000000D+00 -0.362804D-04  0.143706D-05 -0.228878D-05 -0.498477D-04
     24 -0.681940D-04  0.802685D-02 -0.127925D-03  0.203744D-03  0.443736D-02
     25  0.165259D-04  0.333450D-03  0.201992D-01  0.744359D-03 -0.100115D-03
     26  0.179098D-04  0.361374D-03  0.248006D-01  0.906440D-03 -0.282221D-03
     27  0.368140D-03  0.742813D-02 -0.349545D-02  0.103757D-02  0.248421D-01
               16            17            18            19            20 
     16  0.196490D+00
     17  0.992350D-01  0.140723D+00
     18  0.749318D-02  0.508100D-02  0.457421D-01
     19 -0.290715D-04  0.123436D-03 -0.128575D-02  0.137427D+00
     20 -0.392597D-04  0.166694D-03 -0.173635D-02 -0.108372D+00  0.249465D+00
     21 -0.307198D-03  0.130434D-02 -0.135865D-01  0.975722D-02 -0.126141D-01
     22  0.000000D+00  0.000000D+00  0.000000D+00  0.000000D+00  0.000000D+00
     23  0.000000D+00  0.000000D+00  0.000000D+00  0.000000D+00  0.000000D+00
     24  0.000000D+00  0.000000D+00  0.000000D+00  0.000000D+00  0.000000D+00
     25  0.352874D-04 -0.185774D-04 -0.423244D-03  0.000000D+00  0.000000D+00
     26  0.382425D-04 -0.201331D-04 -0.458687D-03  0.000000D+00  0.000000D+00
     27  0.786084D-03 -0.413841D-03 -0.942843D-02  0.000000D+00  0.000000D+00
               21            22            23            24            25 
     21  0.517439D-01
     22  0.000000D+00  0.159311D+00
     23  0.000000D+00  0.151643D+00  0.433945D+00
     24  0.000000D+00  0.342405D-02  0.592459D-02  0.413327D-01
     25  0.000000D+00  0.000000D+00  0.000000D+00  0.637691D-04  0.305483D+00
     26  0.000000D+00 -0.137066D-05 -0.138015D-05  0.122859D-03 -0.178257D+00
     27  0.000000D+00  0.775989D-04  0.781364D-04 -0.695558D-02 -0.155322D-02
               26            27 
     26  0.232136D+00
     27  0.677934D-03  0.482435D-01
 Leave Link  716 at Tue Dec 15 16:21:24 2015, MaxMem=    33554432 cpu:         0.0
 (Enter /home/Applications/g09/g09/l103.exe)

 GradGradGradGradGradGradGradGradGradGradGradGradGradGradGradGradGradGrad
 Berny optimization.
 Search for a local minimum.
 Step number   1 out of a maximum of    2
 All quantities printed in internal units (Hartrees-Bohrs-Radians)
 Second derivative matrix not updated -- first step.
 ITU=  0
     Eigenvalues ---    0.02065   0.03642   0.06694   0.07712   0.08097
     Eigenvalues ---    0.08332   0.13275   0.15223   0.16985   0.24001
     Eigenvalues ---    0.25379   0.30853   0.43464   0.45669   0.61024
     Eigenvalues ---    0.90879   1.15182   1.41154   1.49188   1.75345
     Eigenvalues ---    1.87374
 Quadratic step=5.091D-01 exceeds max=3.000D-01 adjusted using Lamda=-2.168D-01.
 Angle between NR and scaled steps=  24.78 degrees.
 Angle between quadratic step and forces=  28.55 degrees.
 Linear search not attempted -- first point.
 TrRot= -0.008040  0.012767  0.000325  0.513552  0.000932 -0.512763
 Variable       Old X    -DE/DX   Delta X   Delta X   Delta X     New X
                                 (Linear)    (Quad)   (Total)
    X1        1.85161  -0.01324   0.00000   0.04714   0.04019   1.89179
    Y1       -1.29442  -0.01256   0.00000  -0.01094   0.00336  -1.29106
    Z1        0.08920  -0.00537   0.00000  -0.01372  -0.01434   0.07486
    X2       -0.74760   0.06749   0.00000   0.01231   0.00599  -0.74161
    Y2       -2.09819   0.00440   0.00000  -0.01772  -0.00550  -2.10369
    Z2        0.05117   0.00991   0.00000   0.01496   0.01685   0.06802
    X3       -2.09932  -0.14488   0.00000  -0.16468  -0.17264  -2.27196
    Y3       -0.05723  -0.01480   0.00000  -0.02194  -0.01095  -0.06818
    Z3        0.02486  -0.00250   0.00000  -0.00011   0.00209   0.02695
    X4       -0.56850  -0.08466   0.00000  -0.03607  -0.04571  -0.61420
    Y4        2.03863   0.12655   0.00000   0.07772   0.09005   2.12868
    Z4        0.09210   0.00447   0.00000  -0.00423  -0.00438   0.08772
    X5        1.75574   0.18634   0.00000   0.13468   0.12555   1.88129
    Y5        1.29065   0.05168   0.00000   0.06015   0.07439   1.36504
    Z5       -0.03226  -0.00426   0.00000   0.00296   0.00114  -0.03112
    X6        3.51280  -0.03767   0.00000   0.00031  -0.00972   3.50308
    Y6        2.62179  -0.02993   0.00000  -0.03214  -0.01657   2.60522
    Z6        0.05581   0.00026   0.00000   0.01284   0.00913   0.06494
    X7       -1.66717   0.02065   0.00000   0.02878   0.01767  -1.64950
    Y7        3.84156  -0.02078   0.00000   0.00978   0.02124   3.86280
    Z7       -0.03434   0.00038   0.00000  -0.00491  -0.00501  -0.03935
    X8       -1.50346  -0.03821   0.00000  -0.04197  -0.04690  -1.55036
    Y8       -3.80220  -0.07502   0.00000  -0.11939  -0.10783  -3.91003
    Z8        0.02360  -0.00336   0.00000  -0.00605  -0.00268   0.02092
    X9        3.33885   0.04418   0.00000   0.09153   0.08558   3.42443
    Y9       -2.50682  -0.02956   0.00000  -0.06370  -0.04819  -2.55500
    Z9        0.08142   0.00047   0.00000  -0.00152  -0.00280   0.07862
         Item               Value     Threshold  Converged?
 Maximum Force            0.186340     0.000450     NO 
 RMS     Force            0.060846     0.000300     NO 
 Maximum Displacement     0.172639     0.001800     NO 
 RMS     Displacement     0.057205     0.001200     NO 
 Predicted change in Energy=-5.160982D-02
 GradGradGradGradGradGradGradGradGradGradGradGradGradGradGradGradGradGrad

 Leave Link  103 at Tue Dec 15 16:21:24 2015, MaxMem=    33554432 cpu:         0.0
 (Enter /home/Applications/g09/g09/l9999.exe)
 1\1\GINC-DUSTIN-DESKTOP\Force\RB3LYP-FC\3-21G\C4H4O1\DUSTIN\15-Dec-201
 5\0\\#P B3LYP/3-21G CIS(Singlets,NStates=15) pop(full) force\\FuranDFT
 \\0,1\C,0.979829,-0.684975,0.047202\C,-0.395614,-1.110312,0.027079\O,-
 1.110911,-0.030286,0.013154\C,-0.300835,1.078798,0.048738\C,0.9291,0.6
 82982,-0.017071\H,1.858894,1.387389,0.029531\H,-0.882226,2.032868,-0.0
 18172\H,-0.795595,-2.01204,0.012487\H,1.766845,-1.326551,0.043085\\Ver
 sion=ES64L-G09RevD.01\State=1-A\HF=-228.7139614\RMSD=9.076e-09\RMSF=6.
 085e-02\Dipole=0.2658558,-0.5193282,-0.0294866\PG=C01 [X(C4H4O1)]\\@


 A true friend is someone who is there for
 you when he'd rather be anywhere else.
                               -- Len Wein
 Job cpu time:       0 days  0 hours  0 minutes 49.6 seconds.
 File lengths (MBytes):  RWF=     14 Int=      0 D2E=      0 Chk=      3 Scr=      1
 Normal termination of Gaussian 09 at Tue Dec 15 16:21:24 2015.
