 Entering Gaussian System, Link 0=g09
 Input=FuranAM1_98P3.com
 Output=FuranAM1_98P3.log
 Initial command:
 /home/Applications/g09/g09/l1.exe "/home/Applications/g09/scratch/Gau-7417.inp" -scrdir="/home/Applications/g09/scratch/"
 Entering Link 1 = /home/Applications/g09/g09/l1.exe PID=      7419.
  
 Copyright (c) 1988,1990,1992,1993,1995,1998,2003,2009,2013,
            Gaussian, Inc.  All Rights Reserved.
  
 This is part of the Gaussian(R) 09 program.  It is based on
 the Gaussian(R) 03 system (copyright 2003, Gaussian, Inc.),
 the Gaussian(R) 98 system (copyright 1998, Gaussian, Inc.),
 the Gaussian(R) 94 system (copyright 1995, Gaussian, Inc.),
 the Gaussian 92(TM) system (copyright 1992, Gaussian, Inc.),
 the Gaussian 90(TM) system (copyright 1990, Gaussian, Inc.),
 the Gaussian 88(TM) system (copyright 1988, Gaussian, Inc.),
 the Gaussian 86(TM) system (copyright 1986, Carnegie Mellon
 University), and the Gaussian 82(TM) system (copyright 1983,
 Carnegie Mellon University). Gaussian is a federally registered
 trademark of Gaussian, Inc.
  
 This software contains proprietary and confidential information,
 including trade secrets, belonging to Gaussian, Inc.
  
 This software is provided under written license and may be
 used, copied, transmitted, or stored only in accord with that
 written license.
  
 The following legend is applicable only to US Government
 contracts under FAR:
  
                    RESTRICTED RIGHTS LEGEND
  
 Use, reproduction and disclosure by the US Government is
 subject to restrictions as set forth in subparagraphs (a)
 and (c) of the Commercial Computer Software - Restricted
 Rights clause in FAR 52.227-19.
  
 Gaussian, Inc.
 340 Quinnipiac St., Bldg. 40, Wallingford CT 06492
  
  
 ---------------------------------------------------------------
 Warning -- This program may not be used in any manner that
 competes with the business of Gaussian, Inc. or will provide
 assistance to any competitor of Gaussian, Inc.  The licensee
 of this program is prohibited from giving any competitor of
 Gaussian, Inc. access to this program.  By using this program,
 the user acknowledges that Gaussian, Inc. is engaged in the
 business of creating and licensing software in the field of
 computational chemistry and represents and warrants to the
 licensee that it is not a competitor of Gaussian, Inc. and that
 it will not use this program in any manner prohibited above.
 ---------------------------------------------------------------
  

 Cite this work as:
 Gaussian 09, Revision D.01,
 M. J. Frisch, G. W. Trucks, H. B. Schlegel, G. E. Scuseria, 
 M. A. Robb, J. R. Cheeseman, G. Scalmani, V. Barone, B. Mennucci, 
 G. A. Petersson, H. Nakatsuji, M. Caricato, X. Li, H. P. Hratchian, 
 A. F. Izmaylov, J. Bloino, G. Zheng, J. L. Sonnenberg, M. Hada, 
 M. Ehara, K. Toyota, R. Fukuda, J. Hasegawa, M. Ishida, T. Nakajima, 
 Y. Honda, O. Kitao, H. Nakai, T. Vreven, J. A. Montgomery, Jr., 
 J. E. Peralta, F. Ogliaro, M. Bearpark, J. J. Heyd, E. Brothers, 
 K. N. Kudin, V. N. Staroverov, T. Keith, R. Kobayashi, J. Normand, 
 K. Raghavachari, A. Rendell, J. C. Burant, S. S. Iyengar, J. Tomasi, 
 M. Cossi, N. Rega, J. M. Millam, M. Klene, J. E. Knox, J. B. Cross, 
 V. Bakken, C. Adamo, J. Jaramillo, R. Gomperts, R. E. Stratmann, 
 O. Yazyev, A. J. Austin, R. Cammi, C. Pomelli, J. W. Ochterski, 
 R. L. Martin, K. Morokuma, V. G. Zakrzewski, G. A. Voth, 
 P. Salvador, J. J. Dannenberg, S. Dapprich, A. D. Daniels, 
 O. Farkas, J. B. Foresman, J. V. Ortiz, J. Cioslowski, 
 and D. J. Fox, Gaussian, Inc., Wallingford CT, 2013.
 
 ******************************************
 Gaussian 09:  ES64L-G09RevD.01 24-Apr-2013
                15-Dec-2015 
 ******************************************
 ------------------------------------------------------------
 #P AM1(Input,print) CIS(Singlets,NStates=15) pop(full) force
 ------------------------------------------------------------
 1/10=7,30=1,38=1/1,3;
 2/12=2,17=6,18=5,40=1/2;
 3/5=2,16=1,25=1,41=700000,71=1,135=100,136=1/1,2,8,3;
 4/35=1/1;
 5/5=2,35=1,38=5/2;
 8/6=1,10=1,108=15/1;
 9/15=2,41=15,42=1,48=1,49=10/14;
 10/5=4/2;
 6/7=3,18=1/1;
 7/12=6,13=5,29=1/1,2,3,16;
 1/10=7,30=1/3;
 99//99;
 Leave Link    1 at Tue Dec 15 17:05:26 2015, MaxMem=           0 cpu:         0.0
 (Enter /home/Applications/g09/g09/l101.exe)
 -----------------
 AM1-Reparam Input
 -----------------
 Symbolic Z-matrix:
 Charge =  0 Multiplicity = 1
 6                     0.94802  -0.76226  -0.00843 
 6                    -0.29848  -1.12232  -0.02036 
 8                    -1.18424   0.03867  -0.01844 
 6                    -0.30677   1.05783   0.00698 
 6                     0.90955   0.71726   0.0052 
 1                     1.81431   1.35014   0.02627 
 1                    -0.79718   2.00344   0.03406 
 1                    -0.84126  -2.02154   0.02266 
 1                     1.82121  -1.41389  -0.00788 
 
 NAtoms=      9 NQM=        9 NQMF=       0 NMMI=      0 NMMIF=      0
                NMic=       0 NMicF=      0.
                    Isotopes and Nuclear Properties:
 (Nuclear quadrupole moments (NQMom) in fm**2, nuclear magnetic moments (NMagM)
  in nuclear magnetons)

  Atom         1           2           3           4           5           6           7           8           9
 IAtWgt=          12          12          16          12          12           1           1           1           1
 AtmWgt=  12.0000000  12.0000000  15.9949146  12.0000000  12.0000000   1.0078250   1.0078250   1.0078250   1.0078250
 NucSpn=           0           0           0           0           0           1           1           1           1
 AtZEff=   0.0000000   0.0000000   0.0000000   0.0000000   0.0000000   0.0000000   0.0000000   0.0000000   0.0000000
 NQMom=    0.0000000   0.0000000   0.0000000   0.0000000   0.0000000   0.0000000   0.0000000   0.0000000   0.0000000
 NMagM=    0.0000000   0.0000000   0.0000000   0.0000000   0.0000000   2.7928460   2.7928460   2.7928460   2.7928460
 AtZNuc=   6.0000000   6.0000000   8.0000000   6.0000000   6.0000000   1.0000000   1.0000000   1.0000000   1.0000000
 Leave Link  101 at Tue Dec 15 17:05:26 2015, MaxMem=    33554432 cpu:         0.0
 (Enter /home/Applications/g09/g09/l103.exe)

 GradGradGradGradGradGradGradGradGradGradGradGradGradGradGradGradGradGrad
 Berny optimization.
 Initialization pass.
 Trust Radius=3.00D-01 FncErr=1.00D-07 GrdErr=1.00D-07
 Number of steps in this run=      2 maximum allowed number of steps=      2.
 GradGradGradGradGradGradGradGradGradGradGradGradGradGradGradGradGradGrad

 Leave Link  103 at Tue Dec 15 17:05:26 2015, MaxMem=    33554432 cpu:         0.0
 (Enter /home/Applications/g09/g09/l202.exe)
                          Input orientation:                          
 ---------------------------------------------------------------------
 Center     Atomic      Atomic             Coordinates (Angstroms)
 Number     Number       Type             X           Y           Z
 ---------------------------------------------------------------------
      1          6           0        0.948024   -0.762256   -0.008425
      2          6           0       -0.298484   -1.122318   -0.020363
      3          8           0       -1.184238    0.038666   -0.018436
      4          6           0       -0.306770    1.057828    0.006984
      5          6           0        0.909545    0.717256    0.005202
      6          1           0        1.814305    1.350142    0.026272
      7          1           0       -0.797179    2.003436    0.034060
      8          1           0       -0.841257   -2.021536    0.022662
      9          1           0        1.821206   -1.413887   -0.007877
 ---------------------------------------------------------------------
                    Distance matrix (angstroms):
                    1          2          3          4          5
     1  C    0.000000
     2  C    1.297524   0.000000
     3  O    2.277744   1.460290   0.000000
     4  C    2.210758   2.180333   1.345098   0.000000
     5  C    1.480075   2.200913   2.201129   1.263097   0.000000
     6  H    2.283390   3.252554   3.273107   2.141210   1.104346
     7  H    3.270564   3.165754   2.003220   1.065556   2.137288
     8  H    2.188214   1.051212   2.088961   3.125445   3.250630
     9  H    1.089527   2.139686   3.338071   3.261576   2.317988
                    6          7          8          9
     6  H    0.000000
     7  H    2.691970   0.000000
     8  H    4.291880   4.025229   0.000000
     9  H    2.764249   4.305322   2.731095   0.000000
 Stoichiometry    C4H4O
 Framework group  C1[X(C4H4O)]
 Deg. of freedom    21
 Full point group                 C1      NOp   1
 Largest Abelian subgroup         C1      NOp   1
 Largest concise Abelian subgroup C1      NOp   1
                         Standard orientation:                         
 ---------------------------------------------------------------------
 Center     Atomic      Atomic             Coordinates (Angstroms)
 Number     Number       Type             X           Y           Z
 ---------------------------------------------------------------------
      1          6           0        0.998752    0.679922   -0.001949
      2          6           0        0.970490   -0.617294   -0.003461
      3          8           0       -0.401906   -1.116253   -0.007436
      4          6           0       -1.112923    0.025511    0.003450
      5          6           0       -0.424883    1.084749   -0.002005
      6          1           0       -0.759060    2.137273    0.008006
      7          1           0       -2.161964   -0.160181    0.024412
      8          1           0        1.666415   -1.403271    0.051075
      9          1           0        1.881249    1.318878   -0.000214
 ---------------------------------------------------------------------
 Rotational constants (GHZ):      9.7160620      9.1846419      4.7218275
 Leave Link  202 at Tue Dec 15 17:05:27 2015, MaxMem=    33554432 cpu:         0.0
 (Enter /home/Applications/g09/g09/l301.exe)

 Semi-emprical parameters in input format:
 Method=8 CoreType=1 PeptideFC=0.0111590000 RIJScale=0.5404210000
 ****
 H       
 PQN=1 NValence=1 F0ss=0.4721550000 ZetaOverlap=1.0536670000 U=-0.4275610000
 Beta=-0.2066220000 CoreKO=1.1349760000 KON=0,0,0,1.0458670000 KON=1,0,1,0.9802520000
 KON=0,1,1,1.0589200000 KON=2,1,1,1.0697690000 EISol=-0.4188110042 EHeat=0.0830298228
 Alpha=1.4609850000
 GCore=0.0085280000,1.5127750000,2.2676710000
 GCore=0.0003530000,1.4551640000,3.7646750000
 GCore=-0.0013010000,0.5600570000,3.5861320000
 ****
 C       
 PQN=2,2 NValence=4 F0ss=0.4494440000 F0sp=0.4215150000 F0pp=0.3497590000 F2pp=0.1884750000
 G1sp=0.2849530000
 ZetaOverlap=1.8086650000,1.3781170000
 U=-1.7687090000,-1.4557970000
 Beta=-0.5245770000,-0.3063130000 DDN=0,1,0.7474020000 DDN=1,1,0.7268010000
 CoreKO=1.1356210000 KON=0,0,0,1.1124280000 KON=1,0,1,0.8998210000 KON=0,1,1,1.1012040000
 KON=2,1,1,0.7326770000 EISol=-4.4398989268 EHeat=0.2723305520 Alpha=1.2756240000
 DipHyp=1.4947180026
 GCore=0.0007890000,1.4001430000,2.6678360000
 GCore=0.0031120000,1.4001430000,3.3881500000
 GCore=-0.0015090000,1.3017660000,3.8739390000
 GCore=-0.0001030000,1.4001430000,4.6744780000
 ****
 O       
 PQN=2,2 NValence=6 F0ss=0.5596260000 F0sp=0.5321300000 F0pp=0.4937580000 F2pp=0.2543430000
 G1sp=0.4216980000
 ZetaOverlap=2.4973370000,2.4967270000
 U=-3.3169990000,-1.8948010000
 Beta=-1.1573400000,-1.2994290000 DDN=0,1,0.4953610000 DDN=1,1,0.5082060000
 CoreKO=0.8822960000 KON=0,0,0,0.8822960000 KON=1,0,1,0.5019540000 KON=0,1,1,0.8682050000
 KON=2,1,1,0.5515580000 EISol=-11.6164441184 EHeat=0.0949133088 Alpha=2.4031680000
 DipHyp=0.9906650029
 GCore=0.0204720000,1.2640290000,1.6023330000
 GCore=0.0056550000,1.9602000000,2.7307880000
 ****
 
 Standard basis: VSTO-6G (5D, 7F)
 Ernie: Thresh=  0.10000D-02 Tol=  0.10000D-05 Strict=F.
  NNHCO=     0 NNPyr=     0 NCTC=     0               EPep=         0.000000000
    EC=        68.364822524  ECS=         2.513592002   EG=         0.354354027
   EHC=         0.000000000  EAt=       -31.051283842  AtH=         1.516354808
 EPDDG=         0.000000000  ECC=        71.232768554 EAtT=        32.567638650
 There are    24 symmetry adapted cartesian basis functions of A   symmetry.
 There are    24 symmetry adapted basis functions of A   symmetry.
    24 basis functions,   144 primitive gaussians,    24 cartesian basis functions
    13 alpha electrons       13 beta electrons
       nuclear repulsion energy       103.8004072045 Hartrees.
 IExCor=    0 DFT=F Ex=HF Corr=None ExCW=0 ScaHFX=  1.000000
 ScaDFX=  1.000000  1.000000  1.000000  1.000000 ScalE2=  1.000000  1.000000
 IRadAn=      0 IRanWt=     -1 IRanGd=            0 ICorTp=0 IEmpDi=  4
 Integral buffers will be    131072 words long.
 Regular integral format.
 Two-electron integral symmetry is turned off.
 Leave Link  301 at Tue Dec 15 17:05:27 2015, MaxMem=    33554432 cpu:         0.0
 (Enter /home/Applications/g09/g09/l302.exe)
 Do NDO integrals.
 NPDir=0 NMtPBC=     1 NCelOv=     1 NCel=       1 NClECP=     1 NCelD=      1
         NCelK=      1 NCelE2=     1 NClLst=     1 CellRange=     0.0.
 One-electron integrals computed using PRISM.
 NBasis=    24 RedAO= F EigKep=  0.00D+00  NBF=    24
 NBsUse=    24 1.00D-04 EigRej=  0.00D+00 NBFU=    24
 Leave Link  302 at Tue Dec 15 17:05:27 2015, MaxMem=    33554432 cpu:         0.0
 (Enter /home/Applications/g09/g09/l308.exe)
 Leave Link  308 at Tue Dec 15 17:05:27 2015, MaxMem=    33554432 cpu:         0.0
 (Enter /home/Applications/g09/g09/l303.exe)
 DipDrv:  MaxL=1.
 Leave Link  303 at Tue Dec 15 17:05:27 2015, MaxMem=    33554432 cpu:         0.0
 (Enter /home/Applications/g09/g09/l401.exe)
 Simple Huckel Guess.
 JPrj=0 DoOrth=F DoCkMO=F.
 Leave Link  401 at Tue Dec 15 17:05:27 2015, MaxMem=    33554432 cpu:         0.0
 (Enter /home/Applications/g09/g09/l502.exe)
 Closed shell SCF:
 Using DIIS extrapolation, IDIIS=  1040.
 Overlap will be assumed to be unity.
 Two-electron integral symmetry not used.
 Keep J ints in memory in canonical form, NReq=888082.
 IVT=       79475 IEndB=       79475 NGot=    33554432 MDV=    33473473
 LenX=    33473473 LenY=    33472456
 Requested convergence on RMS density matrix=1.00D-08 within 128 cycles.
 Requested convergence on MAX density matrix=1.00D-06.
 Requested convergence on             energy=1.00D-06.
 No special actions if energy rises.
 FoFCou: FMM=F IPFlag=           0 FMFlag=           0 FMFlg1=           0
         NFxFlg=           0 DoJE=F BraDBF=F KetDBF=F FulRan=T
         wScrn=  0.000000 ICntrl=     600 IOpCl=  2 I1Cent=           0 NGrid=           0
         NMat0=    1 NMatS0=     54 NMatT0=    0 NMatD0=    1 NMtDS0=    0 NMtDT0=    0
 Symmetry not used in FoFCou.

 Cycle   1  Pass 1  IDiag  1:
 E=  5.50848283678992    
 DIIS: error= 1.79D-01 at cycle   1 NSaved=   1.
 NSaved= 1 IEnMin= 1 EnMin=  5.50848283678992     IErMin= 1 ErrMin= 1.79D-01
 ErrMax= 1.79D-01  0.00D+00 EMaxC= 1.00D-01 BMatC= 5.67D-01 BMatP= 5.67D-01
 IDIUse=3 WtCom= 0.00D+00 WtEn= 1.00D+00
 Coeff-Com:  0.100D+01
 Coeff-En:   0.100D+01
 Coeff:      0.100D+01
 GapD=    2.000 DampG=2.000 DampE=0.250 DampFc=0.5000 IDamp=-1.
 Damping current iteration by 5.00D-01
 RMSDP=7.05D-02 MaxDP=7.93D-01              OVMax= 0.00D+00

 Cycle   2  Pass 1  IDiag  1:
 E=  4.29202885945149     Delta-E=       -1.216453977338 Rises=F Damp=T
 DIIS: error= 9.35D-02 at cycle   2 NSaved=   2.
 NSaved= 2 IEnMin= 2 EnMin=  4.29202885945149     IErMin= 2 ErrMin= 9.35D-02
 ErrMax= 9.35D-02  0.00D+00 EMaxC= 1.00D-01 BMatC= 1.74D-01 BMatP= 5.67D-01
 IDIUse=3 WtCom= 6.54D-02 WtEn= 9.35D-01
 Coeff-Com: -0.100D+01 0.200D+01
 Coeff-En:   0.000D+00 0.100D+01
 Coeff:     -0.655D-01 0.107D+01
 RMSDP=3.79D-02 MaxDP=3.96D-01 DE=-1.22D+00 OVMax= 0.00D+00

 Cycle   3  Pass 1  IDiag  1:
 E=  2.86520392455934     Delta-E=       -1.426824934892 Rises=F Damp=F
 DIIS: error= 1.93D-02 at cycle   3 NSaved=   3.
 NSaved= 3 IEnMin= 3 EnMin=  2.86520392455934     IErMin= 3 ErrMin= 1.93D-02
 ErrMax= 1.93D-02  0.00D+00 EMaxC= 1.00D-01 BMatC= 1.45D-02 BMatP= 1.74D-01
 IDIUse=3 WtCom= 8.07D-01 WtEn= 1.93D-01
 Coeff-Com:  0.310D+00-0.712D+00 0.140D+01
 Coeff-En:   0.000D+00 0.000D+00 0.100D+01
 Coeff:      0.251D+00-0.575D+00 0.132D+01
 RMSDP=1.11D-02 MaxDP=5.84D-02 DE=-1.43D+00 OVMax= 0.00D+00

 Cycle   4  Pass 1  IDiag  3:
 E=  2.81007433796160     Delta-E=       -0.055129586598 Rises=F Damp=F
 DIIS: error= 4.97D-03 at cycle   4 NSaved=   4.
 NSaved= 4 IEnMin= 4 EnMin=  2.81007433796160     IErMin= 4 ErrMin= 4.97D-03
 ErrMax= 4.97D-03  0.00D+00 EMaxC= 1.00D-01 BMatC= 1.22D-03 BMatP= 1.45D-02
 IDIUse=3 WtCom= 9.50D-01 WtEn= 4.97D-02
 Coeff-Com: -0.403D-01 0.649D-01-0.332D+00 0.131D+01
 Coeff-En:   0.000D+00 0.000D+00 0.000D+00 0.100D+01
 Coeff:     -0.383D-01 0.617D-01-0.315D+00 0.129D+01
 Gap=     0.380 Goal=   None    Shift=    0.000
 RMSDP=4.05D-03 MaxDP=2.25D-02 DE=-5.51D-02 OVMax= 4.52D-02

 Cycle   5  Pass 1  IDiag  3:
 E=  2.80454249853607     Delta-E=       -0.005531839426 Rises=F Damp=F
 DIIS: error= 1.63D-03 at cycle   5 NSaved=   5.
 NSaved= 5 IEnMin= 5 EnMin=  2.80454249853607     IErMin= 5 ErrMin= 1.63D-03
 ErrMax= 1.63D-03  0.00D+00 EMaxC= 1.00D-01 BMatC= 7.35D-05 BMatP= 1.22D-03
 IDIUse=3 WtCom= 9.84D-01 WtEn= 1.63D-02
 Coeff-Com:  0.136D-01-0.211D-01 0.125D+00-0.655D+00 0.154D+01
 Coeff-En:   0.000D+00 0.000D+00 0.000D+00 0.000D+00 0.100D+01
 Coeff:      0.134D-01-0.208D-01 0.123D+00-0.644D+00 0.153D+01
 Gap=     0.379 Goal=   None    Shift=    0.000
 RMSDP=1.22D-03 MaxDP=6.99D-03 DE=-5.53D-03 OVMax= 1.02D-02

 Cycle   6  Pass 1  IDiag  3:
 E=  2.80415069072618     Delta-E=       -0.000391807810 Rises=F Damp=F
 DIIS: error= 3.14D-04 at cycle   6 NSaved=   6.
 NSaved= 6 IEnMin= 6 EnMin=  2.80415069072618     IErMin= 6 ErrMin= 3.14D-04
 ErrMax= 3.14D-04  0.00D+00 EMaxC= 1.00D-01 BMatC= 2.73D-06 BMatP= 7.35D-05
 IDIUse=3 WtCom= 9.97D-01 WtEn= 3.14D-03
 Coeff-Com: -0.155D-02 0.272D-02-0.362D-01 0.206D+00-0.621D+00 0.145D+01
 Coeff-En:   0.000D+00 0.000D+00 0.000D+00 0.000D+00 0.000D+00 0.100D+01
 Coeff:     -0.154D-02 0.271D-02-0.360D-01 0.205D+00-0.619D+00 0.145D+01
 Gap=     0.380 Goal=   None    Shift=    0.000
 RMSDP=2.32D-04 MaxDP=1.54D-03 DE=-3.92D-04 OVMax= 1.49D-03

 Cycle   7  Pass 1  IDiag  3:
 E=  2.80413717299011     Delta-E=       -0.000013517736 Rises=F Damp=F
 DIIS: error= 4.22D-05 at cycle   7 NSaved=   7.
 NSaved= 7 IEnMin= 7 EnMin=  2.80413717299011     IErMin= 7 ErrMin= 4.22D-05
 ErrMax= 4.22D-05  0.00D+00 EMaxC= 1.00D-01 BMatC= 7.59D-08 BMatP= 2.73D-06
 IDIUse=1 WtCom= 1.00D+00 WtEn= 0.00D+00
 Coeff-Com:  0.253D-03-0.416D-03 0.120D-01-0.726D-01 0.229D+00-0.610D+00
 Coeff-Com:  0.144D+01
 Coeff:      0.253D-03-0.416D-03 0.120D-01-0.726D-01 0.229D+00-0.610D+00
 Coeff:      0.144D+01
 Gap=     0.380 Goal=   None    Shift=    0.000
 RMSDP=3.37D-05 MaxDP=2.23D-04 DE=-1.35D-05 OVMax= 2.54D-04

 Cycle   8  Pass 1  IDiag  3:
 E=  2.80413683816455     Delta-E=       -0.000000334826 Rises=F Damp=F
 DIIS: error= 6.35D-06 at cycle   8 NSaved=   8.
 NSaved= 8 IEnMin= 8 EnMin=  2.80413683816455     IErMin= 8 ErrMin= 6.35D-06
 ErrMax= 6.35D-06  0.00D+00 EMaxC= 1.00D-01 BMatC= 2.10D-09 BMatP= 7.59D-08
 IDIUse=1 WtCom= 1.00D+00 WtEn= 0.00D+00
 Coeff-Com: -0.958D-05-0.288D-04-0.231D-02 0.160D-01-0.547D-01 0.153D+00
 Coeff-Com: -0.459D+00 0.135D+01
 Coeff:     -0.958D-05-0.288D-04-0.231D-02 0.160D-01-0.547D-01 0.153D+00
 Coeff:     -0.459D+00 0.135D+01
 Gap=     0.380 Goal=   None    Shift=    0.000
 RMSDP=6.07D-06 MaxDP=3.64D-05 DE=-3.35D-07 OVMax= 4.53D-05

 Cycle   9  Pass 1  IDiag  3:
 E=  2.80413682831235     Delta-E=       -0.000000009852 Rises=F Damp=F
 DIIS: error= 1.11D-06 at cycle   9 NSaved=   9.
 NSaved= 9 IEnMin= 9 EnMin=  2.80413682831235     IErMin= 9 ErrMin= 1.11D-06
 ErrMax= 1.11D-06  0.00D+00 EMaxC= 1.00D-01 BMatC= 6.73D-11 BMatP= 2.10D-09
 IDIUse=1 WtCom= 1.00D+00 WtEn= 0.00D+00
 Coeff-Com:  0.283D-05 0.315D-05 0.187D-03-0.158D-02 0.609D-02-0.176D-01
 Coeff-Com:  0.631D-01-0.310D+00 0.126D+01
 Coeff:      0.283D-05 0.315D-05 0.187D-03-0.158D-02 0.609D-02-0.176D-01
 Coeff:      0.631D-01-0.310D+00 0.126D+01
 Gap=     0.380 Goal=   None    Shift=    0.000
 RMSDP=1.23D-06 MaxDP=6.40D-06 DE=-9.85D-09 OVMax= 1.45D-05

 Cycle  10  Pass 1  IDiag  3:
 E=  2.80413682789997     Delta-E=       -0.000000000412 Rises=F Damp=F
 DIIS: error= 4.83D-07 at cycle  10 NSaved=  10.
 NSaved=10 IEnMin=10 EnMin=  2.80413682789997     IErMin=10 ErrMin= 4.83D-07
 ErrMax= 4.83D-07  0.00D+00 EMaxC= 1.00D-01 BMatC= 6.88D-12 BMatP= 6.73D-11
 IDIUse=1 WtCom= 1.00D+00 WtEn= 0.00D+00
 Coeff-Com:  0.778D-06-0.399D-05-0.505D-04 0.494D-03-0.203D-02 0.580D-02
 Coeff-Com: -0.225D-01 0.125D+00-0.716D+00 0.161D+01
 Coeff:      0.778D-06-0.399D-05-0.505D-04 0.494D-03-0.203D-02 0.580D-02
 Coeff:     -0.225D-01 0.125D+00-0.716D+00 0.161D+01
 Gap=     0.380 Goal=   None    Shift=    0.000
 RMSDP=5.57D-07 MaxDP=3.33D-06 DE=-4.12D-10 OVMax= 7.28D-06

 Cycle  11  Pass 1  IDiag  3:
 E=  2.80413682784371     Delta-E=       -0.000000000056 Rises=F Damp=F
 DIIS: error= 1.12D-07 at cycle  11 NSaved=  11.
 NSaved=11 IEnMin=11 EnMin=  2.80413682784371     IErMin=11 ErrMin= 1.12D-07
 ErrMax= 1.12D-07  0.00D+00 EMaxC= 1.00D-01 BMatC= 3.86D-13 BMatP= 6.88D-12
 IDIUse=1 WtCom= 1.00D+00 WtEn= 0.00D+00
 Coeff-Com: -0.631D-06 0.152D-05 0.821D-05-0.100D-03 0.448D-03-0.125D-02
 Coeff-Com:  0.563D-02-0.375D-01 0.251D+00-0.750D+00 0.153D+01
 Coeff:     -0.631D-06 0.152D-05 0.821D-05-0.100D-03 0.448D-03-0.125D-02
 Coeff:      0.563D-02-0.375D-01 0.251D+00-0.750D+00 0.153D+01
 Gap=     0.380 Goal=   None    Shift=    0.000
 RMSDP=1.42D-07 MaxDP=8.81D-07 DE=-5.63D-11 OVMax= 1.91D-06

 Cycle  12  Pass 1  IDiag  3:
 E=  2.80413682784061     Delta-E=       -0.000000000003 Rises=F Damp=F
 DIIS: error= 1.84D-08 at cycle  12 NSaved=  12.
 NSaved=12 IEnMin=12 EnMin=  2.80413682784061     IErMin=12 ErrMin= 1.84D-08
 ErrMax= 1.84D-08  0.00D+00 EMaxC= 1.00D-01 BMatC= 1.61D-14 BMatP= 3.86D-13
 IDIUse=1 WtCom= 1.00D+00 WtEn= 0.00D+00
 Coeff-Com:  0.769D-07-0.145D-06 0.605D-06 0.603D-05-0.475D-04 0.116D-03
 Coeff-Com: -0.973D-03 0.966D-02-0.755D-01 0.250D+00-0.659D+00 0.148D+01
 Coeff:      0.769D-07-0.145D-06 0.605D-06 0.603D-05-0.475D-04 0.116D-03
 Coeff:     -0.973D-03 0.966D-02-0.755D-01 0.250D+00-0.659D+00 0.148D+01
 Gap=     0.380 Goal=   None    Shift=    0.000
 RMSDP=2.36D-08 MaxDP=1.19D-07 DE=-3.10D-12 OVMax= 2.70D-07

 Cycle  13  Pass 1  IDiag  3:
 E=  2.80413682784045     Delta-E=        0.000000000000 Rises=F Damp=F
 DIIS: error= 3.28D-09 at cycle  13 NSaved=  13.
 NSaved=13 IEnMin=13 EnMin=  2.80413682784045     IErMin=13 ErrMin= 3.28D-09
 ErrMax= 3.28D-09  0.00D+00 EMaxC= 1.00D-01 BMatC= 6.23D-16 BMatP= 1.61D-14
 IDIUse=1 WtCom= 1.00D+00 WtEn= 0.00D+00
 Coeff-Com: -0.266D-08 0.106D-07 0.200D-06-0.441D-05 0.233D-04-0.573D-04
 Coeff-Com:  0.381D-03-0.347D-02 0.264D-01-0.873D-01 0.237D+00-0.641D+00
 Coeff-Com:  0.147D+01
 Coeff:     -0.266D-08 0.106D-07 0.200D-06-0.441D-05 0.233D-04-0.573D-04
 Coeff:      0.381D-03-0.347D-02 0.264D-01-0.873D-01 0.237D+00-0.641D+00
 Coeff:      0.147D+01
 Gap=     0.380 Goal=   None    Shift=    0.000
 RMSDP=4.24D-09 MaxDP=2.12D-08 DE=-1.56D-13 OVMax= 3.05D-08

 Cycle  14  Pass 2  IDiag  1:
 SCF Done:  E(RAM1) =   2.80413682784     A.U. after   14 cycles
            NFock= 13  Conv=0.42D-08     -V/T= 1.1884
 KE=-1.488639169460D+01 PE=-1.688527379048D+02 EE= 8.274285922275D+01
 Leave Link  502 at Tue Dec 15 17:05:27 2015, MaxMem=    33554432 cpu:         0.0
 (Enter /home/Applications/g09/g09/l801.exe)
 Range of M.O.s used for correlation:     1    24
 NBasis=    24 NAE=    13 NBE=    13 NFC=     0 NFV=     0
 NROrb=     24 NOA=    13 NOB=    13 NVA=    11 NVB=    11
 Leave Link  801 at Tue Dec 15 17:05:27 2015, MaxMem=    33554432 cpu:         0.0
 (Enter /home/Applications/g09/g09/l914.exe)
 RHF ground state
 MDV=    33554432 DFT=F DoStab=F Mixed=F DoRPA=F DoScal=F NonHer=F
 Making orbital integer symmetry assigments:
 Orbital symmetries:
       Occupied  (A) (A) (A) (A) (A) (A) (A) (A) (A) (A) (A) (A)
                 (A)
       Virtual   (A) (A) (A) (A) (A) (A) (A) (A) (A) (A) (A)
    60 initial guesses have been made.
 Convergence on wavefunction:    0.000001000000000
 Davidson Disk Diagonalization:  ConvIn= 1.00D-06 SkipCon=T Conv= 1.00D-06.
 Max sub-space:   240 roots to seek:    60 dimension of matrix:          286
 Iteration     1 Dimension    60 NMult     0 NNew     60
 CISAX will form    60 AO SS matrices at one time.
 NMat=    60 NSing=    60 JSym2X= 0.
 FoFJK:  IHMeth= 8 ICntrl=       0 DoSepK=F KAlg= 0 I1Cent=   0 FoldK=F
 IRaf=         1 NMat= 120 IRICut=       1 DoRegI=T DoRafI=F ISym2E= 0.
 FoFCou: FMM=F IPFlag=           0 FMFlag=      100000 FMFlg1=           0
         NFxFlg=           0 DoJE=F BraDBF=F KetDBF=F FulRan=T
         wScrn=  0.000000 ICntrl=       0 IOpCl=  0 I1Cent=           0 NGrid=           0
         NMat0=  120 NMatS0=     60 NMatT0=    0 NMatD0=  120 NMtDS0=    0 NMtDT0=    0
 Symmetry not used in FoFCou.
 New state      1 was old state      2
 New state      2 was old state      1
 New state      7 was old state      8
 New state      8 was old state      9
 New state      9 was old state      7
 New state     10 was old state     14
 New state     11 was old state     10
 New state     12 was old state     11
 New state     13 was old state     12
 New state     14 was old state     15
 New state     15 was old state     21
 Excitation Energies [eV] at current iteration:
 Root      1 :     4.893377478551301
 Root      2 :     4.978510125412464
 Root      3 :     5.822287557586933
 Root      4 :     6.564020883241975
 Root      5 :     7.110639386750615
 Root      6 :     7.211903835453797
 Root      7 :     7.973885773397475
 Root      8 :     8.069569482767097
 Root      9 :     8.386074270926075
 Root     10 :     8.668298683968139
 Root     11 :     8.887337803475338
 Root     12 :     9.108358413757994
 Root     13 :     9.359851846974530
 Root     14 :     9.582806975443228
 Root     15 :     9.630796256826549
 Root     16 :    10.006710170412800
 Root     17 :    10.227579582092210
 Root     18 :    10.379597966407900
 Root     19 :    10.471514765452320
 Root     20 :    10.718386614003740
 Root     21 :    10.911505619246210
 Root     22 :    11.105045158160350
 Root     23 :    11.327650513041450
 Root     24 :    11.417049952001630
 Root     25 :    11.514605541211140
 Root     26 :    12.113449214068860
 Root     27 :    12.272296758221010
 Root     28 :    12.477313487653910
 Root     29 :    12.540553331593390
 Root     30 :    12.623987779463580
 Root     31 :    12.678893630701240
 Root     32 :    12.852999536837710
 Root     33 :    12.931219743211920
 Root     34 :    13.062791877114730
 Root     35 :    13.195587160211400
 Root     36 :    13.201688429134960
 Root     37 :    13.333650064549740
 Root     38 :    14.208096346359450
 Root     39 :    14.349301781544290
 Root     40 :    14.471017205467050
 Root     41 :    14.487149441849530
 Root     42 :    14.557075533288360
 Root     43 :    14.732938481203830
 Root     44 :    15.151325471129610
 Root     45 :    15.176883209041620
 Root     46 :    15.198414676314180
 Root     47 :    15.442819434759030
 Root     48 :    15.500141404972110
 Root     49 :    15.616847007552170
 Root     50 :    15.720529250269230
 Root     51 :    15.835564044997190
 Root     52 :    15.947563720718040
 Root     53 :    16.160045028409900
 Root     54 :    16.611797309226220
 Root     55 :    16.621664427604940
 Root     56 :    16.998731410603740
 Root     57 :    17.016327524748000
 Root     58 :    17.175465402067710
 Root     59 :    17.819887715843450
 Root     60 :    17.912165764545120
 Iteration     2 Dimension   120 NMult    60 NNew     60
 CISAX will form    60 AO SS matrices at one time.
 NMat=    60 NSing=    60 JSym2X= 0.
 Root      1 not converged, maximum delta is    0.174078972983396
 Root      2 not converged, maximum delta is    0.171712287629691
 Root      3 not converged, maximum delta is    0.016604035166001
 Root      4 not converged, maximum delta is    0.033391542754441
 Root      5 not converged, maximum delta is    0.026644164478648
 Root      6 not converged, maximum delta is    0.024737051088343
 Root      7 not converged, maximum delta is    0.053009008790459
 Root      8 not converged, maximum delta is    0.051867797641445
 Root      9 not converged, maximum delta is    0.033997663439332
 Root     10 not converged, maximum delta is    0.019863882331782
 Root     11 not converged, maximum delta is    0.074375867009628
 Root     12 not converged, maximum delta is    0.024512375492374
 Root     13 not converged, maximum delta is    0.239613304911873
 New state     14 was old state     15
 Root     14 not converged, maximum delta is    0.129794634260938
 New state     15 was old state     14
 Root     15 not converged, maximum delta is    0.017446464513470
 Excitation Energies [eV] at current iteration:
 Root      1 :     4.878267776791867   Change is   -0.015109701759434
 Root      2 :     4.914651147487416   Change is   -0.063858977925048
 Root      3 :     5.804197718742601   Change is   -0.018089838844332
 Root      4 :     6.527621370931249   Change is   -0.036399512310726
 Root      5 :     7.077621981826852   Change is   -0.033017404923763
 Root      6 :     7.174217022252958   Change is   -0.037686813200839
 Root      7 :     7.937818177768725   Change is   -0.036067595628750
 Root      8 :     8.050281467911308   Change is   -0.019288014855789
 Root      9 :     8.292254793456083   Change is   -0.093819477469994
 Root     10 :     8.644052361181036   Change is   -0.024246322787104
 Root     11 :     8.785226194712736   Change is   -0.102111608762601
 Root     12 :     9.074136626986391   Change is   -0.034221786771604
 Root     13 :     9.189271335635127   Change is   -0.170580511339404
 Root     14 :     9.461171307104674   Change is   -0.169624949721875
 Root     15 :     9.568662856447453   Change is   -0.014144118995774
 Root     16 :     9.772138897037371   Change is   -0.234571273375433
 Root     17 :    10.147718902434280   Change is   -0.231879063973614
 Root     18 :    10.208255904396990   Change is   -0.019323677695229
 Root     19 :    10.391437573960900   Change is   -0.080077191491427
 Root     20 :    10.515190181452040   Change is   -0.203196432551700
 Root     21 :    10.660037085864790   Change is   -0.251468533381416
 Root     22 :    10.928402297425100   Change is   -0.176642860735252
 Root     23 :    11.096075222165700   Change is   -0.231575290875755
 Root     24 :    11.380310598574950   Change is   -0.036739353426675
 Root     25 :    11.401713569541160   Change is   -0.112891971669979
 Root     26 :    11.929337331386680   Change is   -0.184111882682184
 Root     27 :    12.143154846462080   Change is   -0.129141911758929
 Root     28 :    12.296530841731020   Change is   -0.180782645922888
 Root     29 :    12.395881652017260   Change is   -0.283011978683984
 Root     30 :    12.424757210768290   Change is   -0.199230568695294
 Root     31 :    12.468921770495380   Change is   -0.071631561098014
 Root     32 :    12.656149417275140   Change is   -0.196850119562573
 Root     33 :    12.806117108353970   Change is   -0.125102634857953
 Root     34 :    12.960052313614420   Change is   -0.102739563500301
 Root     35 :    12.977803984376350   Change is   -0.223884444758611
 Root     36 :    13.065276575962710   Change is   -0.268373488587033
 Root     37 :    13.068228242728970   Change is   -0.127358917482437
 Root     38 :    14.018180272140350   Change is   -0.189916074219097
 Root     39 :    14.237683035845940   Change is   -0.111618745698350
 Root     40 :    14.362977699449540   Change is   -0.108039506017512
 Root     41 :    14.411572242167950   Change is   -0.145503291120408
 Root     42 :    14.451224855083390   Change is   -0.035924586766141
 Root     43 :    14.576862482186920   Change is   -0.156075999016914
 Root     44 :    14.973232602654910   Change is   -0.178092868474704
 Root     45 :    15.020431088147730   Change is   -0.177983588166449
 Root     46 :    15.139463920804150   Change is   -0.037419288237470
 Root     47 :    15.277925530968030   Change is   -0.442603719301201
 Root     48 :    15.328016396226570   Change is   -0.114803038532455
 Root     49 :    15.431114966488900   Change is   -0.069026438483215
 Root     50 :    15.513105248053640   Change is   -0.103741759498523
 Root     51 :    15.618877225793890   Change is   -0.216686819203294
 Root     52 :    15.748309963316480   Change is   -0.199253757401557
 Root     53 :    15.984630581797180   Change is   -0.175414446612723
 Root     54 :    16.386115950147680   Change is   -0.225681359078543
 Root     55 :    16.568772864977160   Change is   -0.052891562627777
 Root     56 :    16.865359129081580   Change is   -0.133372281522158
 Root     57 :    16.900808536727510   Change is   -0.115518988020492
 Root     58 :    17.030087691692610   Change is   -0.145377710375107
 Root     59 :    17.516468377936010   Change is   -0.303419337907440
 Root     60 :    17.670061956861680   Change is   -0.242103807683440
 Iteration     3 Dimension   135 NMult   120 NNew     15
 CISAX will form    15 AO SS matrices at one time.
 NMat=    15 NSing=    15 JSym2X= 0.
 Root      1 not converged, maximum delta is    0.002017701747069
 Root      2 not converged, maximum delta is    0.002001238431243
 Root      3 not converged, maximum delta is    0.000035813855954
 Root      4 not converged, maximum delta is    0.000040540071061
 Root      5 not converged, maximum delta is    0.000034040716250
 Root      6 not converged, maximum delta is    0.000040648235837
 Root      7 not converged, maximum delta is    0.000039449846695
 Root      8 not converged, maximum delta is    0.000026316191424
 Root      9 not converged, maximum delta is    0.001588115485871
 Root     10 not converged, maximum delta is    0.000037334290763
 Root     11 not converged, maximum delta is    0.001271692820257
 Root     12 not converged, maximum delta is    0.000165028159277
 Root     13 not converged, maximum delta is    0.002425527187181
 Root     14 not converged, maximum delta is    0.001593223079508
 Root     15 not converged, maximum delta is    0.000132014066750
 Excitation Energies [eV] at current iteration:
 Root      1 :     4.878215141234312   Change is   -0.000052635557556
 Root      2 :     4.914388501747963   Change is   -0.000262645739453
 Root      3 :     5.804197356903997   Change is   -0.000000361838603
 Root      4 :     6.527621104115186   Change is   -0.000000266816064
 Root      5 :     7.077621639844272   Change is   -0.000000341982581
 Root      6 :     7.174216673541975   Change is   -0.000000348710983
 Root      7 :     7.937817824015141   Change is   -0.000000353753584
 Root      8 :     8.050281092617722   Change is   -0.000000375293587
 Root      9 :     8.291601799623351   Change is   -0.000652993832732
 Root     10 :     8.644051754900440   Change is   -0.000000606280595
 Root     11 :     8.784734601937609   Change is   -0.000491592775127
 Root     12 :     9.074131484635609   Change is   -0.000005142350782
 Root     13 :     9.188409236236756   Change is   -0.000862099398369
 Root     14 :     9.460613689317482   Change is   -0.000557617787193
 Root     15 :     9.568657401421749   Change is   -0.000005455025705
 Iteration     4 Dimension   143 NMult   135 NNew      8
 CISAX will form     8 AO SS matrices at one time.
 NMat=     8 NSing=     8 JSym2X= 0.
 Root      1 not converged, maximum delta is    0.000020972184108
 Root      2 not converged, maximum delta is    0.000046888405194
 Root      3 not converged, maximum delta is    0.000001662320857
 Root      4 not converged, maximum delta is    0.000001836299704
 Root      5 not converged, maximum delta is    0.000001257807178
 Root      6 has converged.
 Root      7 not converged, maximum delta is    0.000002776703818
 Root      8 not converged, maximum delta is    0.000001603400416
 Root      9 not converged, maximum delta is    0.000064107982148
 Root     10 not converged, maximum delta is    0.000001751363699
 Root     11 not converged, maximum delta is    0.000052967063515
 Root     12 not converged, maximum delta is    0.000005955347143
 Root     13 not converged, maximum delta is    0.000074369620801
 Root     14 not converged, maximum delta is    0.000050618350642
 Root     15 not converged, maximum delta is    0.000005198874500
 Excitation Energies [eV] at current iteration:
 Root      1 :     4.878214971752155   Change is   -0.000000169482157
 Root      2 :     4.914387676569718   Change is   -0.000000825178245
 Root      3 :     5.804197355752021   Change is   -0.000000001151976
 Root      4 :     6.527621102917603   Change is   -0.000000001197583
 Root      5 :     7.077621639475894   Change is   -0.000000000368377
 Root      6 :     7.174216673412341   Change is   -0.000000000129634
 Root      7 :     7.937817823030333   Change is   -0.000000000984809
 Root      8 :     8.050281092207568   Change is   -0.000000000410153
 Root      9 :     8.291600451428199   Change is   -0.000001348195152
 Root     10 :     8.644051754267611   Change is   -0.000000000632830
 Root     11 :     8.784733522705462   Change is   -0.000001079232146
 Root     12 :     9.074131477311870   Change is   -0.000000007323740
 Root     13 :     9.188408195518473   Change is   -0.000001040718283
 Root     14 :     9.460612967455662   Change is   -0.000000721861821
 Root     15 :     9.568657397696624   Change is   -0.000000003725125
 Convergence achieved on expansion vectors.
 ***********************************************************************
 Excited states from <AA,BB:AA,BB> singles matrix:
 ***********************************************************************
 
 1PDM for each excited state written to RWF  633
 Ground to excited state transition densities written to RWF  633
 Ground to excited state transition electric dipole moments (Au):
       state          X           Y           Z        Dip. S.      Osc.
         1        -0.6742      0.2317      0.0305      0.5092      0.0609
         2        -1.4584      0.5078     -0.0162      2.3850      0.2871
         3        -0.0305     -0.0011      0.0383      0.0024      0.0003
         4        -0.0439      0.0076      0.0107      0.0021      0.0003
         5        -0.0093      0.0077      0.1463      0.0216      0.0037
         6         0.0077     -0.0037      0.1898      0.0361      0.0063
         7         0.0181     -0.0030     -0.0624      0.0042      0.0008
         8        -0.0048      0.0079     -0.0730      0.0054      0.0011
         9        -0.8086      0.0597      0.0019      0.6575      0.1336
        10        -0.0008     -0.0072      0.2024      0.0410      0.0087
        11        -0.3309     -0.0466     -0.0059      0.1117      0.0240
        12        -0.0145     -0.0063     -0.6842      0.4684      0.1041
        13        -0.3765     -0.1130     -0.0179      0.1548      0.0349
        14         0.4803     -0.8694      0.0072      0.9867      0.2287
        15         0.0361      0.1006     -0.1068      0.0228      0.0053
 Ground to excited state transition velocity dipole moments (Au):
       state          X           Y           Z        Dip. S.      Osc.
         1         0.0620     -0.0235     -0.0889      0.0123      0.0457
         2         0.1400     -0.0524      0.0450      0.0244      0.0900
         3         0.0069     -0.0011     -0.1631      0.0267      0.0833
         4         0.0084     -0.0011     -0.0090      0.0002      0.0004
         5        -0.0018      0.0008     -0.0625      0.0039      0.0100
         6        -0.0007      0.0008     -0.0836      0.0070      0.0177
         7        -0.0028      0.0004      0.0078      0.0001      0.0002
         8         0.0007      0.0014     -0.0047      0.0000      0.0001
         9         0.1258     -0.0583     -0.0011      0.0192      0.0421
        10         0.0014      0.0010      0.0027      0.0000      0.0000
        11         0.1213      0.1168     -0.0028      0.0283      0.0585
        12         0.0055      0.0064      0.0052      0.0001      0.0002
        13         0.0435      0.0503     -0.0060      0.0045      0.0088
        14        -0.0779      0.1468     -0.0053      0.0276      0.0530
        15        -0.0120     -0.0245     -0.1409      0.0206      0.0391
 Ground to excited state transition magnetic dipole moments (Au):
       state          X           Y           Z
         1        -0.0854     -0.2726     -0.2159
         2         0.0431      0.1359     -0.4731
         3         0.0113      0.2443     -0.0091
         4        -0.2761     -0.7416     -0.0181
         5        -0.7026     -0.3818      0.0009
         6        -0.3702      0.5767      0.0063
         7         0.3873     -0.1556      0.0094
         8         0.5852     -0.1856     -0.0023
         9         0.0071      0.0095     -0.1532
        10         0.0236     -0.0137     -0.0080
        11         0.0211      0.0193     -0.0397
        12         0.0299      0.0166     -0.0061
        13         0.0137     -0.0152      0.1301
        14         0.0005     -0.0454      0.0179
        15         0.0788     -0.4917     -0.0095
 Ground to excited state transition velocity quadrupole moments (Au):
       state          XX          YY          ZZ          XY          XZ          YZ
         1         0.0699     -0.0591     -0.0007      0.0755      0.1715     -0.1247
         2         0.1396     -0.1308      0.0030      0.1687     -0.0681      0.0568
         3         0.0204      0.0019     -0.0045      0.0014     -0.1853     -0.0401
         4         0.0094     -0.0037      0.0003      0.0093     -0.2495      0.0796
         5        -0.0018      0.0009      0.0024     -0.0006      0.2957     -0.2568
         6         0.0022      0.0023      0.0011     -0.0013     -0.2470     -0.0592
         7         0.0004      0.0020     -0.0030     -0.0059      0.1893     -0.0854
         8        -0.0012     -0.0007      0.0019      0.0041     -0.1445     -0.1494
         9        -0.0879     -0.1805     -0.0302      0.0859     -0.0004     -0.0009
        10         0.0033      0.0001      0.0007      0.0058     -0.0002      0.0594
        11         0.1969      0.2420      0.0386      0.1081      0.0037      0.0162
        12         0.0150      0.0210      0.0015      0.0020     -0.0302     -0.0563
        13        -0.1097     -0.1919     -0.0641      0.2977      0.0156      0.0055
        14        -0.6001     -0.0110     -0.1003      0.0845      0.0229     -0.0014
        15         0.0982     -0.0006      0.0093     -0.0250      0.3094      0.1094
 <0|del|b> * <b|rxdel|0> + <0|del|b> * <b|delr+rdel|0>
 Rotatory Strengths (R) in cgs (10**-40 erg-esu-cm/Gauss)
       state          XX          YY          ZZ    R(velocity)    E-M Angle
         1        45.2329     25.4082      9.4977     26.7129       59.23
         2       -47.7391    -29.1342    -10.7281    -29.2004      106.86
         3         1.3154      2.5113      0.4787      1.4352       88.14
         4         0.9071     -2.0731     -2.8147     -1.3269       97.95
         5        -0.7874      2.2041      0.9855      0.8007       88.99
         6         0.3090     -0.4557      0.6356      0.1630       89.82
         7        -0.1283     -0.8909     -1.6069     -0.8754      108.16
         8        -0.0810      0.4092      0.0628      0.1303       86.93
         9        -0.5905      1.2123      0.5530      0.3916       88.64
        10        -0.0222      0.0873     -0.0715     -0.0022       90.00
        11         1.7837      5.4120      3.5752      3.5903       53.36
        12         0.2931     -0.1996      0.4156      0.1697       45.77
        13        -4.3332      1.9349      0.3953     -0.6677       96.24
        14       -10.7500      0.4276     -3.4999     -4.6074      146.93
        15        24.6708     -4.4668      4.8680      8.3573       79.96
 1/2[<0|r|b>*<b|rxdel|0> + (<0|rxdel|b>*<b|r|0>)*]
 Rotatory Strengths (R) in cgs (10**-40 erg-esu-cm/Gauss)
       state          XX          YY          ZZ     R(length)
         1       -40.7333     44.6612      4.6592      2.8624
         2        44.4383    -48.8230     -5.4227     -3.2691
         3         0.2447      0.1884      0.2466      0.2266
         4        -8.5757      3.9938      0.1376     -1.4815
         5        -4.6227      2.0860     -0.0882     -0.8750
         6         2.0187      1.5058     -0.8470      0.8925
         7        -4.9626     -0.3254      0.4139     -1.6247
         8         1.9874      1.0378     -0.1170      0.9694
         9         4.0854     -0.4024      0.2083      1.2971
        10         0.0133     -0.0698      1.1493      0.3642
        11         4.9310      0.6348     -0.1661      1.7999
        12         0.3067      0.0746     -2.9468     -0.8552
        13         3.6511     -1.2185      1.6431      1.3586
        14        -0.1823    -27.8935     -0.0911     -9.3890
        15        -2.0099     34.9766     -0.7188     10.7493
  1/2[<0|del|b>*<b|r|0> + (<0|r|b>*<b|del|0>)*] (Au)
       state          X           Y           Z        Dip. S.   Osc.(frdel)
         1        -0.0418     -0.0055     -0.0027      0.0500      0.0333
         2        -0.2042     -0.0266     -0.0007      0.2316      0.1544
         3        -0.0002      0.0000     -0.0062      0.0064      0.0043
         4        -0.0004      0.0000     -0.0001      0.0005      0.0003
         5         0.0000      0.0000     -0.0092      0.0091      0.0061
         6         0.0000      0.0000     -0.0159      0.0159      0.0106
         7        -0.0001      0.0000     -0.0005      0.0005      0.0004
         8         0.0000      0.0000      0.0003     -0.0004     -0.0002
         9        -0.1017     -0.0035      0.0000      0.1052      0.0702
        10         0.0000      0.0000      0.0006     -0.0005     -0.0004
        11        -0.0401     -0.0054      0.0000      0.0456      0.0304
        12        -0.0001      0.0000     -0.0035      0.0037      0.0024
        13        -0.0164     -0.0057      0.0001      0.0220      0.0146
        14        -0.0374     -0.1276      0.0000      0.1650      0.1100
        15        -0.0004     -0.0025      0.0150     -0.0121     -0.0081

 Excitation energies and oscillator strengths:
 
 Excited State   1:      Singlet-A      4.8782 eV  254.16 nm  f=0.0609  <S**2>=0.000
      13 -> 14         0.30545
      13 -> 15         0.61843
 This state for optimization and/or second-order correction.
 Total Energy, E(CIS) =   2.98340793720    
 Copying the excited state density for this state as the 1-particle RhoCI density.
 
 Excited State   2:      Singlet-A      4.9144 eV  252.29 nm  f=0.2871  <S**2>=0.000
      13 -> 14         0.62680
      13 -> 15        -0.30204
 
 Excited State   3:      Singlet-A      5.8042 eV  213.61 nm  f=0.0003  <S**2>=0.000
      10 -> 16        -0.10535
      13 -> 16         0.66648
      13 -> 17         0.14107
      13 -> 19        -0.10555
 
 Excited State   4:      Singlet-A      6.5276 eV  189.94 nm  f=0.0003  <S**2>=0.000
      12 -> 14         0.69761
 
 Excited State   5:      Singlet-A      7.0776 eV  175.18 nm  f=0.0037  <S**2>=0.000
      13 -> 16        -0.15800
      13 -> 17         0.50188
      13 -> 18        -0.39115
      13 -> 21         0.21111
 
 Excited State   6:      Singlet-A      7.1742 eV  172.82 nm  f=0.0063  <S**2>=0.000
      13 -> 15        -0.10098
      13 -> 17         0.45213
      13 -> 18         0.40582
      13 -> 19         0.25063
      13 -> 21        -0.21011
 
 Excited State   7:      Singlet-A      7.9378 eV  156.19 nm  f=0.0008  <S**2>=0.000
      11 -> 14         0.26076
      13 -> 18        -0.27359
      13 -> 19         0.58119
 
 Excited State   8:      Singlet-A      8.0503 eV  154.01 nm  f=0.0011  <S**2>=0.000
      11 -> 14         0.64308
      13 -> 18         0.13151
      13 -> 19        -0.20572
 
 Excited State   9:      Singlet-A      8.2916 eV  149.53 nm  f=0.1336  <S**2>=0.000
       8 -> 15         0.15267
      12 -> 15         0.63218
      12 -> 16        -0.12235
      12 -> 18         0.11101
 
 Excited State  10:      Singlet-A      8.6441 eV  143.43 nm  f=0.0087  <S**2>=0.000
      13 -> 18         0.27427
      13 -> 19         0.14800
      13 -> 20        -0.28778
      13 -> 21         0.55497
 
 Excited State  11:      Singlet-A      8.7847 eV  141.14 nm  f=0.0240  <S**2>=0.000
       8 -> 16         0.17421
      10 -> 14         0.45547
      11 -> 17         0.12471
      11 -> 18         0.10933
      12 -> 16        -0.41125
      12 -> 18         0.14526
 
 Excited State  12:      Singlet-A      9.0741 eV  136.63 nm  f=0.1041  <S**2>=0.000
      13 -> 20         0.62038
      13 -> 21         0.30296
 
 Excited State  13:      Singlet-A      9.1884 eV  134.94 nm  f=0.0349  <S**2>=0.000
       9 -> 15        -0.17909
      10 -> 14         0.32268
      11 -> 15        -0.23591
      11 -> 17        -0.25465
      12 -> 15         0.18093
      12 -> 16         0.12407
      12 -> 17         0.22975
      12 -> 18        -0.31426
      12 -> 21         0.10065
 
 Excited State  14:      Singlet-A      9.4606 eV  131.05 nm  f=0.2287  <S**2>=0.000
       8 -> 16        -0.12400
      10 -> 14         0.31527
      11 -> 16         0.17698
      11 -> 17         0.18633
      12 -> 16         0.45579
      12 -> 18         0.27745
 
 Excited State  15:      Singlet-A      9.5687 eV  129.57 nm  f=0.0053  <S**2>=0.000
       7 -> 15        -0.17492
      10 -> 15         0.66418
      13 -> 15        -0.10311
 SavETr:  write IOETrn=   770 NScale= 10 NData=  16 NLR=1 NState=   15 LETran=     280.
 The selected state is a singlet
 CISAX will form     1 AO SS matrices at one time.
 NMat=     1 NSing=     1 JSym2X= 0.
 Leave Link  914 at Tue Dec 15 17:05:27 2015, MaxMem=    33554432 cpu:         0.1
 (Enter /home/Applications/g09/g09/l1002.exe)
 Minotr:  Closed shell wavefunction.
          Computing CIS/TD-HF/TD-KS derivatives.
          Using Z-Vector for PSCF gradient.
          Skipping F1 and S1 gradient terms here.
          IDoAtm=111111111
          Direct CPHF calculation.
          Differentiating once with respect to electric field.
                with respect to dipole field.
          Differentiating once with respect to nuclear coordinates.
          Electric field/nuclear overlap derivatives assumed to be zero.
          Requested convergence is 1.0D-10 RMS, and 1.0D-09 maximum.
          NewPWx=T KeepS1=F KeepF1=F KeepIn=T MapXYZ=F SortEE=F KeepMc=T.
          MDV=      33495423 using IRadAn=       0.
 Keep J ints in memory in canonical form, NReq=871704.
 FoFCou: FMM=F IPFlag=           0 FMFlag=           0 FMFlg1=           0
         NFxFlg=           0 DoJE=F BraDBF=F KetDBF=F FulRan=T
         wScrn=  0.000000 ICntrl=     600 IOpCl=  2 I1Cent=           0 NGrid=           0
         NMat0=    1 NMatS0=     54 NMatT0=    0 NMatD0=    1 NMtDS0=    0 NMtDT0=    0
 Symmetry not used in FoFCou.
          Solving linear equations separately, MaxMat=       0.
          There are     1 degrees of freedom in the 1st order CPHF.  IDoFFX=0 NUNeed=     1.
 LinEq1:  Iter=  0 NonCon=     1 RMS=2.07D-02 Max=1.19D-01 NDo=     1
 AX will form     1 AO Fock derivatives at one time.
 LinEq1:  Iter=  1 NonCon=     1 RMS=3.20D-03 Max=2.09D-02 NDo=     1
 LinEq1:  Iter=  2 NonCon=     1 RMS=4.11D-04 Max=2.24D-03 NDo=     1
 LinEq1:  Iter=  3 NonCon=     1 RMS=5.34D-05 Max=2.02D-04 NDo=     1
 LinEq1:  Iter=  4 NonCon=     1 RMS=6.56D-06 Max=1.80D-05 NDo=     1
 LinEq1:  Iter=  5 NonCon=     1 RMS=9.04D-07 Max=4.63D-06 NDo=     1
 LinEq1:  Iter=  6 NonCon=     1 RMS=1.07D-07 Max=3.97D-07 NDo=     1
 LinEq1:  Iter=  7 NonCon=     1 RMS=1.22D-08 Max=5.49D-08 NDo=     1
 LinEq1:  Iter=  8 NonCon=     1 RMS=1.39D-09 Max=5.67D-09 NDo=     1
 LinEq1:  Iter=  9 NonCon=     1 RMS=1.86D-10 Max=6.93D-10 NDo=     1
 LinEq1:  Iter= 10 NonCon=     0 RMS=2.69D-11 Max=8.36D-11 NDo=     1
 Linear equations converged to 1.000D-10 1.000D-09 after    10 iterations.
 End of Minotr F.D. properties file   721 does not exist.
 End of Minotr F.D. properties file   722 does not exist.
 End of Minotr F.D. properties file   788 does not exist.
 Leave Link 1002 at Tue Dec 15 17:05:27 2015, MaxMem=    33554432 cpu:         0.0
 (Enter /home/Applications/g09/g09/l601.exe)
 Copying SCF densities to generalized density rwf, IOpCl= 0 IROHF=0.

 **********************************************************************

            Population analysis using the SCF density.

 **********************************************************************

 Orbital symmetries:
       Occupied  (A) (A) (A) (A) (A) (A) (A) (A) (A) (A) (A) (A)
                 (A)
       Virtual   (A) (A) (A) (A) (A) (A) (A) (A) (A) (A) (A)
 The electronic state is 1-A.
 Alpha  occ. eigenvalues --   -1.75505  -1.13825  -0.94372  -0.79018  -0.74839
 Alpha  occ. eigenvalues --   -0.65493  -0.63110  -0.51951  -0.49161  -0.42785
 Alpha  occ. eigenvalues --   -0.41702  -0.36915  -0.23995
 Alpha virt. eigenvalues --    0.13990   0.16150   0.19984   0.26911   0.28745
 Alpha virt. eigenvalues --    0.30488   0.32894   0.33858   0.44382   0.54014
 Alpha virt. eigenvalues --    0.56666
     Molecular Orbital Coefficients:
                           1         2         3         4         5
                           O         O         O         O         O
     Eigenvalues --    -1.75505  -1.13825  -0.94372  -0.79018  -0.74839
   1 1   C  1S          0.10295   0.45614  -0.26562  -0.27163  -0.13561
   2        1PX        -0.09711  -0.17473  -0.12962  -0.21454   0.12601
   3        1PY        -0.09238  -0.06089   0.17876   0.05352  -0.32831
   4        1PZ        -0.00009   0.00032  -0.00089   0.00062   0.00996
   5 2   C  1S          0.24443   0.23605  -0.48122   0.08493   0.44418
   6        1PX        -0.25474  -0.02392  -0.03194  -0.30337   0.15792
   7        1PY        -0.03552   0.30986   0.01620  -0.42144  -0.23129
   8        1PZ         0.00013   0.00129  -0.00471   0.00037   0.02044
   9 3   O  1S          0.78205  -0.32718  -0.04674   0.08184  -0.21389
  10        1PX         0.00750   0.05649  -0.17976   0.25111   0.05597
  11        1PY         0.07246   0.12867   0.07254  -0.10535   0.05425
  12        1PZ         0.00077   0.00047  -0.00012  -0.00121   0.00682
  13 4   C  1S          0.30615   0.21965   0.52945  -0.19744   0.31287
  14        1PX         0.20114   0.20697  -0.11632   0.07917  -0.25918
  15        1PY        -0.22465   0.29956   0.02723   0.53175   0.03967
  16        1PZ        -0.00232   0.00000  -0.00061   0.00057   0.01564
  17 5   C  1S          0.11327   0.47371   0.25319   0.25019  -0.11288
  18        1PX         0.02284   0.10589  -0.26097  -0.15614  -0.29479
  19        1PY        -0.14574  -0.14259  -0.07870   0.09094  -0.17322
  20        1PZ        -0.00016   0.00102   0.00076   0.00115   0.00951
  21 6   H  1S          0.00849   0.14632   0.11929   0.17851  -0.08755
  22 7   H  1S          0.07477   0.01794   0.29326  -0.14333   0.28789
  23 8   H  1S          0.06037   0.02678  -0.24343   0.06813   0.36259
  24 9   H  1S          0.00826   0.13919  -0.12475  -0.19826  -0.10578
                           6         7         8         9        10
                           O         O         O         O         O
     Eigenvalues --    -0.65493  -0.63110  -0.51951  -0.49161  -0.42785
   1 1   C  1S         -0.23570  -0.01462  -0.10490  -0.07286   0.00303
   2        1PX        -0.20748  -0.02224   0.01339   0.22851  -0.01299
   3        1PY        -0.22887   0.00016   0.18925  -0.27888  -0.00635
   4        1PZ        -0.02517   0.36282   0.00496   0.00719   0.31071
   5 2   C  1S         -0.00739  -0.01757  -0.07419  -0.15138  -0.00602
   6        1PX        -0.30333  -0.02438   0.48564   0.36517  -0.02272
   7        1PY         0.05991   0.00460  -0.34194   0.34521   0.02144
   8        1PZ        -0.03631   0.48957   0.02420   0.00755   0.70656
   9 3   O  1S         -0.29933  -0.01780  -0.07060   0.29538   0.00367
  10        1PX         0.05805   0.00090  -0.12746  -0.07358   0.00076
  11        1PY         0.23310   0.01525   0.08092  -0.12267  -0.00334
  12        1PZ        -0.01290   0.21080  -0.00162  -0.00017  -0.01072
  13 4   C  1S          0.04399  -0.00240   0.14100  -0.06292  -0.00874
  14        1PX         0.39750   0.04242   0.51263   0.20013  -0.02847
  15        1PY        -0.16986  -0.02139  -0.21526   0.44387   0.00641
  16        1PZ        -0.04432   0.64050  -0.03595   0.00345  -0.61539
  17 5   C  1S         -0.20286  -0.00950   0.16414  -0.04433  -0.00394
  18        1PX         0.03971   0.01686   0.00769  -0.34852   0.00631
  19        1PY        -0.33303  -0.01577   0.04295  -0.24570  -0.00065
  20        1PZ        -0.02825   0.40967  -0.01228   0.00688  -0.15158
  21 6   H  1S         -0.29826  -0.01553   0.11856  -0.11905  -0.00553
  22 7   H  1S         -0.21924  -0.02010  -0.26616  -0.19345   0.00794
  23 8   H  1S         -0.17061  -0.01068   0.34858  -0.06083  -0.00450
  24 9   H  1S         -0.30433  -0.01884   0.02532  -0.03547  -0.00922
                          11        12        13        14        15
                           O         O         O         V         V
     Eigenvalues --    -0.41702  -0.36915  -0.23995   0.13990   0.16150
   1 1   C  1S          0.11825  -0.06165   0.00203  -0.00041  -0.08320
   2        1PX         0.27428   0.48175  -0.00429   0.00314   0.11678
   3        1PY         0.41522  -0.04725  -0.00120  -0.00614  -0.03646
   4        1PZ         0.00436   0.01053   0.54134   0.69053  -0.01492
   5 2   C  1S         -0.08911   0.12647   0.00477   0.00626  -0.01734
   6        1PX        -0.17640  -0.32727   0.00776   0.01097   0.06096
   7        1PY        -0.30332   0.07150  -0.00803  -0.01062  -0.01401
   8        1PZ         0.00649   0.00791  -0.40307  -0.25470   0.00793
   9 3   O  1S         -0.03212  -0.12760  -0.00064  -0.00006   0.00079
  10        1PX         0.09384   0.06934  -0.00076   0.00158   0.05548
  11        1PY         0.00159   0.16083  -0.00027  -0.00085   0.05701
  12        1PZ        -0.00024   0.00112  -0.17964   0.00257  -0.00176
  13 4   C  1S          0.10932   0.09614   0.00138  -0.00498  -0.21796
  14        1PX         0.05234   0.22022  -0.00476   0.01309   0.50405
  15        1PY         0.22652  -0.13169  -0.00099   0.00051   0.13409
  16        1PZ        -0.00572  -0.00982  -0.34140   0.21322  -0.01328
  17 5   C  1S         -0.11785  -0.06550  -0.00050   0.00403  -0.09398
  18        1PX         0.01472  -0.43211   0.00670   0.00337   0.15138
  19        1PY        -0.42148   0.30812  -0.00302   0.00333   0.13880
  20        1PZ        -0.00205   0.00523   0.62880  -0.64157   0.01471
  21 6   H  1S         -0.38206   0.31720  -0.00038  -0.00131  -0.00376
  22 7   H  1S          0.02104  -0.14380  -0.00102   0.01784   0.76916
  23 8   H  1S         -0.00496  -0.17670  -0.00443  -0.01850  -0.06182
  24 9   H  1S          0.43953   0.26993  -0.00195   0.00003  -0.02970
                          16        17        18        19        20
                           V         V         V         V         V
     Eigenvalues --     0.19984   0.26911   0.28745   0.30488   0.32894
   1 1   C  1S         -0.08333   0.06310   0.05855  -0.21538   0.24712
   2        1PX        -0.04845   0.14991   0.51390   0.13366   0.35221
   3        1PY         0.22334   0.32103   0.12487  -0.49519  -0.23710
   4        1PZ         0.01580  -0.00028   0.00157   0.00027  -0.00095
   5 2   C  1S         -0.21880   0.25529  -0.03427  -0.27611  -0.25369
   6        1PX        -0.30598   0.06327  -0.06987  -0.09620  -0.16627
   7        1PY         0.43466   0.10385   0.01311  -0.07447  -0.16438
   8        1PZ        -0.02365   0.00251  -0.00106  -0.00222  -0.00221
   9 3   O  1S          0.00302   0.02938   0.00574   0.00998  -0.04582
  10        1PX         0.00705   0.00266   0.03307   0.04890  -0.02757
  11        1PY         0.07862  -0.00710   0.00144   0.00644  -0.08040
  12        1PZ        -0.00518   0.00080  -0.00072  -0.00125   0.00187
  13 4   C  1S         -0.03783   0.31625   0.10458   0.32452  -0.24046
  14        1PX         0.02805   0.05256  -0.05333  -0.03305  -0.02669
  15        1PY         0.03967   0.17952   0.08702   0.20331  -0.24956
  16        1PZ         0.00486  -0.00020   0.00117   0.00085  -0.00122
  17 5   C  1S         -0.10765  -0.00553  -0.09456   0.02740   0.55689
  18        1PX        -0.11769   0.04578   0.38590   0.49896  -0.13921
  19        1PY         0.07603   0.49816  -0.29939   0.28037   0.00310
  20        1PZ        -0.00910   0.00142  -0.00384  -0.00155   0.00397
  21 6   H  1S         -0.05433  -0.48253   0.43937  -0.10164  -0.33304
  22 7   H  1S          0.04953  -0.10061  -0.06008  -0.11747   0.05985
  23 8   H  1S          0.74941  -0.12366   0.04909   0.12841   0.10426
  24 9   H  1S         -0.03442  -0.38217  -0.49152   0.28332  -0.23365
                          21        22        23        24
                           V         V         V         V
     Eigenvalues --     0.33858   0.44382   0.54014   0.56666
   1 1   C  1S          0.63062  -0.00144   0.03690  -0.03091
   2        1PX        -0.17989  -0.00076   0.02103  -0.02459
   3        1PY        -0.17674   0.00048   0.02450   0.03648
   4        1PZ         0.00042   0.02288   0.00009  -0.00014
   5 2   C  1S         -0.33032  -0.00001  -0.14337  -0.10418
   6        1PX        -0.04791   0.00030   0.22961   0.13300
   7        1PY        -0.28268   0.00232  -0.01223   0.14555
   8        1PZ        -0.00089  -0.17494   0.00072   0.00167
   9 3   O  1S         -0.01023   0.00005   0.14917  -0.04223
  10        1PX         0.02781   0.00164   0.46568   0.79661
  11        1PY        -0.02267  -0.00726   0.79108  -0.46313
  12        1PZ         0.00054   0.96066   0.00559  -0.00491
  13 4   C  1S          0.16316   0.00025  -0.11398   0.17640
  14        1PX         0.10058  -0.00045  -0.19255   0.07343
  15        1PY         0.11588   0.00232   0.03071  -0.23668
  16        1PZ        -0.00033  -0.21258   0.00080  -0.00223
  17 5   C  1S         -0.43743  -0.00147   0.05390   0.02088
  18        1PX        -0.20136   0.00125  -0.02011  -0.03701
  19        1PY         0.15613  -0.00057   0.03268  -0.03273
  20        1PZ        -0.00206   0.02720   0.00050   0.00031
  21 6   H  1S          0.09608   0.00093  -0.03582   0.00989
  22 7   H  1S         -0.00584   0.00047  -0.02286   0.02636
  23 8   H  1S          0.04893   0.00153  -0.03219  -0.01686
  24 9   H  1S         -0.16708   0.00064  -0.03141   0.00231
     Density Matrix:
                           1         2         3         4         5
   1 1   C  1S          0.94255
   2        1PX         0.03957   1.04422
   3        1PY         0.10324   0.04217   0.99101
   4        1PZ         0.00068  -0.00008   0.00007   1.04434
   5 2   C  1S          0.35965   0.07607  -0.55469  -0.00206   1.20865
   6        1PX         0.05179   0.13137  -0.09393  -0.00365  -0.24460
   7        1PY         0.47106   0.04252  -0.52691   0.00042  -0.14673
   8        1PZ        -0.00222  -0.00059   0.00311   0.36074  -0.01062
   9 3   O  1S          0.02248   0.00298  -0.04128  -0.00012  -0.00378
  10        1PX         0.02069  -0.01112  -0.04481  -0.00089   0.33681
  11        1PY         0.00738  -0.01435  -0.07151   0.00029   0.11824
  12        1PZ        -0.00125   0.00058   0.00088  -0.04740  -0.00161
  13 4   C  1S         -0.02257  -0.00023   0.02954   0.00071  -0.00929
  14        1PX        -0.02099  -0.00050  -0.00180  -0.00378  -0.00616
  15        1PY         0.04395  -0.02052  -0.00519   0.00101  -0.04199
  16        1PZ        -0.00076   0.00113  -0.00021  -0.28530  -0.00143
  17 5   C  1S          0.26377  -0.44789   0.20088  -0.00319  -0.02557
  18        1PX         0.49151  -0.56588   0.29854   0.00196   0.01518
  19        1PY        -0.07415   0.10934   0.06624  -0.00190   0.02527
  20        1PZ         0.00070   0.00015  -0.00315   0.88555   0.00358
  21 6   H  1S          0.00266  -0.01295   0.00047   0.00107   0.08276
  22 7   H  1S          0.08648  -0.09363   0.02295  -0.00295   0.05596
  23 8   H  1S          0.06786  -0.01584  -0.07564  -0.00019   0.53591
  24 9   H  1S          0.54583   0.65355   0.49344   0.00101   0.06435
                           6         7         8         9        10
   6        1PX         1.56810
   7        1PY         0.12745   1.33197
   8        1PZ        -0.01224   0.01366   1.80776
   9 3   O  1S         -0.07273  -0.01228  -0.00027   1.94551
  10        1PX        -0.42105  -0.21253  -0.00230  -0.07524   0.28078
  11        1PY        -0.22548   0.05058  -0.00007  -0.28325  -0.01018
  12        1PZ        -0.00462   0.00220   0.33722  -0.00198  -0.00005
  13 4   C  1S         -0.01834  -0.03437  -0.00190   0.00451  -0.21282
  14        1PX         0.00462  -0.00242  -0.00059   0.06048   0.00539
  15        1PY         0.01344   0.01311   0.00086  -0.06571   0.28623
  16        1PZ         0.00019   0.00113   0.03468  -0.00052   0.00404
  17 5   C  1S          0.05121   0.02977  -0.00058   0.02943  -0.01289
  18        1PX         0.00707   0.01198  -0.00383  -0.03060  -0.00849
  19        1PY        -0.01171  -0.01638   0.00136  -0.04115  -0.01357
  20        1PZ         0.00649  -0.00579  -0.31796   0.00014   0.00021
  21 6   H  1S         -0.01758   0.06173  -0.00124   0.00864  -0.02146
  22 7   H  1S         -0.05929  -0.00802  -0.00055   0.02185  -0.08719
  23 8   H  1S          0.57239  -0.54403   0.02948   0.01845   0.04108
  24 9   H  1S         -0.06315  -0.00917  -0.00007   0.00744   0.03260
                          11        12        13        14        15
  11        1PY         0.28630
  12        1PZ         0.00193   0.15408
  13 4   C  1S          0.34326   0.00256   1.21243
  14        1PX         0.31239   0.00549   0.10588   1.36996
  15        1PY        -0.32451  -0.00509  -0.26958  -0.12360   1.53328
  16        1PZ        -0.00553   0.40732  -0.00337   0.00818   0.00183
  17 5   C  1S          0.03125  -0.00070   0.37191   0.22839   0.42695
  18        1PX        -0.03960  -0.00078  -0.36917  -0.04600  -0.35686
  19        1PY        -0.09791   0.00096  -0.39861  -0.22390  -0.33615
  20        1PZ        -0.00086  -0.04904   0.00282   0.00263   0.00066
  21 6   H  1S          0.01881   0.00045   0.07033   0.04539  -0.03819
  22 7   H  1S         -0.02525   0.00231   0.50784  -0.79054  -0.07076
  23 8   H  1S         -0.06004   0.00505   0.04694   0.03329  -0.02453
  24 9   H  1S          0.00785   0.00035   0.07927   0.04706   0.04337
                          16        17        18        19        20
  16        1PZ         1.81827
  17 5   C  1S         -0.00255   0.93005
  18        1PX         0.00192   0.03183   1.00307
  19        1PY         0.00163   0.10694  -0.05585   1.06401
  20        1PZ         0.28566  -0.00086   0.00236  -0.00063   1.17462
  21 6   H  1S         -0.00032   0.52938  -0.25987   0.78520   0.00488
  22 7   H  1S          0.01314   0.07865  -0.03318  -0.08637   0.00011
  23 8   H  1S         -0.00051   0.08162   0.08673  -0.03101  -0.00782
  24 9   H  1S         -0.00029  -0.00836  -0.00093  -0.00312  -0.00037
                          21        22        23        24
  21 6   H  1S          0.87859
  22 7   H  1S         -0.01813   0.74652
  23 8   H  1S          0.00261   0.02021   0.77090
  24 9   H  1S         -0.00908   0.00417  -0.00798   0.89302
    Full Mulliken population analysis:
                           1         2         3         4         5
   1 1   C  1S          0.94255
   2        1PX         0.00000   1.04422
   3        1PY         0.00000   0.00000   0.99101
   4        1PZ         0.00000   0.00000   0.00000   1.04434
   5 2   C  1S          0.00000   0.00000   0.00000   0.00000   1.20865
   6        1PX         0.00000   0.00000   0.00000   0.00000   0.00000
   7        1PY         0.00000   0.00000   0.00000   0.00000   0.00000
   8        1PZ         0.00000   0.00000   0.00000   0.00000   0.00000
   9 3   O  1S          0.00000   0.00000   0.00000   0.00000   0.00000
  10        1PX         0.00000   0.00000   0.00000   0.00000   0.00000
  11        1PY         0.00000   0.00000   0.00000   0.00000   0.00000
  12        1PZ         0.00000   0.00000   0.00000   0.00000   0.00000
  13 4   C  1S          0.00000   0.00000   0.00000   0.00000   0.00000
  14        1PX         0.00000   0.00000   0.00000   0.00000   0.00000
  15        1PY         0.00000   0.00000   0.00000   0.00000   0.00000
  16        1PZ         0.00000   0.00000   0.00000   0.00000   0.00000
  17 5   C  1S          0.00000   0.00000   0.00000   0.00000   0.00000
  18        1PX         0.00000   0.00000   0.00000   0.00000   0.00000
  19        1PY         0.00000   0.00000   0.00000   0.00000   0.00000
  20        1PZ         0.00000   0.00000   0.00000   0.00000   0.00000
  21 6   H  1S          0.00000   0.00000   0.00000   0.00000   0.00000
  22 7   H  1S          0.00000   0.00000   0.00000   0.00000   0.00000
  23 8   H  1S          0.00000   0.00000   0.00000   0.00000   0.00000
  24 9   H  1S          0.00000   0.00000   0.00000   0.00000   0.00000
                           6         7         8         9        10
   6        1PX         1.56810
   7        1PY         0.00000   1.33197
   8        1PZ         0.00000   0.00000   1.80776
   9 3   O  1S          0.00000   0.00000   0.00000   1.94551
  10        1PX         0.00000   0.00000   0.00000   0.00000   0.28078
  11        1PY         0.00000   0.00000   0.00000   0.00000   0.00000
  12        1PZ         0.00000   0.00000   0.00000   0.00000   0.00000
  13 4   C  1S          0.00000   0.00000   0.00000   0.00000   0.00000
  14        1PX         0.00000   0.00000   0.00000   0.00000   0.00000
  15        1PY         0.00000   0.00000   0.00000   0.00000   0.00000
  16        1PZ         0.00000   0.00000   0.00000   0.00000   0.00000
  17 5   C  1S          0.00000   0.00000   0.00000   0.00000   0.00000
  18        1PX         0.00000   0.00000   0.00000   0.00000   0.00000
  19        1PY         0.00000   0.00000   0.00000   0.00000   0.00000
  20        1PZ         0.00000   0.00000   0.00000   0.00000   0.00000
  21 6   H  1S          0.00000   0.00000   0.00000   0.00000   0.00000
  22 7   H  1S          0.00000   0.00000   0.00000   0.00000   0.00000
  23 8   H  1S          0.00000   0.00000   0.00000   0.00000   0.00000
  24 9   H  1S          0.00000   0.00000   0.00000   0.00000   0.00000
                          11        12        13        14        15
  11        1PY         0.28630
  12        1PZ         0.00000   0.15408
  13 4   C  1S          0.00000   0.00000   1.21243
  14        1PX         0.00000   0.00000   0.00000   1.36996
  15        1PY         0.00000   0.00000   0.00000   0.00000   1.53328
  16        1PZ         0.00000   0.00000   0.00000   0.00000   0.00000
  17 5   C  1S          0.00000   0.00000   0.00000   0.00000   0.00000
  18        1PX         0.00000   0.00000   0.00000   0.00000   0.00000
  19        1PY         0.00000   0.00000   0.00000   0.00000   0.00000
  20        1PZ         0.00000   0.00000   0.00000   0.00000   0.00000
  21 6   H  1S          0.00000   0.00000   0.00000   0.00000   0.00000
  22 7   H  1S          0.00000   0.00000   0.00000   0.00000   0.00000
  23 8   H  1S          0.00000   0.00000   0.00000   0.00000   0.00000
  24 9   H  1S          0.00000   0.00000   0.00000   0.00000   0.00000
                          16        17        18        19        20
  16        1PZ         1.81827
  17 5   C  1S          0.00000   0.93005
  18        1PX         0.00000   0.00000   1.00307
  19        1PY         0.00000   0.00000   0.00000   1.06401
  20        1PZ         0.00000   0.00000   0.00000   0.00000   1.17462
  21 6   H  1S          0.00000   0.00000   0.00000   0.00000   0.00000
  22 7   H  1S          0.00000   0.00000   0.00000   0.00000   0.00000
  23 8   H  1S          0.00000   0.00000   0.00000   0.00000   0.00000
  24 9   H  1S          0.00000   0.00000   0.00000   0.00000   0.00000
                          21        22        23        24
  21 6   H  1S          0.87859
  22 7   H  1S          0.00000   0.74652
  23 8   H  1S          0.00000   0.00000   0.77090
  24 9   H  1S          0.00000   0.00000   0.00000   0.89302
     Gross orbital populations:
                           1
   1 1   C  1S          0.94255
   2        1PX         1.04422
   3        1PY         0.99101
   4        1PZ         1.04434
   5 2   C  1S          1.20865
   6        1PX         1.56810
   7        1PY         1.33197
   8        1PZ         1.80776
   9 3   O  1S          1.94551
  10        1PX         0.28078
  11        1PY         0.28630
  12        1PZ         0.15408
  13 4   C  1S          1.21243
  14        1PX         1.36996
  15        1PY         1.53328
  16        1PZ         1.81827
  17 5   C  1S          0.93005
  18        1PX         1.00307
  19        1PY         1.06401
  20        1PZ         1.17462
  21 6   H  1S          0.87859
  22 7   H  1S          0.74652
  23 8   H  1S          0.77090
  24 9   H  1S          0.89302
          Condensed to atoms (all electrons):
               1          2          3          4          5          6
     1  C    4.022122   0.000000   0.000000   0.000000   0.000000   0.000000
     2  C    0.000000   5.916477   0.000000   0.000000   0.000000   0.000000
     3  O    0.000000   0.000000   2.666670   0.000000   0.000000   0.000000
     4  C    0.000000   0.000000   0.000000   5.933946   0.000000   0.000000
     5  C    0.000000   0.000000   0.000000   0.000000   4.171751   0.000000
     6  H    0.000000   0.000000   0.000000   0.000000   0.000000   0.878593
     7  H    0.000000   0.000000   0.000000   0.000000   0.000000   0.000000
     8  H    0.000000   0.000000   0.000000   0.000000   0.000000   0.000000
     9  H    0.000000   0.000000   0.000000   0.000000   0.000000   0.000000
               7          8          9
     1  C    0.000000   0.000000   0.000000
     2  C    0.000000   0.000000   0.000000
     3  O    0.000000   0.000000   0.000000
     4  C    0.000000   0.000000   0.000000
     5  C    0.000000   0.000000   0.000000
     6  H    0.000000   0.000000   0.000000
     7  H    0.746518   0.000000   0.000000
     8  H    0.000000   0.770899   0.000000
     9  H    0.000000   0.000000   0.893024
 Mulliken charges:
               1
     1  C   -0.022122
     2  C   -1.916477
     3  O    3.333330
     4  C   -1.933946
     5  C   -0.171751
     6  H    0.121407
     7  H    0.253482
     8  H    0.229101
     9  H    0.106976
 Sum of Mulliken charges =   0.00000
 Mulliken charges with hydrogens summed into heavy atoms:
               1
     1  C    0.084854
     2  C   -1.687376
     3  O    3.333330
     4  C   -1.680463
     5  C   -0.050344
 Charge=              0.0000 electrons
 Dipole moment (field-independent basis, Debye):
    X=             -4.6152    Y=            -11.7126    Z=              0.0319  Tot=             12.5891
 N-N= 1.038004072045D+02 E-N=-1.688527379251D+02  KE=-1.488639169460D+01
 Orbital energies and kinetic energies (alpha):
                                 1                 2
   1         O                -1.755053         -1.231623
   2         O                -1.138255         -1.004144
   3         O                -0.943721         -0.884388
   4         O                -0.790176         -0.582206
   5         O                -0.748394         -0.686783
   6         O                -0.654934         -0.527329
   7         O                -0.631097         -0.525625
   8         O                -0.519505         -0.373983
   9         O                -0.491611         -0.284660
  10         O                -0.427846         -0.335512
  11         O                -0.417019         -0.433399
  12         O                -0.369146         -0.325741
  13         O                -0.239948         -0.247804
  14         V                 0.139899         -0.170321
  15         V                 0.161498         -0.214701
  16         V                 0.199842         -0.204151
  17         V                 0.269109         -0.168762
  18         V                 0.287454         -0.175656
  19         V                 0.304876         -0.094737
  20         V                 0.328942         -0.115443
  21         V                 0.338583         -0.104059
  22         V                 0.443818          0.619742
  23         V                 0.540140          0.654377
  24         V                 0.566659          0.700034
 Total kinetic energy from orbitals=-1.488639169460D+01
 Leave Link  601 at Tue Dec 15 17:05:27 2015, MaxMem=    33554432 cpu:         0.0
 (Enter /home/Applications/g09/g09/l701.exe)
 Compute integral first derivatives.
 ... and contract with generalized density number  6.
 Leave Link  701 at Tue Dec 15 17:05:27 2015, MaxMem=    33554432 cpu:         0.0
 (Enter /home/Applications/g09/g09/l702.exe)
 L702 exits ... SP integral derivatives will be done elsewhere.
 Leave Link  702 at Tue Dec 15 17:05:27 2015, MaxMem=    33554432 cpu:         0.0
 (Enter /home/Applications/g09/g09/l703.exe)
 Compute integral first derivatives, UseDBF=F ICtDFT=           0.
 Integral derivatives from FoFJK, PRISM(SPDF).
 Calling FoFJK, ICntrl=  10005127 FMM=F ISym2X=0 I1Cent= 0 IOpClX= 0 NMat=1 NMatS=1 NMatT=0.
 FoFJK:  IHMeth= 8 ICntrl=10005127 DoSepK=F KAlg= 0 I1Cent=   0 FoldK=F
 IRaf=         0 NMat=   1 IRICut=       1 DoRegI=T DoRafI=F ISym2E= 0.
 FoFCou: FMM=F IPFlag=           0 FMFlag=      100000 FMFlg1=         800
         NFxFlg=           0 DoJE=F BraDBF=F KetDBF=F FulRan=T
         wScrn=  0.000000 ICntrl=10005127 IOpCl=  0 I1Cent=           0 NGrid=           0
         NMat0=    1 NMatS0=      1 NMatT0=    0 NMatD0=    1 NMtDS0=    0 NMtDT0=    0
 Symmetry not used in FoFCou.
 Leave Link  703 at Tue Dec 15 17:05:27 2015, MaxMem=    33554432 cpu:         0.0
 (Enter /home/Applications/g09/g09/l716.exe)
 Dipole        = 1.09853806D-01-4.09481156D+00 3.68190982D-02
 ***** Axes restored to original set *****
 -------------------------------------------------------------------
 Center     Atomic                   Forces (Hartrees/Bohr)
 Number     Number              X              Y              Z
 -------------------------------------------------------------------
      1        6           0.215790297    0.013908958    0.005791494
      2        6          -0.336822800   -0.040062890   -0.002272146
      3        8           0.160354954    0.020005140   -0.001505353
      4        6          -0.339292368   -0.030651477   -0.011221403
      5        6           0.296316017   -0.001601379   -0.002555624
      6        1           0.045513278    0.032404125    0.002104462
      7        1          -0.067544366    0.131049821    0.009267883
      8        1          -0.029951170   -0.092168326    0.002695413
      9        1           0.055636158   -0.032883970   -0.002304725
 -------------------------------------------------------------------
 Cartesian Forces:  Max     0.339292368 RMS     0.126270572
 Z-matrix is all fixed cartesians, so copy forces.
 Force constants in Cartesian coordinates: 
                1             2             3             4             5 
      1  0.103588D+01
      2  0.652819D-02  0.744868D+00
      3  0.600047D-02  0.450807D-02  0.218191D+00
      4 -0.641509D+00 -0.139080D+00 -0.664766D-02  0.103185D+01
      5 -0.116898D+00 -0.239396D+00 -0.314197D-02  0.141317D+00  0.813002D+00
      6 -0.472046D-02 -0.158666D-02 -0.129006D+00 -0.279430D-02 -0.786320D-02
      7 -0.815372D-02  0.282202D-01  0.238988D-03 -0.223768D+00  0.103696D+00
      8 -0.622053D-02  0.215283D-01  0.282438D-03  0.145879D+00 -0.263565D+00
      9 -0.198384D-03  0.526885D-03  0.995169D-03  0.163396D-02 -0.169588D-02
     10  0.100935D-01  0.261694D-03  0.937658D-04  0.214716D-01  0.163806D-01
     11  0.360467D-01  0.935177D-03  0.256654D-03 -0.184852D-01 -0.141024D-01
     12  0.323613D-03 -0.111340D-04  0.177137D-02 -0.398019D-04 -0.245402D-04
     13 -0.157501D+00  0.183391D-01 -0.542585D-03  0.101120D-01 -0.350009D-01
     14 -0.802774D-02 -0.345453D+00 -0.219343D-02  0.258222D-03 -0.898915D-03
     15 -0.907379D-03 -0.204291D-02 -0.734232D-01  0.441855D-03 -0.130274D-02
     16  0.157057D-01  0.407645D-03  0.897049D-04  0.000000D+00  0.000000D+00
     17 -0.224498D-01 -0.578774D-03 -0.553615D-03  0.000000D+00  0.000000D+00
     18 -0.792891D-04 -0.119745D-03  0.127771D-01 -0.171114D-04 -0.234023D-04
     19  0.000000D+00  0.000000D+00 -0.759488D-04  0.000000D+00  0.000000D+00
     20  0.000000D+00  0.298519D-05 -0.323084D-03  0.187119D-05  0.164422D-05
     21 -0.111171D-04 -0.915451D-04  0.990785D-02 -0.686784D-04 -0.603479D-04
     22  0.778424D-02 -0.269866D-01  0.115073D-02 -0.192906D+00 -0.127694D+00
     23 -0.471391D-02  0.162743D-01  0.135440D-02 -0.122848D+00 -0.319429D+00
     24 -0.319745D-03 -0.312898D-03  0.428235D-01  0.835785D-02  0.122774D-01
     25 -0.262304D+00  0.112309D+00 -0.307465D-03 -0.525546D-02  0.181983D-01
     26  0.115735D+00 -0.198180D+00 -0.189451D-03 -0.704301D-02  0.243872D-01
     27 -0.877143D-04 -0.870053D-03 -0.840372D-01 -0.866108D-03  0.183470D-02
                6             7             8             9            10 
      6  0.230685D+00
      7 -0.435611D-04  0.530866D+00
      8  0.247166D-03  0.882642D-01  0.602492D+00
      9 -0.427515D-01  0.631395D-02  0.783128D-02  0.545840D-01
     10  0.450124D-03 -0.331398D+00 -0.232211D+00 -0.613693D-02  0.121987D+01
     11 -0.399247D-03 -0.189031D+00 -0.367820D+00 -0.715154D-02 -0.595547D-01
     12 -0.654621D-03 -0.575690D-02 -0.783337D-02 -0.514095D-01  0.183453D-02
     13 -0.201365D-03 -0.841961D-02  0.724621D-02  0.128477D-03 -0.743804D+00
     14  0.731663D-04 -0.300652D-01  0.258779D-01  0.313907D-03  0.160921D+00
     15 -0.321296D-02 -0.719556D-03  0.353510D-03  0.844820D-02  0.504170D-03
     16 -0.412367D-04  0.000000D+00  0.124316D-05 -0.588799D-04 -0.496330D-02
     17 -0.240298D-04  0.117925D-05  0.559913D-05 -0.265192D-03  0.709863D-02
     18  0.249252D-02 -0.466643D-04 -0.221565D-03  0.104940D-01 -0.963457D-04
     19  0.128172D-04  0.210344D-01 -0.180958D-01 -0.570147D-03 -0.171268D+00
     20 -0.130513D-03  0.108996D-01 -0.937333D-02 -0.437558D-03  0.107105D+00
     21  0.479022D-02  0.321439D-03 -0.400329D-03  0.495467D-02  0.338168D-02
     22  0.746887D-02  0.198377D-01  0.151366D-01 -0.105429D-02 -0.100946D-05
     23  0.982920D-02 -0.119860D-01 -0.914606D-02  0.948635D-03  0.000000D+00
     24 -0.974417D-01 -0.246878D-03 -0.199184D-03  0.652618D-02 -0.278640D-04
     25 -0.130888D-03  0.000000D+00  0.000000D+00 -0.577619D-04  0.000000D+00
     26 -0.145872D-03  0.000000D+00  0.000000D+00 -0.705394D-04  0.000000D+00
     27  0.350984D-01 -0.608222D-04 -0.599452D-04  0.815876D-02 -0.313049D-05
               11            12            13            14            15 
     11  0.932939D+00
     12  0.156876D-01  0.252416D+00
     13  0.136960D+00  0.970080D-03  0.113281D+01
     14 -0.257491D+00 -0.145762D-02 -0.478829D-01  0.745780D+00
     15 -0.126524D-02 -0.143379D+00  0.405098D-02  0.699064D-02  0.236005D+00
     16 -0.177220D-01 -0.734264D-03 -0.257775D+00 -0.104089D+00 -0.386225D-02
     17  0.253528D-01 -0.158139D-03 -0.106053D+00 -0.183164D+00 -0.256477D-02
     18 -0.533918D-03  0.362799D-01 -0.436872D-02 -0.278669D-02 -0.891744D-01
     19  0.111787D+00  0.335368D-02  0.796769D-02  0.284519D-01  0.725094D-03
     20 -0.319813D+00 -0.622705D-02  0.413631D-02  0.147767D-01 -0.834366D-03
     21 -0.654407D-02 -0.997575D-01 -0.144110D-03 -0.735859D-03  0.422727D-01
     22  0.000000D+00  0.704081D-04  0.182775D-05  0.249972D-05 -0.266239D-03
     23  0.000000D+00  0.504909D-04 -0.418917D-05 -0.572931D-05  0.610214D-03
     24 -0.244842D-04  0.194347D-02 -0.644955D-04 -0.882073D-04  0.939473D-02
     25  0.000000D+00 -0.213421D-04  0.166112D-01  0.431716D-03  0.333324D-04
     26  0.000000D+00 -0.262520D-04  0.222591D-01  0.578400D-03  0.556558D-04
     27 -0.257784D-04  0.278997D-02  0.171743D-03 -0.115905D-03  0.130690D-01
               16            17            18            19            20 
     16  0.247033D+00
     17  0.121406D+00  0.158398D+00
     18  0.445437D-02  0.311579D-02  0.471974D-01
     19  0.000000D+00 -0.317899D-05  0.125797D-03  0.142267D+00
     20 -0.300256D-05 -0.135233D-04  0.535136D-03 -0.122140D+00  0.314419D+00
     21  0.920778D-04  0.414713D-03 -0.164107D-01 -0.357129D-02  0.741743D-02
     22  0.000000D+00  0.000000D+00  0.000000D+00  0.000000D+00  0.000000D+00
     23  0.000000D+00  0.000000D+00  0.000000D+00  0.000000D+00  0.000000D+00
     24  0.000000D+00  0.000000D+00  0.000000D+00  0.000000D+00  0.000000D+00
     25  0.000000D+00  0.000000D+00  0.279656D-04  0.000000D+00  0.000000D+00
     26  0.000000D+00  0.000000D+00  0.343993D-04  0.000000D+00  0.000000D+00
     27  0.604828D-04  0.352450D-04 -0.365584D-02  0.000000D+00  0.000000D+00
               21            22            23            24            25 
     21  0.542428D-01
     22  0.000000D+00  0.165286D+00
     23  0.000000D+00  0.139546D+00  0.312298D+00
     24  0.000000D+00 -0.780856D-02 -0.117866D-01  0.522477D-01
     25  0.000000D+00 -0.310859D-05  0.712483D-05  0.109692D-03  0.250951D+00
     26  0.000000D+00 -0.379625D-05  0.870091D-05  0.133957D-03 -0.130947D+00
     27  0.000000D+00  0.439083D-03 -0.100637D-02 -0.154938D-01  0.346466D-03
               26            27 
     26  0.173205D+00
     27  0.208102D-03  0.440708D-01
 Leave Link  716 at Tue Dec 15 17:05:27 2015, MaxMem=    33554432 cpu:         0.0
 (Enter /home/Applications/g09/g09/l103.exe)

 GradGradGradGradGradGradGradGradGradGradGradGradGradGradGradGradGradGrad
 Berny optimization.
 Search for a local minimum.
 Step number   1 out of a maximum of    2
 All quantities printed in internal units (Hartrees-Bohrs-Radians)
 Second derivative matrix not updated -- first step.
 ITU=  0
     Eigenvalues ---    0.01981   0.03114   0.06802   0.07626   0.08166
     Eigenvalues ---    0.09563   0.13075   0.14983   0.16078   0.24106
     Eigenvalues ---    0.27090   0.38637   0.45263   0.46103   0.65162
     Eigenvalues ---    0.79040   0.98721   1.23476   1.41831   1.81706
     Eigenvalues ---    2.06110
 Quadratic step=1.387D+00 exceeds max=3.000D-01 adjusted using Lamda=-1.006D+00.
 Angle between NR and scaled steps=  34.59 degrees.
 Angle between quadratic step and forces=  21.57 degrees.
 Linear search not attempted -- first point.
 TrRot=  0.001674 -0.001225 -0.000783 -0.901718 -0.000416  0.901067
 Variable       Old X    -DE/DX   Delta X   Delta X   Delta X     New X
                                 (Linear)    (Quad)   (Total)
    X1        1.79151   0.21579   0.00000   0.07814   0.07887   1.87038
    Y1       -1.44046   0.01391   0.00000  -0.00964  -0.01209  -1.45254
    Z1       -0.01592   0.00579   0.00000   0.00292   0.00309  -0.01283
    X2       -0.56405  -0.33682   0.00000  -0.14120  -0.14092  -0.70497
    Y2       -2.12087  -0.04006   0.00000  -0.02483  -0.02561  -2.14648
    Z2       -0.03848  -0.00227   0.00000  -0.00058  -0.00084  -0.03932
    X3       -2.23789   0.16035   0.00000   0.05973   0.06146  -2.17642
    Y3        0.07307   0.02001   0.00000  -0.00069  -0.00051   0.07256
    Z3       -0.03484  -0.00151   0.00000  -0.00065  -0.00202  -0.03685
    X4       -0.57971  -0.33929   0.00000  -0.11929  -0.11631  -0.69602
    Y4        1.99901  -0.03065   0.00000  -0.00029  -0.00106   1.99794
    Z4        0.01320  -0.01122   0.00000  -0.00566  -0.00727   0.00593
    X5        1.71879   0.29632   0.00000   0.11064   0.11321   1.83200
    Y5        1.35542  -0.00160   0.00000   0.02223   0.01982   1.37524
    Z5        0.00983  -0.00256   0.00000  -0.00171  -0.00247   0.00736
    X6        3.42854   0.04551   0.00000   0.05360   0.05694   3.48548
    Y6        2.55140   0.03240   0.00000   0.04031   0.03684   2.58824
    Z6        0.04965   0.00210   0.00000   0.00283   0.00211   0.05175
    X7       -1.50645  -0.06754   0.00000  -0.07087  -0.06668  -1.57313
    Y7        3.78595   0.13105   0.00000   0.10108   0.10091   3.88685
    Z7        0.06436   0.00927   0.00000   0.00933   0.00687   0.07124
    X8       -1.58975  -0.02995   0.00000  -0.04240  -0.04328  -1.63303
    Y8       -3.82015  -0.09217   0.00000  -0.08364  -0.08379  -3.90394
    Z8        0.04282   0.00270   0.00000   0.00226   0.00233   0.04515
    X9        3.44158   0.05564   0.00000   0.05679   0.05671   3.49829
    Y9       -2.67186  -0.03288   0.00000  -0.03100  -0.03451  -2.70637
    Z9       -0.01489  -0.00230   0.00000  -0.00281  -0.00181  -0.01669
         Item               Value     Threshold  Converged?
 Maximum Force            0.339292     0.000450     NO 
 RMS     Force            0.126271     0.000300     NO 
 Maximum Displacement     0.140918     0.001800     NO 
 RMS     Displacement     0.057754     0.001200     NO 
 Predicted change in Energy=-1.369766D-01
 GradGradGradGradGradGradGradGradGradGradGradGradGradGradGradGradGradGrad

 Leave Link  103 at Tue Dec 15 17:05:27 2015, MaxMem=    33554432 cpu:         0.0
 (Enter /home/Applications/g09/g09/l9999.exe)
 1\1\GINC-DUSTIN-DESKTOP\Force\RAM1-FC\STO-3G\C4H4O1\DUSTIN\15-Dec-2015
 \0\\#P AM1(Input,print) CIS(Singlets,NStates=15) pop(full) force\\AM1-
 Reparam Input\\0,1\C,0.948024,-0.762256,-0.008425\C,-0.298484,-1.12231
 8,-0.020363\O,-1.184238,0.038666,-0.018436\C,-0.30677,1.057828,0.00698
 4\C,0.909545,0.717256,0.005202\H,1.814305,1.350142,0.026272\H,-0.79717
 9,2.003436,0.03406\H,-0.841257,-2.021536,0.022662\H,1.821206,-1.413887
 ,-0.007877\\Version=ES64L-G09RevD.01\State=1-A\HF=2.8041368\RMSD=4.244
 e-09\RMSF=1.263e-01\Dipole=-3.8755754,-1.3269568,0.0024558\PG=C01 [X(C
 4H4O1)]\\@


 I DO NOT DEFINE TIME, SPACE, PLACE, AND MOTION, AS BEING WELL KNOWN TO ALL.
                                            -- NEWTON (1642-1726), PRINCIPIA
 Job cpu time:       0 days  0 hours  0 minutes  0.6 seconds.
 File lengths (MBytes):  RWF=      7 Int=      0 D2E=      0 Chk=      2 Scr=      1
 Normal termination of Gaussian 09 at Tue Dec 15 17:05:27 2015.
