 Entering Gaussian System, Link 0=g09
 Input=FuranAM1_9.com
 Output=FuranAM1_9.log
 Initial command:
 /home/Applications/g09/g09/l1.exe "/home/Applications/g09/scratch/Gau-5498.inp" -scrdir="/home/Applications/g09/scratch/"
 Entering Link 1 = /home/Applications/g09/g09/l1.exe PID=      5500.
  
 Copyright (c) 1988,1990,1992,1993,1995,1998,2003,2009,2013,
            Gaussian, Inc.  All Rights Reserved.
  
 This is part of the Gaussian(R) 09 program.  It is based on
 the Gaussian(R) 03 system (copyright 2003, Gaussian, Inc.),
 the Gaussian(R) 98 system (copyright 1998, Gaussian, Inc.),
 the Gaussian(R) 94 system (copyright 1995, Gaussian, Inc.),
 the Gaussian 92(TM) system (copyright 1992, Gaussian, Inc.),
 the Gaussian 90(TM) system (copyright 1990, Gaussian, Inc.),
 the Gaussian 88(TM) system (copyright 1988, Gaussian, Inc.),
 the Gaussian 86(TM) system (copyright 1986, Carnegie Mellon
 University), and the Gaussian 82(TM) system (copyright 1983,
 Carnegie Mellon University). Gaussian is a federally registered
 trademark of Gaussian, Inc.
  
 This software contains proprietary and confidential information,
 including trade secrets, belonging to Gaussian, Inc.
  
 This software is provided under written license and may be
 used, copied, transmitted, or stored only in accord with that
 written license.
  
 The following legend is applicable only to US Government
 contracts under FAR:
  
                    RESTRICTED RIGHTS LEGEND
  
 Use, reproduction and disclosure by the US Government is
 subject to restrictions as set forth in subparagraphs (a)
 and (c) of the Commercial Computer Software - Restricted
 Rights clause in FAR 52.227-19.
  
 Gaussian, Inc.
 340 Quinnipiac St., Bldg. 40, Wallingford CT 06492
  
  
 ---------------------------------------------------------------
 Warning -- This program may not be used in any manner that
 competes with the business of Gaussian, Inc. or will provide
 assistance to any competitor of Gaussian, Inc.  The licensee
 of this program is prohibited from giving any competitor of
 Gaussian, Inc. access to this program.  By using this program,
 the user acknowledges that Gaussian, Inc. is engaged in the
 business of creating and licensing software in the field of
 computational chemistry and represents and warrants to the
 licensee that it is not a competitor of Gaussian, Inc. and that
 it will not use this program in any manner prohibited above.
 ---------------------------------------------------------------
  

 Cite this work as:
 Gaussian 09, Revision D.01,
 M. J. Frisch, G. W. Trucks, H. B. Schlegel, G. E. Scuseria, 
 M. A. Robb, J. R. Cheeseman, G. Scalmani, V. Barone, B. Mennucci, 
 G. A. Petersson, H. Nakatsuji, M. Caricato, X. Li, H. P. Hratchian, 
 A. F. Izmaylov, J. Bloino, G. Zheng, J. L. Sonnenberg, M. Hada, 
 M. Ehara, K. Toyota, R. Fukuda, J. Hasegawa, M. Ishida, T. Nakajima, 
 Y. Honda, O. Kitao, H. Nakai, T. Vreven, J. A. Montgomery, Jr., 
 J. E. Peralta, F. Ogliaro, M. Bearpark, J. J. Heyd, E. Brothers, 
 K. N. Kudin, V. N. Staroverov, T. Keith, R. Kobayashi, J. Normand, 
 K. Raghavachari, A. Rendell, J. C. Burant, S. S. Iyengar, J. Tomasi, 
 M. Cossi, N. Rega, J. M. Millam, M. Klene, J. E. Knox, J. B. Cross, 
 V. Bakken, C. Adamo, J. Jaramillo, R. Gomperts, R. E. Stratmann, 
 O. Yazyev, A. J. Austin, R. Cammi, C. Pomelli, J. W. Ochterski, 
 R. L. Martin, K. Morokuma, V. G. Zakrzewski, G. A. Voth, 
 P. Salvador, J. J. Dannenberg, S. Dapprich, A. D. Daniels, 
 O. Farkas, J. B. Foresman, J. V. Ortiz, J. Cioslowski, 
 and D. J. Fox, Gaussian, Inc., Wallingford CT, 2013.
 
 ******************************************
 Gaussian 09:  ES64L-G09RevD.01 24-Apr-2013
                15-Dec-2015 
 ******************************************
 ------------------------------------------------------------
 #P AM1(Input,print) CIS(Singlets,NStates=15) pop(full) force
 ------------------------------------------------------------
 1/10=7,30=1,38=1/1,3;
 2/12=2,17=6,18=5,40=1/2;
 3/5=2,16=1,25=1,41=700000,71=1,135=100,136=1/1,2,8,3;
 4/35=1/1;
 5/5=2,35=1,38=5/2;
 8/6=1,10=1,108=15/1;
 9/15=2,41=15,42=1,48=1,49=10/14;
 10/5=4/2;
 6/7=3,18=1/1;
 7/12=6,13=5,29=1/1,2,3,16;
 1/10=7,30=1/3;
 99//99;
 Leave Link    1 at Tue Dec 15 16:12:07 2015, MaxMem=           0 cpu:         0.0
 (Enter /home/Applications/g09/g09/l101.exe)
 -----------------
 AM1-Reparam Input
 -----------------
 Symbolic Z-matrix:
 Charge =  0 Multiplicity = 1
 6                     0.988    -0.66656  -0.00728 
 6                    -0.31878  -1.05403   0.00862 
 8                    -1.18833   0.03972   0.01133 
 6                    -0.31402   1.08203  -0.00924 
 6                     0.96835   0.70346  -0.01875 
 1                     1.80206   1.34343  -0.02526 
 1                    -0.87089   2.05004  -0.03286 
 1                    -0.85936  -2.00286   0.02937 
 1                     1.83723  -1.37353   0.02088 
 
 NAtoms=      9 NQM=        9 NQMF=       0 NMMI=      0 NMMIF=      0
                NMic=       0 NMicF=      0.
                    Isotopes and Nuclear Properties:
 (Nuclear quadrupole moments (NQMom) in fm**2, nuclear magnetic moments (NMagM)
  in nuclear magnetons)

  Atom         1           2           3           4           5           6           7           8           9
 IAtWgt=          12          12          16          12          12           1           1           1           1
 AtmWgt=  12.0000000  12.0000000  15.9949146  12.0000000  12.0000000   1.0078250   1.0078250   1.0078250   1.0078250
 NucSpn=           0           0           0           0           0           1           1           1           1
 AtZEff=   0.0000000   0.0000000   0.0000000   0.0000000   0.0000000   0.0000000   0.0000000   0.0000000   0.0000000
 NQMom=    0.0000000   0.0000000   0.0000000   0.0000000   0.0000000   0.0000000   0.0000000   0.0000000   0.0000000
 NMagM=    0.0000000   0.0000000   0.0000000   0.0000000   0.0000000   2.7928460   2.7928460   2.7928460   2.7928460
 AtZNuc=   6.0000000   6.0000000   8.0000000   6.0000000   6.0000000   1.0000000   1.0000000   1.0000000   1.0000000
 Leave Link  101 at Tue Dec 15 16:12:07 2015, MaxMem=    33554432 cpu:         0.0
 (Enter /home/Applications/g09/g09/l103.exe)

 GradGradGradGradGradGradGradGradGradGradGradGradGradGradGradGradGradGrad
 Berny optimization.
 Initialization pass.
 Trust Radius=3.00D-01 FncErr=1.00D-07 GrdErr=1.00D-07
 Number of steps in this run=      2 maximum allowed number of steps=      2.
 GradGradGradGradGradGradGradGradGradGradGradGradGradGradGradGradGradGrad

 Leave Link  103 at Tue Dec 15 16:12:07 2015, MaxMem=    33554432 cpu:         0.0
 (Enter /home/Applications/g09/g09/l202.exe)
                          Input orientation:                          
 ---------------------------------------------------------------------
 Center     Atomic      Atomic             Coordinates (Angstroms)
 Number     Number       Type             X           Y           Z
 ---------------------------------------------------------------------
      1          6           0        0.988001   -0.666563   -0.007277
      2          6           0       -0.318781   -1.054031    0.008621
      3          8           0       -1.188327    0.039717    0.011334
      4          6           0       -0.314021    1.082031   -0.009239
      5          6           0        0.968351    0.703462   -0.018750
      6          1           0        1.802061    1.343429   -0.025263
      7          1           0       -0.870885    2.050039   -0.032863
      8          1           0       -0.859361   -2.002859    0.029371
      9          1           0        1.837234   -1.373533    0.020882
 ---------------------------------------------------------------------
                    Distance matrix (angstroms):
                    1          2          3          4          5
     1  C    0.000000
     2  C    1.363108   0.000000
     3  O    2.288139   1.397284   0.000000
     4  C    2.180102   2.136142   1.360607   0.000000
     5  C    1.370214   2.178587   2.256706   1.337117   0.000000
     6  H    2.168660   3.201083   3.262426   2.132226   1.051034
     7  H    3.291814   3.153060   2.035711   1.117003   2.279530
     8  H    2.280302   1.092214   2.068976   3.132959   3.266040
     9  H    1.105349   2.179595   3.339369   3.264751   2.251763
                    6          7          8          9
     6  H    0.000000
     7  H    2.764778   0.000000
     8  H    4.275955   4.053392   0.000000
     9  H    2.717581   4.365506   2.769070   0.000000
 Stoichiometry    C4H4O
 Framework group  C1[X(C4H4O)]
 Deg. of freedom    21
 Full point group                 C1      NOp   1
 Largest Abelian subgroup         C1      NOp   1
 Largest concise Abelian subgroup C1      NOp   1
                         Standard orientation:                         
 ---------------------------------------------------------------------
 Center     Atomic      Atomic             Coordinates (Angstroms)
 Number     Number       Type             X           Y           Z
 ---------------------------------------------------------------------
      1          6           0        1.167013   -0.258812   -0.004737
      2          6           0        0.108758   -1.117973   -0.004070
      3          8           0       -1.113809   -0.441459    0.003735
      4          6           0       -0.706110    0.856629    0.002176
      5          6           0        0.623408    0.998950   -0.000937
      6          1           0        1.147896    1.909734    0.006692
      7          1           0       -1.591595    1.537298   -0.015170
      8          1           0       -0.026602   -2.201753    0.001494
      9          1           0        2.222362   -0.586368    0.022516
 ---------------------------------------------------------------------
 Rotational constants (GHZ):      9.9933246      8.9918390      4.7332085
 Leave Link  202 at Tue Dec 15 16:12:07 2015, MaxMem=    33554432 cpu:         0.0
 (Enter /home/Applications/g09/g09/l301.exe)

 Semi-emprical parameters in input format:
 Method=8 CoreType=1 PeptideFC=0.0114510000 RIJScale=0.5291770000
 ****
 H       
 PQN=1 NValence=1 F0ss=0.4721550000 ZetaOverlap=1.1880780000 U=-0.4188110000
 Beta=-0.2268830000 CoreKO=1.0589200000 KON=0,0,0,1.0589200000 KON=1,0,1,1.0589200000
 KON=0,1,1,1.0589200000 KON=2,1,1,1.0589200000 EISol=-0.4188110042 EHeat=0.0830298228
 Alpha=1.5252600000
 GCore=0.0085280000,1.4001430000,2.2676710000
 GCore=0.0003530000,1.4001430000,3.4015070000
 GCore=-0.0012730000,0.5600570000,3.9684250000
 ****
 C       
 PQN=2,2 NValence=4 F0ss=0.4494440000 F0sp=0.4215150000 F0pp=0.3768030000 F2pp=0.1898720000
 G1sp=0.2679030000
 ZetaOverlap=1.8086650000,1.6851160000
 U=-1.9120180000,-1.4557970000
 Beta=-0.5775440000,-0.2836780000 DDN=0,1,0.8236740000 DDN=1,1,0.7268010000
 CoreKO=1.1124280000 KON=0,0,0,1.1124280000 KON=1,0,1,0.8219700000 KON=0,1,1,1.1124280000
 KON=2,1,1,0.7783930000 EISol=-4.4398989268 EHeat=0.2723305520 Alpha=1.4014060000
 DipHyp=1.6472532266
 GCore=0.0007890000,1.4001430000,3.0235620000
 GCore=0.0031890000,1.4001430000,3.4959930000
 GCore=-0.0013930000,1.4001430000,3.8739390000
 GCore=-0.0000880000,1.4001430000,5.0077740000
 ****
 O       
 PQN=2,2 NValence=6 F0ss=0.5666750000 F0sp=0.5321300000 F0pp=0.4958710000 F2pp=0.2358080000
 G1sp=0.4343770000
 ZetaOverlap=3.1080320000,2.5240390000
 U=-3.5951870000,-2.8760900000
 Beta=-1.0757550000,-1.0757550000 DDN=0,1,0.4988900000 DDN=1,1,0.4852320000
 CoreKO=0.8822960000 KON=0,0,0,0.8822960000 KON=1,0,1,0.5019540000 KON=0,1,1,0.8822960000
 KON=2,1,1,0.5515580000 EISol=-11.6164441184 EHeat=0.0949133088 Alpha=2.3576810000
 DipHyp=0.9977225968
 GCore=0.0195120000,1.4001430000,1.6023330000
 GCore=0.0056550000,1.9602000000,2.7307880000
 ****
 
 Standard basis: VSTO-6G (5D, 7F)
 Ernie: Thresh=  0.10000D-02 Tol=  0.10000D-05 Strict=F.
  NNHCO=     0 NNPyr=     0 NCTC=     0               EPep=         0.000000000
    EC=        68.865585609  ECS=         1.843808689   EG=         0.350316548
   EHC=         0.000000000  EAt=       -31.051283842  AtH=         1.516354808
 EPDDG=         0.000000000  ECC=        71.059710846 EAtT=        32.567638650
 There are    24 symmetry adapted cartesian basis functions of A   symmetry.
 There are    24 symmetry adapted basis functions of A   symmetry.
    24 basis functions,   144 primitive gaussians,    24 cartesian basis functions
    13 alpha electrons       13 beta electrons
       nuclear repulsion energy       103.6273494961 Hartrees.
 IExCor=    0 DFT=F Ex=HF Corr=None ExCW=0 ScaHFX=  1.000000
 ScaDFX=  1.000000  1.000000  1.000000  1.000000 ScalE2=  1.000000  1.000000
 IRadAn=      0 IRanWt=     -1 IRanGd=            0 ICorTp=0 IEmpDi=  4
 Integral buffers will be    131072 words long.
 Regular integral format.
 Two-electron integral symmetry is turned off.
 Leave Link  301 at Tue Dec 15 16:12:08 2015, MaxMem=    33554432 cpu:         0.0
 (Enter /home/Applications/g09/g09/l302.exe)
 Do NDO integrals.
 NPDir=0 NMtPBC=     1 NCelOv=     1 NCel=       1 NClECP=     1 NCelD=      1
         NCelK=      1 NCelE2=     1 NClLst=     1 CellRange=     0.0.
 One-electron integrals computed using PRISM.
 NBasis=    24 RedAO= F EigKep=  0.00D+00  NBF=    24
 NBsUse=    24 1.00D-04 EigRej=  0.00D+00 NBFU=    24
 Leave Link  302 at Tue Dec 15 16:12:08 2015, MaxMem=    33554432 cpu:         0.0
 (Enter /home/Applications/g09/g09/l308.exe)
 Leave Link  308 at Tue Dec 15 16:12:08 2015, MaxMem=    33554432 cpu:         0.0
 (Enter /home/Applications/g09/g09/l303.exe)
 DipDrv:  MaxL=1.
 Leave Link  303 at Tue Dec 15 16:12:08 2015, MaxMem=    33554432 cpu:         0.0
 (Enter /home/Applications/g09/g09/l401.exe)
 Simple Huckel Guess.
 JPrj=0 DoOrth=F DoCkMO=F.
 Leave Link  401 at Tue Dec 15 16:12:08 2015, MaxMem=    33554432 cpu:         0.0
 (Enter /home/Applications/g09/g09/l502.exe)
 Closed shell SCF:
 Using DIIS extrapolation, IDIIS=  1040.
 Overlap will be assumed to be unity.
 Two-electron integral symmetry not used.
 Keep J ints in memory in canonical form, NReq=888082.
 IVT=       79475 IEndB=       79475 NGot=    33554432 MDV=    33473473
 LenX=    33473473 LenY=    33472456
 Requested convergence on RMS density matrix=1.00D-08 within 128 cycles.
 Requested convergence on MAX density matrix=1.00D-06.
 Requested convergence on             energy=1.00D-06.
 No special actions if energy rises.
 FoFCou: FMM=F IPFlag=           0 FMFlag=           0 FMFlg1=           0
         NFxFlg=           0 DoJE=F BraDBF=F KetDBF=F FulRan=T
         wScrn=  0.000000 ICntrl=     600 IOpCl=  2 I1Cent=           0 NGrid=           0
         NMat0=    1 NMatS0=     54 NMatT0=    0 NMatD0=    1 NMtDS0=    0 NMtDT0=    0
 Symmetry not used in FoFCou.

 Cycle   1  Pass 1  IDiag  1:
 E= 0.345736068873691    
 DIIS: error= 6.71D-02 at cycle   1 NSaved=   1.
 NSaved= 1 IEnMin= 1 EnMin= 0.345736068873691     IErMin= 1 ErrMin= 6.71D-02
 ErrMax= 6.71D-02  0.00D+00 EMaxC= 1.00D-01 BMatC= 1.14D-01 BMatP= 1.14D-01
 IDIUse=3 WtCom= 3.29D-01 WtEn= 6.71D-01
 Coeff-Com:  0.100D+01
 Coeff-En:   0.100D+01
 Coeff:      0.100D+01
 GapD=    2.000 DampG=2.000 DampE=0.500 DampFc=1.0000 IDamp=-1.
 RMSDP=2.00D-02 MaxDP=1.63D-01              OVMax= 0.00D+00

 Cycle   2  Pass 1  IDiag  1:
 E= 0.550368220080060E-01 Delta-E=       -0.290699246866 Rises=F Damp=F
 DIIS: error= 1.93D-02 at cycle   2 NSaved=   2.
 NSaved= 2 IEnMin= 2 EnMin= 0.550368220080060E-01 IErMin= 2 ErrMin= 1.93D-02
 ErrMax= 1.93D-02  0.00D+00 EMaxC= 1.00D-01 BMatC= 9.72D-03 BMatP= 1.14D-01
 IDIUse=3 WtCom= 8.07D-01 WtEn= 1.93D-01
 Coeff-Com: -0.357D+00 0.136D+01
 Coeff-En:   0.000D+00 0.100D+01
 Coeff:     -0.288D+00 0.129D+01
 RMSDP=8.21D-03 MaxDP=6.88D-02 DE=-2.91D-01 OVMax= 0.00D+00

 Cycle   3  Pass 1  IDiag  3:
 E= 0.244916999840541E-01 Delta-E=       -0.030545122024 Rises=F Damp=F
 DIIS: error= 3.86D-03 at cycle   3 NSaved=   3.
 NSaved= 3 IEnMin= 3 EnMin= 0.244916999840541E-01 IErMin= 3 ErrMin= 3.86D-03
 ErrMax= 3.86D-03  0.00D+00 EMaxC= 1.00D-01 BMatC= 3.40D-04 BMatP= 9.72D-03
 IDIUse=3 WtCom= 9.61D-01 WtEn= 3.86D-02
 Coeff-Com:  0.143D+00-0.617D+00 0.147D+01
 Coeff-En:   0.000D+00 0.000D+00 0.100D+01
 Coeff:      0.137D+00-0.593D+00 0.146D+01
 Gap=     0.370 Goal=   None    Shift=    0.000
 RMSDP=2.36D-03 MaxDP=2.33D-02 DE=-3.05D-02 OVMax= 2.85D-02

 Cycle   4  Pass 1  IDiag  3:
 E= 0.227126541946916E-01 Delta-E=       -0.001779045789 Rises=F Damp=F
 DIIS: error= 1.05D-03 at cycle   4 NSaved=   4.
 NSaved= 4 IEnMin= 4 EnMin= 0.227126541946916E-01 IErMin= 4 ErrMin= 1.05D-03
 ErrMax= 1.05D-03  0.00D+00 EMaxC= 1.00D-01 BMatC= 2.31D-05 BMatP= 3.40D-04
 IDIUse=3 WtCom= 9.90D-01 WtEn= 1.05D-02
 Coeff-Com:  0.181D-01-0.725D-01-0.109D+00 0.116D+01
 Coeff-En:   0.000D+00 0.000D+00 0.000D+00 0.100D+01
 Coeff:      0.179D-01-0.717D-01-0.108D+00 0.116D+01
 Gap=     0.371 Goal=   None    Shift=    0.000
 RMSDP=6.87D-04 MaxDP=7.67D-03 DE=-1.78D-03 OVMax= 8.70D-03

 Cycle   5  Pass 1  IDiag  3:
 E= 0.225811552074617E-01 Delta-E=       -0.000131498987 Rises=F Damp=F
 DIIS: error= 1.92D-04 at cycle   5 NSaved=   5.
 NSaved= 5 IEnMin= 5 EnMin= 0.225811552074617E-01 IErMin= 5 ErrMin= 1.92D-04
 ErrMax= 1.92D-04  0.00D+00 EMaxC= 1.00D-01 BMatC= 1.65D-06 BMatP= 2.31D-05
 IDIUse=3 WtCom= 9.98D-01 WtEn= 1.92D-03
 Coeff-Com: -0.782D-02 0.335D-01 0.118D-02-0.455D+00 0.143D+01
 Coeff-En:   0.000D+00 0.000D+00 0.000D+00 0.000D+00 0.100D+01
 Coeff:     -0.780D-02 0.335D-01 0.117D-02-0.454D+00 0.143D+01
 Gap=     0.371 Goal=   None    Shift=    0.000
 RMSDP=2.27D-04 MaxDP=1.70D-03 DE=-1.31D-04 OVMax= 2.55D-03

 Cycle   6  Pass 1  IDiag  3:
 E= 0.225690993805898E-01 Delta-E=       -0.000012055827 Rises=F Damp=F
 DIIS: error= 9.65D-05 at cycle   6 NSaved=   6.
 NSaved= 6 IEnMin= 6 EnMin= 0.225690993805898E-01 IErMin= 6 ErrMin= 9.65D-05
 ErrMax= 9.65D-05  0.00D+00 EMaxC= 1.00D-01 BMatC= 1.71D-07 BMatP= 1.65D-06
 IDIUse=1 WtCom= 1.00D+00 WtEn= 0.00D+00
 Coeff-Com:  0.221D-02-0.893D-02 0.823D-02 0.105D+00-0.600D+00 0.149D+01
 Coeff:      0.221D-02-0.893D-02 0.823D-02 0.105D+00-0.600D+00 0.149D+01
 Gap=     0.371 Goal=   None    Shift=    0.000
 RMSDP=9.03D-05 MaxDP=7.57D-04 DE=-1.21D-05 OVMax= 1.18D-03

 Cycle   7  Pass 1  IDiag  3:
 E= 0.225675370213594E-01 Delta-E=       -0.000001562359 Rises=F Damp=F
 DIIS: error= 3.63D-05 at cycle   7 NSaved=   7.
 NSaved= 7 IEnMin= 7 EnMin= 0.225675370213594E-01 IErMin= 7 ErrMin= 3.63D-05
 ErrMax= 3.63D-05  0.00D+00 EMaxC= 1.00D-01 BMatC= 1.70D-08 BMatP= 1.71D-07
 IDIUse=1 WtCom= 1.00D+00 WtEn= 0.00D+00
 Coeff-Com: -0.366D-03 0.933D-03-0.804D-03-0.253D-01 0.188D+00-0.778D+00
 Coeff-Com:  0.162D+01
 Coeff:     -0.366D-03 0.933D-03-0.804D-03-0.253D-01 0.188D+00-0.778D+00
 Coeff:      0.162D+01
 Gap=     0.371 Goal=   None    Shift=    0.000
 RMSDP=3.56D-05 MaxDP=3.32D-04 DE=-1.56D-06 OVMax= 4.27D-04

 Cycle   8  Pass 1  IDiag  3:
 E= 0.225673685002761E-01 Delta-E=       -0.000000168521 Rises=F Damp=F
 DIIS: error= 6.48D-06 at cycle   8 NSaved=   8.
 NSaved= 8 IEnMin= 8 EnMin= 0.225673685002761E-01 IErMin= 8 ErrMin= 6.48D-06
 ErrMax= 6.48D-06  0.00D+00 EMaxC= 1.00D-01 BMatC= 6.25D-10 BMatP= 1.70D-08
 IDIUse=1 WtCom= 1.00D+00 WtEn= 0.00D+00
 Coeff-Com:  0.555D-04 0.862D-04-0.707D-03 0.109D-01-0.707D-01 0.316D+00
 Coeff-Com: -0.787D+00 0.153D+01
 Coeff:      0.555D-04 0.862D-04-0.707D-03 0.109D-01-0.707D-01 0.316D+00
 Coeff:     -0.787D+00 0.153D+01
 Gap=     0.371 Goal=   None    Shift=    0.000
 RMSDP=5.83D-06 MaxDP=5.58D-05 DE=-1.69D-07 OVMax= 7.25D-05

 Cycle   9  Pass 1  IDiag  3:
 E= 0.225673634579238E-01 Delta-E=       -0.000000005042 Rises=F Damp=F
 DIIS: error= 9.63D-07 at cycle   9 NSaved=   9.
 NSaved= 9 IEnMin= 9 EnMin= 0.225673634579238E-01 IErMin= 9 ErrMin= 9.63D-07
 ErrMax= 9.63D-07  0.00D+00 EMaxC= 1.00D-01 BMatC= 2.73D-11 BMatP= 6.25D-10
 IDIUse=1 WtCom= 1.00D+00 WtEn= 0.00D+00
 Coeff-Com:  0.212D-04-0.218D-03 0.440D-03-0.271D-02 0.191D-01-0.101D+00
 Coeff-Com:  0.280D+00-0.680D+00 0.149D+01
 Coeff:      0.212D-04-0.218D-03 0.440D-03-0.271D-02 0.191D-01-0.101D+00
 Coeff:      0.280D+00-0.680D+00 0.149D+01
 Gap=     0.371 Goal=   None    Shift=    0.000
 RMSDP=9.61D-07 MaxDP=7.83D-06 DE=-5.04D-09 OVMax= 1.23D-05

 Cycle  10  Pass 1  IDiag  3:
 E= 0.225673632876919E-01 Delta-E=       -0.000000000170 Rises=F Damp=F
 DIIS: error= 1.39D-07 at cycle  10 NSaved=  10.
 NSaved=10 IEnMin=10 EnMin= 0.225673632876919E-01 IErMin=10 ErrMin= 1.39D-07
 ErrMax= 1.39D-07  0.00D+00 EMaxC= 1.00D-01 BMatC= 1.04D-12 BMatP= 2.73D-11
 IDIUse=1 WtCom= 1.00D+00 WtEn= 0.00D+00
 Coeff-Com: -0.131D-04 0.102D-03-0.198D-03 0.908D-03-0.607D-02 0.335D-01
 Coeff-Com: -0.953D-01 0.241D+00-0.643D+00 0.147D+01
 Coeff:     -0.131D-04 0.102D-03-0.198D-03 0.908D-03-0.607D-02 0.335D-01
 Coeff:     -0.953D-01 0.241D+00-0.643D+00 0.147D+01
 Gap=     0.371 Goal=   None    Shift=    0.000
 RMSDP=1.69D-07 MaxDP=1.03D-06 DE=-1.70D-10 OVMax= 1.79D-06

 Cycle  11  Pass 1  IDiag  3:
 E= 0.225673632814534E-01 Delta-E=       -0.000000000006 Rises=F Damp=F
 DIIS: error= 2.21D-08 at cycle  11 NSaved=  11.
 NSaved=11 IEnMin=11 EnMin= 0.225673632814534E-01 IErMin=11 ErrMin= 2.21D-08
 ErrMax= 2.21D-08  0.00D+00 EMaxC= 1.00D-01 BMatC= 3.50D-14 BMatP= 1.04D-12
 IDIUse=1 WtCom= 1.00D+00 WtEn= 0.00D+00
 Coeff-Com:  0.376D-05-0.307D-04 0.589D-04-0.279D-03 0.184D-02-0.103D-01
 Coeff-Com:  0.292D-01-0.735D-01 0.202D+00-0.551D+00 0.140D+01
 Coeff:      0.376D-05-0.307D-04 0.589D-04-0.279D-03 0.184D-02-0.103D-01
 Coeff:      0.292D-01-0.735D-01 0.202D+00-0.551D+00 0.140D+01
 Gap=     0.371 Goal=   None    Shift=    0.000
 RMSDP=2.97D-08 MaxDP=1.76D-07 DE=-6.24D-12 OVMax= 2.07D-07

 Cycle  12  Pass 1  IDiag  3:
 E= 0.225673632813681E-01 Delta-E=        0.000000000000 Rises=F Damp=F
 DIIS: error= 6.04D-09 at cycle  12 NSaved=  12.
 NSaved=12 IEnMin=12 EnMin= 0.225673632813681E-01 IErMin=12 ErrMin= 6.04D-09
 ErrMax= 6.04D-09  0.00D+00 EMaxC= 1.00D-01 BMatC= 2.35D-15 BMatP= 3.50D-14
 IDIUse=1 WtCom= 1.00D+00 WtEn= 0.00D+00
 Coeff-Com: -0.836D-06 0.724D-05-0.135D-04 0.673D-04-0.439D-03 0.249D-02
 Coeff-Com: -0.701D-02 0.174D-01-0.487D-01 0.147D+00-0.578D+00 0.147D+01
 Coeff:     -0.836D-06 0.724D-05-0.135D-04 0.673D-04-0.439D-03 0.249D-02
 Coeff:     -0.701D-02 0.174D-01-0.487D-01 0.147D+00-0.578D+00 0.147D+01
 Gap=     0.371 Goal=   None    Shift=    0.000
 RMSDP=8.61D-09 MaxDP=3.78D-08 DE=-8.53D-14 OVMax= 6.91D-08

 Cycle  13  Pass 2  IDiag  1:
 SCF Done:  E(RAM1) =  0.225673632814E-01 A.U. after   13 cycles
            NFock= 12  Conv=0.86D-08     -V/T= 1.0014
 KE=-1.656273905690D+01 PE=-1.713313576760D+02 EE= 8.428931460016D+01
 Leave Link  502 at Tue Dec 15 16:12:08 2015, MaxMem=    33554432 cpu:         0.0
 (Enter /home/Applications/g09/g09/l801.exe)
 Range of M.O.s used for correlation:     1    24
 NBasis=    24 NAE=    13 NBE=    13 NFC=     0 NFV=     0
 NROrb=     24 NOA=    13 NOB=    13 NVA=    11 NVB=    11
 Leave Link  801 at Tue Dec 15 16:12:08 2015, MaxMem=    33554432 cpu:         0.0
 (Enter /home/Applications/g09/g09/l914.exe)
 RHF ground state
 MDV=    33554432 DFT=F DoStab=F Mixed=F DoRPA=F DoScal=F NonHer=F
 Making orbital integer symmetry assigments:
 Orbital symmetries:
       Occupied  (A) (A) (A) (A) (A) (A) (A) (A) (A) (A) (A) (A)
                 (A)
       Virtual   (A) (A) (A) (A) (A) (A) (A) (A) (A) (A) (A)
    60 initial guesses have been made.
 Convergence on wavefunction:    0.000001000000000
 Davidson Disk Diagonalization:  ConvIn= 1.00D-06 SkipCon=T Conv= 1.00D-06.
 Max sub-space:   240 roots to seek:    60 dimension of matrix:          286
 Iteration     1 Dimension    60 NMult     0 NNew     60
 CISAX will form    60 AO SS matrices at one time.
 NMat=    60 NSing=    60 JSym2X= 0.
 FoFJK:  IHMeth= 8 ICntrl=       0 DoSepK=F KAlg= 0 I1Cent=   0 FoldK=F
 IRaf=         1 NMat= 120 IRICut=       1 DoRegI=T DoRafI=F ISym2E= 0.
 FoFCou: FMM=F IPFlag=           0 FMFlag=      100000 FMFlg1=           0
         NFxFlg=           0 DoJE=F BraDBF=F KetDBF=F FulRan=T
         wScrn=  0.000000 ICntrl=       0 IOpCl=  0 I1Cent=           0 NGrid=           0
         NMat0=  120 NMatS0=     60 NMatT0=    0 NMatD0=  120 NMtDS0=    0 NMtDT0=    0
 Symmetry not used in FoFCou.
 New state      3 was old state      4
 New state      4 was old state      7
 New state      5 was old state      8
 New state      7 was old state      3
 New state      8 was old state      9
 New state      9 was old state      5
 New state     10 was old state     12
 New state     12 was old state     16
 New state     13 was old state     10
 New state     14 was old state     17
 New state     15 was old state     18
 Excitation Energies [eV] at current iteration:
 Root      1 :     4.386711056371598
 Root      2 :     5.102585806034480
 Root      3 :     5.131241507818089
 Root      4 :     5.980289590918424
 Root      5 :     6.114208431773867
 Root      6 :     6.412474770235084
 Root      7 :     6.514097147387147
 Root      8 :     6.528565453948567
 Root      9 :     6.811082676161170
 Root     10 :     7.200873533567218
 Root     11 :     7.314350575012561
 Root     12 :     7.443569111003499
 Root     13 :     7.609201458138663
 Root     14 :     7.703834833274452
 Root     15 :     7.735630568617371
 Root     16 :     7.824924606176769
 Root     17 :     7.870864820069533
 Root     18 :     8.164737288657628
 Root     19 :     8.330318723026156
 Root     20 :     8.357477491063367
 Root     21 :     8.752783823980735
 Root     22 :     8.835315508524813
 Root     23 :     9.170440659950168
 Root     24 :     9.318234801868044
 Root     25 :     9.402454671064673
 Root     26 :     9.587742135932672
 Root     27 :     9.689669423478952
 Root     28 :     9.814127227942839
 Root     29 :     9.927572952148079
 Root     30 :     9.938143017718845
 Root     31 :     9.973110685958263
 Root     32 :    10.103007603859840
 Root     33 :    10.187656481879560
 Root     34 :    10.330746480688940
 Root     35 :    10.443797071844890
 Root     36 :    10.538350703709470
 Root     37 :    10.566327103897500
 Root     38 :    10.708035973513200
 Root     39 :    10.777328281342570
 Root     40 :    10.810010117496080
 Root     41 :    10.974451143658380
 Root     42 :    11.170481347178460
 Root     43 :    11.389198351480230
 Root     44 :    11.432854858991910
 Root     45 :    11.515321516674450
 Root     46 :    11.676706309266700
 Root     47 :    11.923276134572680
 Root     48 :    11.954988044599990
 Root     49 :    12.053237206431720
 Root     50 :    12.168612540559620
 Root     51 :    12.314058297248780
 Root     52 :    12.694584958436720
 Root     53 :    12.828160906987510
 Root     54 :    12.886376692056200
 Root     55 :    13.096781755397940
 Root     56 :    13.222647922486740
 Root     57 :    13.394507448486590
 Root     58 :    13.492889929463650
 Root     59 :    13.648795077271980
 Root     60 :    13.803492238289850
 Iteration     2 Dimension   120 NMult    60 NNew     60
 CISAX will form    60 AO SS matrices at one time.
 NMat=    60 NSing=    60 JSym2X= 0.
 Root      1 not converged, maximum delta is    0.037077682246970
 Root      2 not converged, maximum delta is    0.117872602266575
 Root      3 not converged, maximum delta is    0.099589350827136
 Root      4 not converged, maximum delta is    0.050930015057010
 Root      5 not converged, maximum delta is    0.067000394005760
 Root      6 not converged, maximum delta is    0.335167135815076
 Root      7 not converged, maximum delta is    0.325655000474729
 Root      8 not converged, maximum delta is    0.087439668684870
 Root      9 not converged, maximum delta is    0.021041340303432
 Root     10 not converged, maximum delta is    0.065599393967851
 Root     11 not converged, maximum delta is    0.082466249418886
 Root     12 not converged, maximum delta is    0.047077890302366
 New state     13 was old state     14
 Root     13 not converged, maximum delta is    0.263325884464846
 New state     14 was old state     13
 Root     14 not converged, maximum delta is    0.302173590268719
 Root     15 not converged, maximum delta is    0.110397485398149
 Excitation Energies [eV] at current iteration:
 Root      1 :     4.298999112101463   Change is   -0.087711944270135
 Root      2 :     5.083868090107524   Change is   -0.018717715926956
 Root      3 :     5.108256826096671   Change is   -0.022984681721418
 Root      4 :     5.891952902396048   Change is   -0.088336688522377
 Root      5 :     5.979866771782422   Change is   -0.134341659991444
 Root      6 :     6.353471161127571   Change is   -0.059003609107513
 Root      7 :     6.379993929633073   Change is   -0.134103217754073
 Root      8 :     6.397603253408580   Change is   -0.130962200539987
 Root      9 :     6.764920548008512   Change is   -0.046162128152658
 Root     10 :     7.078805762426159   Change is   -0.122067771141059
 Root     11 :     7.198066933780174   Change is   -0.116283641232387
 Root     12 :     7.387903047409983   Change is   -0.055666063593516
 Root     13 :     7.486110959277426   Change is   -0.217723873997026
 Root     14 :     7.555480490086151   Change is   -0.053720968052511
 Root     15 :     7.687769460719433   Change is   -0.047861107897939
 Root     16 :     7.710198336012854   Change is   -0.114726270163915
 Root     17 :     7.826324236857853   Change is   -0.044540583211680
 Root     18 :     8.003798531543891   Change is   -0.160938757113737
 Root     19 :     8.157679724498069   Change is   -0.172638998528086
 Root     20 :     8.266017921698472   Change is   -0.091459569364894
 Root     21 :     8.729880242529122   Change is   -0.022903581451613
 Root     22 :     8.815390897219730   Change is   -0.019924611305082
 Root     23 :     8.905406283259644   Change is   -0.265034376690524
 Root     24 :     8.960139579387556   Change is   -0.358095222480487
 Root     25 :     9.098367816015518   Change is   -0.304086855049155
 Root     26 :     9.319605326684785   Change is   -0.618537691034059
 Root     27 :     9.398425225050003   Change is   -0.704582378809840
 Root     28 :     9.427693978272700   Change is   -0.160048157659971
 Root     29 :     9.651279628653745   Change is   -0.038389794825207
 Root     30 :     9.696724236327730   Change is   -0.634022244361206
 Root     31 :     9.708303927866266   Change is   -0.219269024281812
 Root     32 :     9.791160538433470   Change is   -0.022966689509369
 Root     33 :     9.810897114037971   Change is   -0.755429989859529
 Root     34 :     9.895590390254036   Change is   -0.077520295704227
 Root     35 :     9.937023959927911   Change is   -0.250632521951645
 Root     36 :     9.947764111717087   Change is   -0.496032960127806
 Root     37 :    10.077094266201490   Change is   -0.700234015141074
 Root     38 :    10.140977627775690   Change is   -0.669032489720390
 Root     39 :    10.335749435976870   Change is   -0.202601267732598
 Root     40 :    10.569142850338810   Change is   -0.405308293319578
 Root     41 :    10.651466844066310   Change is   -0.056569129446881
 Root     42 :    10.720084553326370   Change is   -0.450396793852083
 Root     43 :    10.914477829100920   Change is   -0.600843687573532
 Root     44 :    11.006746342074320   Change is   -0.382452009405918
 Root     45 :    11.066115262121980   Change is   -0.366739596869928
 Root     46 :    11.365856825787020   Change is   -0.310849483479679
 Root     47 :    11.471729589491130   Change is   -0.451546545081555
 Root     48 :    11.617719221223350   Change is   -0.337268823376643
 Root     49 :    11.698137443311260   Change is   -0.355099763120468
 Root     50 :    11.866066376403690   Change is   -0.447991920845083
 Root     51 :    12.001078040442130   Change is   -0.167534500117480
 Root     52 :    12.145585828783280   Change is   -0.548999129653440
 Root     53 :    12.457972841746820   Change is   -0.428403850309380
 Root     54 :    12.584528291939700
 Root     55 :    12.653756925281010   Change is   -0.740750523205582
 Root     56 :    12.727945286525720   Change is   -0.494702635961015
 Root     57 :    12.778996198163630   Change is   -0.049164708823876
 Root     58 :    12.858951837700800   Change is   -0.237829917697136
 Root     59 :    13.076703526417830   Change is   -0.416186403045821
 Root     60 :    13.219836096488160
 Iteration     3 Dimension   135 NMult   120 NNew     15
 CISAX will form    15 AO SS matrices at one time.
 NMat=    15 NSing=    15 JSym2X= 0.
 Root      1 not converged, maximum delta is    0.002160905738004
 Root      2 not converged, maximum delta is    0.000252764298445
 Root      3 not converged, maximum delta is    0.000221806906761
 Root      4 not converged, maximum delta is    0.000045489346237
 Root      5 not converged, maximum delta is    0.000053594920173
 Root      6 not converged, maximum delta is    0.005921270928843
 Root      7 not converged, maximum delta is    0.006269331275490
 Root      8 not converged, maximum delta is    0.002024977505911
 Root      9 not converged, maximum delta is    0.003594548606951
 Root     10 not converged, maximum delta is    0.000124223811913
 Root     11 not converged, maximum delta is    0.000207255372525
 Root     12 not converged, maximum delta is    0.000119802568173
 Root     13 not converged, maximum delta is    0.000183275738264
 Root     14 not converged, maximum delta is    0.000083528840221
 Root     15 not converged, maximum delta is    0.000055991348774
 Excitation Energies [eV] at current iteration:
 Root      1 :     4.298604453535975   Change is   -0.000394658565487
 Root      2 :     5.083854345541072   Change is   -0.000013744566452
 Root      3 :     5.108246380209601   Change is   -0.000010445887070
 Root      4 :     5.891952320525521   Change is   -0.000000581870526
 Root      5 :     5.979866176542946   Change is   -0.000000595239476
 Root      6 :     6.353000513256326   Change is   -0.000470647871245
 Root      7 :     6.379634003504673   Change is   -0.000359926128400
 Root      8 :     6.397590712001559   Change is   -0.000012541407021
 Root      9 :     6.764101484632613   Change is   -0.000819063375899
 Root     10 :     7.078804132582381   Change is   -0.000001629843777
 Root     11 :     7.198059221555702   Change is   -0.000007712224472
 Root     12 :     7.387901975856679   Change is   -0.000001071553304
 Root     13 :     7.486108049146566   Change is   -0.000002910130860
 Root     14 :     7.555478909648357   Change is   -0.000001580437795
 Root     15 :     7.687768918104563   Change is   -0.000000542614869
 Iteration     4 Dimension   143 NMult   135 NNew      8
 CISAX will form     8 AO SS matrices at one time.
 NMat=     8 NSing=     8 JSym2X= 0.
 Root      1 not converged, maximum delta is    0.000041145108250
 Root      2 not converged, maximum delta is    0.000006725404595
 Root      3 not converged, maximum delta is    0.000006458615597
 Root      4 not converged, maximum delta is    0.000002256825264
 Root      5 not converged, maximum delta is    0.000001955858198
 Root      6 not converged, maximum delta is    0.000068012126910
 Root      7 not converged, maximum delta is    0.000058898592966
 Root      8 not converged, maximum delta is    0.000009862188356
 Root      9 not converged, maximum delta is    0.000122380669757
 Root     10 not converged, maximum delta is    0.000003459373710
 Root     11 not converged, maximum delta is    0.000005593037233
 Root     12 not converged, maximum delta is    0.000003281097235
 Root     13 not converged, maximum delta is    0.000005836023167
 Root     14 not converged, maximum delta is    0.000004073546425
 Root     15 not converged, maximum delta is    0.000002215795026
 Excitation Energies [eV] at current iteration:
 Root      1 :     4.298603843005152   Change is   -0.000000610530824
 Root      2 :     5.083854324072723   Change is   -0.000000021468349
 Root      3 :     5.108246360116286   Change is   -0.000000020093315
 Root      4 :     5.891952318697284   Change is   -0.000000001828237
 Root      5 :     5.979866175792301   Change is   -0.000000000750645
 Root      6 :     6.352999277807911   Change is   -0.000001235448415
 Root      7 :     6.379633096484149   Change is   -0.000000907020525
 Root      8 :     6.397590687824663   Change is   -0.000000024176896
 Root      9 :     6.764098952025362   Change is   -0.000002532607251
 Root     10 :     7.078804128928125   Change is   -0.000000003654257
 Root     11 :     7.198059212333805   Change is   -0.000000009221896
 Root     12 :     7.387901973176439   Change is   -0.000000002680239
 Root     13 :     7.486108042589598   Change is   -0.000000006556968
 Root     14 :     7.555478904832365   Change is   -0.000000004815991
 Root     15 :     7.687768916939246   Change is   -0.000000001165318
 Convergence achieved on expansion vectors.
 ***********************************************************************
 Excited states from <AA,BB:AA,BB> singles matrix:
 ***********************************************************************
 
 1PDM for each excited state written to RWF  633
 Ground to excited state transition densities written to RWF  633
 Ground to excited state transition electric dipole moments (Au):
       state          X           Y           Z        Dip. S.      Osc.
         1        -0.3360      0.9212      0.0059      0.9615      0.1013
         2         0.2380      0.0838      0.0195      0.0640      0.0080
         3        -0.1966     -0.0626      0.0248      0.0432      0.0054
         4        -0.0179     -0.0080     -0.1598      0.0259      0.0037
         5        -0.0011      0.0042      0.0281      0.0008      0.0001
         6         1.0945      0.4034      0.0168      1.3609      0.2118
         7        -0.9386     -0.3668      0.0361      1.0168      0.1589
         8        -0.1655     -0.0913      0.0221      0.0362      0.0057
         9         0.2228     -0.8328     -0.0074      0.7432      0.1232
        10         0.0100     -0.0102      0.0122      0.0004      0.0001
        11        -0.0239     -0.0055      0.0248      0.0012      0.0002
        12         0.0022      0.0046     -0.1046      0.0110      0.0020
        13         0.0211     -0.0028      0.0388      0.0020      0.0004
        14        -0.0136     -0.0047      0.0672      0.0047      0.0009
        15        -0.0080     -0.0024     -0.2729      0.0745      0.0140
 Ground to excited state transition velocity dipole moments (Au):
       state          X           Y           Z        Dip. S.      Osc.
         1         0.0123     -0.0435      0.0010      0.0020      0.0086
         2        -0.0142     -0.0072     -0.0102      0.0004      0.0013
         3         0.0116      0.0058     -0.0077      0.0002      0.0008
         4         0.0050      0.0016      0.0953      0.0091      0.0280
         5         0.0012     -0.0006     -0.0222      0.0005      0.0015
         6        -0.2311     -0.0850     -0.1191      0.0748      0.2136
         7         0.1992      0.0779     -0.1433      0.0663      0.1884
         8         0.0357      0.0183      0.0017      0.0016      0.0046
         9        -0.0381      0.1604      0.0034      0.0272      0.0729
        10        -0.0015      0.0023      0.0072      0.0001      0.0002
        11         0.0055      0.0017      0.0116      0.0002      0.0004
        12        -0.0021     -0.0001     -0.0226      0.0005      0.0013
        13        -0.0064      0.0002     -0.0079      0.0001      0.0002
        14         0.0036      0.0028     -0.0442      0.0020      0.0047
        15         0.0018      0.0003      0.0588      0.0035      0.0082
 Ground to excited state transition magnetic dipole moments (Au):
       state          X           Y           Z
         1         0.0000     -0.0060     -0.6627
         2         0.4105      0.1966      0.0186
         3         0.4737      0.2260     -0.0094
         4        -0.0550      0.2673     -0.0014
         5        -0.0021     -0.0317     -0.0015
         6        -0.0521      0.0425      0.0262
         7        -0.0926      0.1002     -0.0254
         8         0.1473     -0.2222      0.0029
         9         0.0017     -0.0057      0.0857
        10        -0.8738     -0.3393     -0.0061
        11         0.6735     -0.1892      0.0047
        12        -0.5005      1.7284     -0.0129
        13         0.0995      0.0200     -0.0100
        14        -0.0386      0.0290     -0.0031
        15         0.2712     -0.5697     -0.0073
 Ground to excited state transition velocity quadrupole moments (Au):
       state          XX          YY          ZZ          XY          XZ          YZ
         1        -0.3087      0.2959      0.0060      0.2872     -0.0001     -0.0031
         2        -0.0689      0.0323      0.0561     -0.0936      0.0413     -0.0784
         3         0.0634     -0.0286     -0.0487      0.0814      0.0449     -0.0922
         4         0.0019     -0.0033      0.0048     -0.0008     -0.2272     -0.1596
         5         0.0047     -0.0045     -0.0040      0.0001      0.1159     -0.1237
         6        -0.1672      0.3007     -0.0443     -0.1600      0.0411      0.0130
         7         0.1372     -0.2457      0.0384      0.1546      0.0365      0.0167
         8         0.0219     -0.0356      0.0021      0.0371      0.1339      0.0459
         9        -0.4169      0.3935      0.0079      0.4265     -0.0111      0.0030
        10        -0.0140      0.0116      0.0045      0.0100      0.0985     -0.1381
        11        -0.0017     -0.0115      0.0042      0.0031      0.0544     -0.1425
        12        -0.0171      0.0061     -0.0009      0.0070      0.0226     -0.0388
        13        -0.0153      0.0145      0.0015      0.0049      0.1152      0.0999
        14         0.0107     -0.0002     -0.0056     -0.0017     -0.3186     -0.2422
        15        -0.0054      0.0000      0.0018      0.0009      0.3027      0.1352
 <0|del|b> * <b|rxdel|0> + <0|del|b> * <b|delr+rdel|0>
 Rotatory Strengths (R) in cgs (10**-40 erg-esu-cm/Gauss)
       state          XX          YY          ZZ    R(velocity)    E-M Angle
         1        -0.2445     -2.1582      0.6754     -0.5758       90.74
         2        -0.6597    -11.0697    -16.3353     -9.3549      149.59
         3         0.9298      9.6383     15.2922      8.6201       29.86
         4         0.9315     -1.8635      0.9638      0.0106       90.00
         5         0.1808     -0.1823      0.1552      0.0512       90.00
         6        23.9551    -19.9283     12.0250      5.3506       74.43
         7       -20.4434     16.0988    -16.7637     -7.0361      101.30
         8        -9.6994     10.2927      3.0193      1.2042       83.56
         9         3.7123     -1.8954     -3.7591     -0.6474       92.76
        10        -1.3291      1.9598      0.7866      0.4724       85.85
        11        -0.4402      3.9269      5.6877      3.0581       67.75
        12        -0.0533      2.0826      1.0507      1.0267       88.34
        13         0.0245     -1.4879      0.0427     -0.4736      122.28
        14         1.5093     -1.1975     -0.1087      0.0677       90.00
        15        -0.7771      0.2952      0.2084     -0.0912       90.17
 1/2[<0|r|b>*<b|rxdel|0> + (<0|rxdel|b>*<b|r|0>)*]
 Rotatory Strengths (R) in cgs (10**-40 erg-esu-cm/Gauss)
       state          XX          YY          ZZ     R(length)
         1         0.0083      3.8989      2.7743      2.2272
         2       -69.0813    -11.6576     -0.2563    -26.9984
         3        65.8644     10.0050      0.1653     25.3449
         4        -0.6978      1.5118     -0.1580      0.2187
         5        -0.0016      0.0948      0.0292      0.0408
         6        40.3193    -12.1362     -0.3118      9.2904
         7       -61.4517     25.9857      0.6477    -11.6061
         8        17.2458    -14.3413     -0.0446      0.9533
         9        -0.2684     -3.3326      0.4495     -1.0505
        10         6.1981     -2.4554      0.0526      1.2651
        11        11.3904     -0.7339     -0.0814      3.5250
        12         0.7951     -5.6533     -0.9521     -1.9368
        13        -1.4878      0.0395      0.2759     -0.3908
        14        -0.3714      0.0974      0.1465     -0.0425
        15         1.5274     -0.9765     -1.4149     -0.2880
  1/2[<0|del|b>*<b|r|0> + (<0|r|b>*<b|del|0>)*] (Au)
       state          X           Y           Z        Dip. S.   Osc.(frdel)
         1        -0.0041     -0.0401      0.0000      0.0442      0.0295
         2        -0.0034     -0.0006     -0.0002      0.0042      0.0028
         3        -0.0023     -0.0004     -0.0002      0.0028      0.0019
         4        -0.0001      0.0000     -0.0152      0.0153      0.0102
         5         0.0000      0.0000     -0.0006      0.0006      0.0004
         6        -0.2529     -0.0343     -0.0020      0.2892      0.1928
         7        -0.1869     -0.0286     -0.0052      0.2207      0.1471
         8        -0.0059     -0.0017      0.0000      0.0075      0.0050
         9        -0.0085     -0.1336      0.0000      0.1421      0.0947
        10         0.0000      0.0000      0.0001      0.0000      0.0000
        11        -0.0001      0.0000      0.0003     -0.0001     -0.0001
        12         0.0000      0.0000      0.0024     -0.0024     -0.0016
        13        -0.0001      0.0000     -0.0003      0.0004      0.0003
        14         0.0000      0.0000     -0.0030      0.0030      0.0020
        15         0.0000      0.0000     -0.0160      0.0161      0.0107

 Excitation energies and oscillator strengths:
 
 Excited State   1:      Singlet-A      4.2986 eV  288.43 nm  f=0.1013  <S**2>=0.000
      12 -> 15         0.15921
      13 -> 14         0.68105
 This state for optimization and/or second-order correction.
 Total Energy, E(CIS) =  0.180538154662    
 Copying the excited state density for this state as the 1-particle RhoCI density.
 
 Excited State   2:      Singlet-A      5.0839 eV  243.88 nm  f=0.0080  <S**2>=0.000
      12 -> 14        -0.29424
      13 -> 15         0.45402
      13 -> 16         0.43419
 
 Excited State   3:      Singlet-A      5.1082 eV  242.71 nm  f=0.0054  <S**2>=0.000
      12 -> 14         0.25566
      13 -> 15        -0.37110
      13 -> 16         0.52254
 
 Excited State   4:      Singlet-A      5.8920 eV  210.43 nm  f=0.0037  <S**2>=0.000
      12 -> 19        -0.12122
      12 -> 21         0.14895
      13 -> 17         0.14425
      13 -> 18         0.47560
      13 -> 19        -0.32897
      13 -> 23        -0.21407
      13 -> 24         0.13534
 
 Excited State   5:      Singlet-A      5.9799 eV  207.34 nm  f=0.0001  <S**2>=0.000
      12 -> 18         0.15061
      12 -> 24         0.11106
      13 -> 17        -0.21050
      13 -> 18        -0.23256
      13 -> 19        -0.37911
      13 -> 21         0.39037
      13 -> 22         0.14457
 
 Excited State   6:      Singlet-A      6.3530 eV  195.16 nm  f=0.2118  <S**2>=0.000
      12 -> 14         0.41972
      12 -> 16         0.17431
      13 -> 15         0.28112
      13 -> 17         0.31892
      13 -> 18        -0.19550
 
 Excited State   7:      Singlet-A      6.3796 eV  194.34 nm  f=0.1589  <S**2>=0.000
      12 -> 14        -0.35618
      12 -> 19        -0.10099
      13 -> 15        -0.24079
      13 -> 17         0.40374
      13 -> 18        -0.26821
 
 Excited State   8:      Singlet-A      6.3976 eV  193.80 nm  f=0.0057  <S**2>=0.000
       7 -> 16        -0.19502
      12 -> 16         0.60464
      12 -> 20         0.10116
      12 -> 21        -0.10031
      13 -> 17        -0.17686
      13 -> 18         0.14026
 
 Excited State   9:      Singlet-A      6.7641 eV  183.30 nm  f=0.1232  <S**2>=0.000
      12 -> 15         0.67909
      13 -> 14        -0.14598
 
 Excited State  10:      Singlet-A      7.0788 eV  175.15 nm  f=0.0001  <S**2>=0.000
      11 -> 14        -0.14817
      12 -> 17        -0.17520
      12 -> 18         0.37068
      13 -> 16         0.11497
      13 -> 17         0.12368
      13 -> 18         0.11662
      13 -> 19         0.31707
      13 -> 20        -0.11941
      13 -> 21         0.34906
 
 Excited State  11:      Singlet-A      7.1981 eV  172.25 nm  f=0.0002  <S**2>=0.000
       9 -> 15        -0.14502
      10 -> 15        -0.17443
      11 -> 14         0.60207
      11 -> 15         0.10349
      12 -> 18         0.15348
      13 -> 19         0.12881
 
 Excited State  12:      Singlet-A      7.3879 eV  167.82 nm  f=0.0020  <S**2>=0.000
       9 -> 14         0.44842
      10 -> 14         0.29313
      10 -> 15        -0.10439
      11 -> 15        -0.30730
      12 -> 19        -0.13381
      12 -> 21         0.10300
      13 -> 24         0.18231
 
 Excited State  13:      Singlet-A      7.4861 eV  165.62 nm  f=0.0004  <S**2>=0.000
      11 -> 14        -0.10688
      12 -> 17         0.15732
      12 -> 18         0.39527
      13 -> 16        -0.10065
      13 -> 20         0.38007
      13 -> 21        -0.27664
 
 Excited State  14:      Singlet-A      7.5555 eV  164.10 nm  f=0.0009  <S**2>=0.000
       9 -> 14        -0.19322
      10 -> 14        -0.12257
      11 -> 15         0.13882
      12 -> 17        -0.19587
      12 -> 18         0.13010
      12 -> 19        -0.23633
      12 -> 20        -0.20852
      12 -> 21         0.15068
      13 -> 17        -0.25602
      13 -> 18        -0.17259
      13 -> 21        -0.18525
      13 -> 24         0.26967
 
 Excited State  15:      Singlet-A      7.6878 eV  161.27 nm  f=0.0140  <S**2>=0.000
       9 -> 14        -0.19440
      10 -> 14         0.23514
      13 -> 17         0.13770
      13 -> 20        -0.20298
      13 -> 21        -0.12141
      13 -> 22         0.22023
      13 -> 23         0.49322
 SavETr:  write IOETrn=   770 NScale= 10 NData=  16 NLR=1 NState=   15 LETran=     280.
 The selected state is a singlet
 CISAX will form     1 AO SS matrices at one time.
 NMat=     1 NSing=     1 JSym2X= 0.
 Leave Link  914 at Tue Dec 15 16:12:08 2015, MaxMem=    33554432 cpu:         0.1
 (Enter /home/Applications/g09/g09/l1002.exe)
 Minotr:  Closed shell wavefunction.
          Computing CIS/TD-HF/TD-KS derivatives.
          Using Z-Vector for PSCF gradient.
          Skipping F1 and S1 gradient terms here.
          IDoAtm=111111111
          Direct CPHF calculation.
          Differentiating once with respect to electric field.
                with respect to dipole field.
          Differentiating once with respect to nuclear coordinates.
          Electric field/nuclear overlap derivatives assumed to be zero.
          Requested convergence is 1.0D-10 RMS, and 1.0D-09 maximum.
          NewPWx=T KeepS1=F KeepF1=F KeepIn=T MapXYZ=F SortEE=F KeepMc=T.
          MDV=      33495423 using IRadAn=       0.
 Keep J ints in memory in canonical form, NReq=871704.
 FoFCou: FMM=F IPFlag=           0 FMFlag=           0 FMFlg1=           0
         NFxFlg=           0 DoJE=F BraDBF=F KetDBF=F FulRan=T
         wScrn=  0.000000 ICntrl=     600 IOpCl=  2 I1Cent=           0 NGrid=           0
         NMat0=    1 NMatS0=     54 NMatT0=    0 NMatD0=    1 NMtDS0=    0 NMtDT0=    0
 Symmetry not used in FoFCou.
          Solving linear equations separately, MaxMat=       0.
          There are     1 degrees of freedom in the 1st order CPHF.  IDoFFX=0 NUNeed=     1.
 LinEq1:  Iter=  0 NonCon=     1 RMS=1.23D-02 Max=9.26D-02 NDo=     1
 AX will form     1 AO Fock derivatives at one time.
 LinEq1:  Iter=  1 NonCon=     1 RMS=2.66D-03 Max=2.29D-02 NDo=     1
 LinEq1:  Iter=  2 NonCon=     1 RMS=4.54D-04 Max=3.34D-03 NDo=     1
 LinEq1:  Iter=  3 NonCon=     1 RMS=5.48D-05 Max=2.73D-04 NDo=     1
 LinEq1:  Iter=  4 NonCon=     1 RMS=5.26D-06 Max=2.47D-05 NDo=     1
 LinEq1:  Iter=  5 NonCon=     1 RMS=6.84D-07 Max=4.89D-06 NDo=     1
 LinEq1:  Iter=  6 NonCon=     1 RMS=9.65D-08 Max=4.91D-07 NDo=     1
 LinEq1:  Iter=  7 NonCon=     1 RMS=1.72D-08 Max=1.37D-07 NDo=     1
 LinEq1:  Iter=  8 NonCon=     1 RMS=2.06D-09 Max=7.26D-09 NDo=     1
 LinEq1:  Iter=  9 NonCon=     1 RMS=2.63D-10 Max=1.21D-09 NDo=     1
 LinEq1:  Iter= 10 NonCon=     0 RMS=2.46D-11 Max=9.43D-11 NDo=     1
 Linear equations converged to 1.000D-10 1.000D-09 after    10 iterations.
 End of Minotr F.D. properties file   721 does not exist.
 End of Minotr F.D. properties file   722 does not exist.
 End of Minotr F.D. properties file   788 does not exist.
 Leave Link 1002 at Tue Dec 15 16:12:08 2015, MaxMem=    33554432 cpu:         0.0
 (Enter /home/Applications/g09/g09/l601.exe)
 Copying SCF densities to generalized density rwf, IOpCl= 0 IROHF=0.

 **********************************************************************

            Population analysis using the SCF density.

 **********************************************************************

 Orbital symmetries:
       Occupied  (A) (A) (A) (A) (A) (A) (A) (A) (A) (A) (A) (A)
                 (A)
       Virtual   (A) (A) (A) (A) (A) (A) (A) (A) (A) (A) (A)
 The electronic state is 1-A.
 Alpha  occ. eigenvalues --   -1.56862  -1.25877  -1.08398  -0.82214  -0.81839
 Alpha  occ. eigenvalues --   -0.68135  -0.59943  -0.55003  -0.52113  -0.50454
 Alpha  occ. eigenvalues --   -0.49941  -0.40608  -0.34386
 Alpha virt. eigenvalues --    0.02693   0.06886   0.10561   0.13689   0.14391
 Alpha virt. eigenvalues --    0.14705   0.17693   0.18462   0.18872   0.20767
 Alpha virt. eigenvalues --    0.21903
     Molecular Orbital Coefficients:
                           1         2         3         4         5
                           O         O         O         O         O
     Eigenvalues --    -1.56862  -1.25877  -1.08398  -0.82214  -0.81839
   1 1   C  1S          0.30071  -0.45343   0.30328  -0.14370   0.39870
   2        1PX        -0.13211   0.06704  -0.05230  -0.15804   0.14120
   3        1PY         0.02801  -0.08170  -0.19669  -0.32317  -0.07957
   4        1PZ         0.00075  -0.00114   0.00073  -0.00175   0.00208
   5 2   C  1S          0.35883  -0.10031   0.52277   0.34069  -0.22919
   6        1PX        -0.07070  -0.22704   0.03665   0.13586   0.34244
   7        1PY         0.16147  -0.04383  -0.00216  -0.06904   0.10315
   8        1PZ         0.00098   0.00052   0.00085  -0.00102  -0.00096
   9 3   O  1S          0.60865   0.61611   0.01454  -0.32136   0.07099
  10        1PX         0.18227  -0.00585   0.11736   0.14437  -0.23728
  11        1PY         0.08465   0.00852  -0.28879   0.21689   0.43565
  12        1PZ        -0.00097  -0.00023  -0.00036  -0.00191   0.00149
  13 4   C  1S          0.38483  -0.09133  -0.50387   0.40859   0.01416
  14        1PX         0.06153  -0.20834  -0.02139  -0.11499  -0.29626
  15        1PY        -0.17335  -0.14300  -0.03818   0.03176  -0.21501
  16        1PZ        -0.00043   0.00053   0.00078  -0.00214   0.00068
  17 5   C  1S          0.31372  -0.46550  -0.29220  -0.31937  -0.24387
  18        1PX        -0.07905  -0.01376   0.17543  -0.32588   0.15156
  19        1PY        -0.11165   0.09690  -0.11163   0.00486  -0.20210
  20        1PZ         0.00012  -0.00014  -0.00045  -0.00081  -0.00046
  21 6   H  1S          0.07146  -0.15159  -0.12295  -0.22879  -0.16172
  22 7   H  1S          0.08146  -0.00928  -0.19579   0.23677   0.05693
  23 8   H  1S          0.07697  -0.01488   0.20521   0.18189  -0.17738
  24 9   H  1S          0.06266  -0.13509   0.12083  -0.09265   0.25466
                           6         7         8         9        10
                           O         O         O         O         O
     Eigenvalues --    -0.68135  -0.59943  -0.55003  -0.52113  -0.50454
   1 1   C  1S         -0.06762  -0.00319  -0.17889   0.00292   0.02251
   2        1PX        -0.25960   0.00335  -0.19155   0.38460  -0.21575
   3        1PY         0.13309  -0.00423   0.05331   0.08991   0.49527
   4        1PZ        -0.00240   0.23675  -0.00635   0.00726  -0.00270
   5 2   C  1S         -0.12311  -0.00018   0.15647   0.02282   0.04034
   6        1PX        -0.08355   0.00277   0.18388  -0.35383  -0.17268
   7        1PY         0.37806  -0.00425  -0.28820   0.00265  -0.13995
   8        1PZ        -0.00061   0.36882  -0.00509   0.00295   0.00508
   9 3   O  1S         -0.16458  -0.00059  -0.04485  -0.20681  -0.06799
  10        1PX         0.41921   0.00526  -0.08454   0.57719  -0.07410
  11        1PY         0.15121   0.00422   0.45917   0.15093  -0.08015
  12        1PZ        -0.00105   0.76383  -0.00339  -0.00782   0.01368
  13 4   C  1S         -0.11175   0.00202  -0.14465   0.06813   0.03613
  14        1PX         0.22044   0.00553  -0.04166  -0.24740  -0.34464
  15        1PY        -0.32065  -0.00419  -0.40033  -0.13555   0.10848
  16        1PZ         0.00119   0.40150   0.00122  -0.00196   0.00150
  17 5   C  1S         -0.07070  -0.00008   0.16234  -0.05373   0.00020
  18        1PX        -0.10123  -0.00396   0.23052   0.28167   0.28142
  19        1PY        -0.29210   0.00320   0.14580   0.16148  -0.44797
  20        1PZ        -0.00131   0.25100  -0.00093   0.00305  -0.00340
  21 6   H  1S         -0.22554   0.00154   0.27784   0.18975  -0.19833
  22 7   H  1S         -0.28096  -0.00724  -0.24411   0.12750   0.30472
  23 8   H  1S         -0.28562   0.00353   0.29004   0.04542   0.16332
  24 9   H  1S         -0.20906   0.00453  -0.24990   0.26942  -0.26318
                          11        12        13        14        15
                           O         O         O         V         V
     Eigenvalues --    -0.49941  -0.40608  -0.34386   0.02693   0.06886
   1 1   C  1S         -0.01042  -0.00416  -0.00367   0.00522   0.00880
   2        1PX        -0.35237  -0.01185  -0.00529   0.00445   0.01026
   3        1PY        -0.17276   0.00258  -0.00103   0.00041  -0.00441
   4        1PZ        -0.00431   0.57813   0.37614  -0.35867  -0.58217
   5 2   C  1S          0.08427   0.00132  -0.00123  -0.00180  -0.00898
   6        1PX         0.15610   0.00210   0.00542   0.00130   0.00898
   7        1PY         0.44097   0.00209   0.00008   0.00139  -0.00464
   8        1PZ         0.00125   0.16289   0.61170   0.58632   0.34534
   9 3   O  1S          0.00547  -0.00024   0.00076  -0.00021   0.00409
  10        1PX         0.05242  -0.00788  -0.00092  -0.00021   0.01047
  11        1PY        -0.05562  -0.00067   0.00188  -0.00041  -0.00086
  12        1PZ         0.00982  -0.52764   0.01916  -0.36971   0.02657
  13 4   C  1S         -0.08262  -0.00070  -0.00438   0.00526  -0.00398
  14        1PX        -0.31810  -0.00314   0.00159  -0.00247   0.00819
  15        1PY         0.17737   0.00193  -0.00344   0.00485  -0.00021
  16        1PZ         0.00245   0.15028  -0.58450   0.55546  -0.40715
  17 5   C  1S         -0.00934   0.00004   0.00213  -0.00157  -0.00229
  18        1PX         0.27192   0.00246  -0.00102   0.00091   0.00057
  19        1PY         0.29138  -0.00565   0.00218   0.00318  -0.00312
  20        1PZ         0.00078   0.58132  -0.37710  -0.28664   0.61191
  21 6   H  1S          0.31271  -0.00013   0.00087  -0.00114   0.00143
  22 7   H  1S          0.23811   0.00159   0.00082  -0.00632   0.00882
  23 8   H  1S         -0.31846  -0.00062   0.00095   0.00182   0.00555
  24 9   H  1S         -0.24424  -0.00383   0.00026  -0.00521  -0.01356
                          16        17        18        19        20
                           V         V         V         V         V
     Eigenvalues --     0.10561   0.13689   0.14391   0.14705   0.17693
   1 1   C  1S          0.09126  -0.28934  -0.13779   0.14691  -0.33672
   2        1PX         0.03711  -0.04398  -0.13629  -0.34025  -0.37589
   3        1PY        -0.04958  -0.15152   0.32147  -0.20372  -0.13252
   4        1PZ         0.01434  -0.00802  -0.01075  -0.00227  -0.01110
   5 2   C  1S         -0.31474   0.15474   0.12686  -0.42464  -0.11698
   6        1PX         0.39411  -0.00349  -0.08949  -0.25570   0.20431
   7        1PY        -0.12626  -0.14850   0.33776   0.17086  -0.17663
   8        1PZ        -0.01027   0.00535   0.00441  -0.00024   0.00203
   9 3   O  1S          0.22059  -0.02691   0.02058  -0.06441   0.07615
  10        1PX         0.48720  -0.05686  -0.09452  -0.06577   0.20913
  11        1PY         0.13204  -0.00767   0.36622  -0.12912  -0.07724
  12        1PZ        -0.00404  -0.00270   0.00114   0.00000  -0.00134
  13 4   C  1S         -0.26310  -0.34828  -0.30597  -0.07254   0.18079
  14        1PX         0.21657   0.10408  -0.14400  -0.07614  -0.12699
  15        1PY         0.26588  -0.33458   0.28269  -0.23397   0.22955
  16        1PZ         0.01101   0.00920  -0.00344   0.00303  -0.00407
  17 5   C  1S          0.05218   0.26146   0.14494  -0.10602   0.07385
  18        1PX         0.02419  -0.08669  -0.26053  -0.22317   0.24244
  19        1PY         0.01863  -0.19340   0.25178  -0.10838  -0.25878
  20        1PZ        -0.01143  -0.00162   0.00820  -0.00190   0.00314
  21 6   H  1S         -0.11448  -0.01696  -0.24102   0.32920   0.03244
  22 7   H  1S          0.31504   0.57308  -0.02649   0.13653  -0.29774
  23 8   H  1S          0.27798  -0.28757   0.21558   0.48445  -0.03461
  24 9   H  1S         -0.18269   0.26910   0.35413   0.14418   0.51174
                          21        22        23        24
                           V         V         V         V
     Eigenvalues --     0.18462   0.18872   0.20767   0.21903
   1 1   C  1S         -0.29152  -0.01330   0.23493  -0.09326
   2        1PX         0.14312  -0.02276  -0.43051   0.14866
   3        1PY         0.12017   0.43891   0.26229   0.27488
   4        1PZ        -0.00155  -0.00106  -0.00309   0.00067
   5 2   C  1S          0.05121   0.15577  -0.09877  -0.02401
   6        1PX         0.22502   0.17558  -0.02557   0.48323
   7        1PY         0.45758  -0.07914  -0.29036   0.06398
   8        1PZ        -0.00068   0.00051   0.00104  -0.00255
   9 3   O  1S         -0.04118   0.05567  -0.00959  -0.01563
  10        1PX        -0.16595   0.03755   0.03619   0.15333
  11        1PY        -0.12974   0.09026  -0.13371  -0.43521
  12        1PZ         0.00027  -0.00088  -0.00075  -0.00124
  13 4   C  1S          0.20100  -0.03688   0.11002   0.01821
  14        1PX         0.39785   0.19921   0.19242  -0.42935
  15        1PY        -0.16236   0.12909  -0.22115  -0.33784
  16        1PZ         0.00119   0.00127   0.00041   0.00076
  17 5   C  1S         -0.14122  -0.47065  -0.19312   0.12713
  18        1PX         0.41899  -0.24574   0.11571  -0.32225
  19        1PY         0.00271  -0.16577   0.53639   0.10706
  20        1PZ        -0.00113  -0.00216   0.00279   0.00106
  21 6   H  1S         -0.07116   0.56892  -0.25816  -0.02839
  22 7   H  1S          0.16548   0.07932   0.12790  -0.07368
  23 8   H  1S          0.32061  -0.14408  -0.14032   0.07563
  24 9   H  1S          0.12486   0.12179   0.19374   0.00775
     Density Matrix:
                           1         2         3         4         5
   1 1   C  1S          1.20969
   2        1PX         0.08967   0.98498
   3        1PY        -0.00958  -0.03051   0.92144
   4        1PZ        -0.00240  -0.00191  -0.00025   1.06381
   5 2   C  1S          0.30405  -0.39064  -0.35402  -0.00212   1.25919
   6        1PX         0.35196  -0.29665  -0.41486   0.00175   0.04308
   7        1PY         0.27415  -0.33166  -0.17529   0.00031  -0.09201
   8        1PZ        -0.00592  -0.00663   0.00134   0.82322  -0.00066
   9 3   O  1S         -0.00096   0.01092  -0.03089  -0.00036   0.08938
  10        1PX        -0.07206   0.08011   0.02422  -0.00096   0.36133
  11        1PY        -0.03327  -0.00105  -0.03642  -0.00008  -0.19732
  12        1PZ         0.00224   0.00171   0.00001  -0.23421  -0.00313
  13 4   C  1S         -0.02686   0.02218  -0.00024  -0.00060   0.01396
  14        1PX        -0.01548  -0.00508  -0.05440   0.00037  -0.03900
  15        1PY         0.00872   0.00359  -0.06383  -0.00079  -0.02930
  16        1PZ         0.00078   0.00132   0.00017  -0.07591   0.00086
  17 5   C  1S          0.28226  -0.14301   0.44607   0.00039  -0.02861
  18        1PX         0.22572   0.01426   0.34845  -0.00008   0.01639
  19        1PY        -0.42323   0.20366  -0.52678  -0.00298   0.01753
  20        1PZ        -0.00352  -0.00368  -0.00109   0.50740   0.00171
  21 6   H  1S         -0.04059   0.02212  -0.05005   0.00032   0.05922
  22 7   H  1S          0.05086  -0.02297   0.06274   0.00089   0.05418
  23 8   H  1S         -0.06037   0.07473   0.07152   0.00096   0.60068
  24 9   H  1S          0.57567   0.75122  -0.21280   0.01148  -0.05830
                           6         7         8         9        10
   6        1PX         0.82765
   7        1PY         0.06374   0.96693
   8        1PZ         0.00289   0.00003   1.07360
   9 3   O  1S         -0.22091   0.12569   0.00155   1.87019
  10        1PX        -0.60544   0.42565   0.00404  -0.26688   1.29706
  11        1PY         0.36743  -0.08842  -0.00133  -0.11550   0.04833
  12        1PZ         0.00575  -0.00246   0.41513   0.00149   0.00428
  13 4   C  1S         -0.05021  -0.00280  -0.00299   0.09642   0.12977
  14        1PX        -0.00716  -0.00177   0.00007  -0.07370   0.05134
  15        1PY        -0.03184   0.02167  -0.00166  -0.25458  -0.31445
  16        1PZ        -0.00184  -0.00071  -0.36996   0.00034   0.00057
  17 5   C  1S         -0.00163  -0.01844   0.00141   0.00124  -0.07503
  18        1PX        -0.06441   0.00435   0.00011  -0.01627   0.03452
  19        1PY         0.06036  -0.00817  -0.00074   0.02880   0.04320
  20        1PZ        -0.00165   0.00151  -0.08681  -0.00099  -0.00274
  21 6   H  1S          0.04853   0.03674   0.00004   0.02192   0.05481
  22 7   H  1S         -0.08230   0.06073   0.00268  -0.03926  -0.04220
  23 8   H  1S         -0.09470  -0.74595   0.00255  -0.03724  -0.08053
  24 9   H  1S         -0.02240  -0.05752   0.00340   0.02193   0.09667
                          11        12        13        14        15
  11        1PY         1.18697
  12        1PZ        -0.00133   1.72515
  13 4   C  1S          0.40152   0.00132   1.24734
  14        1PX        -0.24437  -0.00061  -0.03864   0.96039
  15        1PY        -0.72599   0.00305   0.09860  -0.06864   0.84783
  16        1PZ         0.00051   0.43250   0.00241   0.00022   0.00073
  17 5   C  1S         -0.02457  -0.00006   0.31610   0.45073   0.05791
  18        1PX         0.06646   0.00033  -0.52741  -0.59660  -0.10637
  19        1PY         0.00699   0.00114  -0.02830  -0.02806   0.13965
  20        1PZ        -0.00044  -0.24458   0.00400  -0.00168   0.00321
  21 6   H  1S          0.08162  -0.00072  -0.05508  -0.05303   0.02160
  22 7   H  1S         -0.06703  -0.00019   0.59022  -0.59415   0.47163
  23 8   H  1S          0.02156   0.00071   0.04932  -0.01232  -0.08922
  24 9   H  1S         -0.02177  -0.00214   0.05973   0.06146   0.00960
                          16        17        18        19        20
  16        1PZ         1.05090
  17 5   C  1S         -0.00234   1.19259
  18        1PX         0.00208   0.04885   0.92453
  19        1PY        -0.00284   0.06612   0.03499   0.98693
  20        1PZ         0.81709  -0.00085   0.00192  -0.00140   1.08635
  21 6   H  1S          0.00086   0.57863   0.38891   0.67927   0.00372
  22 7   H  1S         -0.00729  -0.06239   0.09886   0.00283  -0.00238
  23 8   H  1S         -0.00046   0.04825   0.02376  -0.05819  -0.00108
  24 9   H  1S         -0.00124  -0.04664  -0.02835   0.05883   0.00154
                          21        22        23        24
  21 6   H  1S          0.84580
  22 7   H  1S          0.00334   0.81750
  23 8   H  1S         -0.01750  -0.02331   0.81735
  24 9   H  1S         -0.01043  -0.01807   0.00778   0.83582
    Full Mulliken population analysis:
                           1         2         3         4         5
   1 1   C  1S          1.20969
   2        1PX         0.00000   0.98498
   3        1PY         0.00000   0.00000   0.92144
   4        1PZ         0.00000   0.00000   0.00000   1.06381
   5 2   C  1S          0.00000   0.00000   0.00000   0.00000   1.25919
   6        1PX         0.00000   0.00000   0.00000   0.00000   0.00000
   7        1PY         0.00000   0.00000   0.00000   0.00000   0.00000
   8        1PZ         0.00000   0.00000   0.00000   0.00000   0.00000
   9 3   O  1S          0.00000   0.00000   0.00000   0.00000   0.00000
  10        1PX         0.00000   0.00000   0.00000   0.00000   0.00000
  11        1PY         0.00000   0.00000   0.00000   0.00000   0.00000
  12        1PZ         0.00000   0.00000   0.00000   0.00000   0.00000
  13 4   C  1S          0.00000   0.00000   0.00000   0.00000   0.00000
  14        1PX         0.00000   0.00000   0.00000   0.00000   0.00000
  15        1PY         0.00000   0.00000   0.00000   0.00000   0.00000
  16        1PZ         0.00000   0.00000   0.00000   0.00000   0.00000
  17 5   C  1S          0.00000   0.00000   0.00000   0.00000   0.00000
  18        1PX         0.00000   0.00000   0.00000   0.00000   0.00000
  19        1PY         0.00000   0.00000   0.00000   0.00000   0.00000
  20        1PZ         0.00000   0.00000   0.00000   0.00000   0.00000
  21 6   H  1S          0.00000   0.00000   0.00000   0.00000   0.00000
  22 7   H  1S          0.00000   0.00000   0.00000   0.00000   0.00000
  23 8   H  1S          0.00000   0.00000   0.00000   0.00000   0.00000
  24 9   H  1S          0.00000   0.00000   0.00000   0.00000   0.00000
                           6         7         8         9        10
   6        1PX         0.82765
   7        1PY         0.00000   0.96693
   8        1PZ         0.00000   0.00000   1.07360
   9 3   O  1S          0.00000   0.00000   0.00000   1.87019
  10        1PX         0.00000   0.00000   0.00000   0.00000   1.29706
  11        1PY         0.00000   0.00000   0.00000   0.00000   0.00000
  12        1PZ         0.00000   0.00000   0.00000   0.00000   0.00000
  13 4   C  1S          0.00000   0.00000   0.00000   0.00000   0.00000
  14        1PX         0.00000   0.00000   0.00000   0.00000   0.00000
  15        1PY         0.00000   0.00000   0.00000   0.00000   0.00000
  16        1PZ         0.00000   0.00000   0.00000   0.00000   0.00000
  17 5   C  1S          0.00000   0.00000   0.00000   0.00000   0.00000
  18        1PX         0.00000   0.00000   0.00000   0.00000   0.00000
  19        1PY         0.00000   0.00000   0.00000   0.00000   0.00000
  20        1PZ         0.00000   0.00000   0.00000   0.00000   0.00000
  21 6   H  1S          0.00000   0.00000   0.00000   0.00000   0.00000
  22 7   H  1S          0.00000   0.00000   0.00000   0.00000   0.00000
  23 8   H  1S          0.00000   0.00000   0.00000   0.00000   0.00000
  24 9   H  1S          0.00000   0.00000   0.00000   0.00000   0.00000
                          11        12        13        14        15
  11        1PY         1.18697
  12        1PZ         0.00000   1.72515
  13 4   C  1S          0.00000   0.00000   1.24734
  14        1PX         0.00000   0.00000   0.00000   0.96039
  15        1PY         0.00000   0.00000   0.00000   0.00000   0.84783
  16        1PZ         0.00000   0.00000   0.00000   0.00000   0.00000
  17 5   C  1S          0.00000   0.00000   0.00000   0.00000   0.00000
  18        1PX         0.00000   0.00000   0.00000   0.00000   0.00000
  19        1PY         0.00000   0.00000   0.00000   0.00000   0.00000
  20        1PZ         0.00000   0.00000   0.00000   0.00000   0.00000
  21 6   H  1S          0.00000   0.00000   0.00000   0.00000   0.00000
  22 7   H  1S          0.00000   0.00000   0.00000   0.00000   0.00000
  23 8   H  1S          0.00000   0.00000   0.00000   0.00000   0.00000
  24 9   H  1S          0.00000   0.00000   0.00000   0.00000   0.00000
                          16        17        18        19        20
  16        1PZ         1.05090
  17 5   C  1S          0.00000   1.19259
  18        1PX         0.00000   0.00000   0.92453
  19        1PY         0.00000   0.00000   0.00000   0.98693
  20        1PZ         0.00000   0.00000   0.00000   0.00000   1.08635
  21 6   H  1S          0.00000   0.00000   0.00000   0.00000   0.00000
  22 7   H  1S          0.00000   0.00000   0.00000   0.00000   0.00000
  23 8   H  1S          0.00000   0.00000   0.00000   0.00000   0.00000
  24 9   H  1S          0.00000   0.00000   0.00000   0.00000   0.00000
                          21        22        23        24
  21 6   H  1S          0.84580
  22 7   H  1S          0.00000   0.81750
  23 8   H  1S          0.00000   0.00000   0.81735
  24 9   H  1S          0.00000   0.00000   0.00000   0.83582
     Gross orbital populations:
                           1
   1 1   C  1S          1.20969
   2        1PX         0.98498
   3        1PY         0.92144
   4        1PZ         1.06381
   5 2   C  1S          1.25919
   6        1PX         0.82765
   7        1PY         0.96693
   8        1PZ         1.07360
   9 3   O  1S          1.87019
  10        1PX         1.29706
  11        1PY         1.18697
  12        1PZ         1.72515
  13 4   C  1S          1.24734
  14        1PX         0.96039
  15        1PY         0.84783
  16        1PZ         1.05090
  17 5   C  1S          1.19259
  18        1PX         0.92453
  19        1PY         0.98693
  20        1PZ         1.08635
  21 6   H  1S          0.84580
  22 7   H  1S          0.81750
  23 8   H  1S          0.81735
  24 9   H  1S          0.83582
          Condensed to atoms (all electrons):
               1          2          3          4          5          6
     1  C    4.179908   0.000000   0.000000   0.000000   0.000000   0.000000
     2  C    0.000000   4.127371   0.000000   0.000000   0.000000   0.000000
     3  O    0.000000   0.000000   6.079380   0.000000   0.000000   0.000000
     4  C    0.000000   0.000000   0.000000   4.106469   0.000000   0.000000
     5  C    0.000000   0.000000   0.000000   0.000000   4.190395   0.000000
     6  H    0.000000   0.000000   0.000000   0.000000   0.000000   0.845804
     7  H    0.000000   0.000000   0.000000   0.000000   0.000000   0.000000
     8  H    0.000000   0.000000   0.000000   0.000000   0.000000   0.000000
     9  H    0.000000   0.000000   0.000000   0.000000   0.000000   0.000000
               7          8          9
     1  C    0.000000   0.000000   0.000000
     2  C    0.000000   0.000000   0.000000
     3  O    0.000000   0.000000   0.000000
     4  C    0.000000   0.000000   0.000000
     5  C    0.000000   0.000000   0.000000
     6  H    0.000000   0.000000   0.000000
     7  H    0.817503   0.000000   0.000000
     8  H    0.000000   0.817353   0.000000
     9  H    0.000000   0.000000   0.835818
 Mulliken charges:
               1
     1  C   -0.179908
     2  C   -0.127371
     3  O   -0.079380
     4  C   -0.106469
     5  C   -0.190395
     6  H    0.154196
     7  H    0.182497
     8  H    0.182647
     9  H    0.164182
 Sum of Mulliken charges =   0.00000
 Mulliken charges with hydrogens summed into heavy atoms:
               1
     1  C   -0.015725
     2  C    0.055276
     3  O   -0.079380
     4  C    0.076027
     5  C   -0.036199
 Charge=              0.0000 electrons
 Dipole moment (field-independent basis, Debye):
    X=              0.4032    Y=              0.1209    Z=              0.0182  Tot=              0.4213
 N-N= 1.036273494961D+02 E-N=-1.713313575751D+02  KE=-1.656273905690D+01
 Orbital energies and kinetic energies (alpha):
                                 1                 2
   1         O                -1.568622         -1.323521
   2         O                -1.258766         -1.061992
   3         O                -1.083980         -0.948544
   4         O                -0.822144         -0.724257
   5         O                -0.818394         -0.700700
   6         O                -0.681348         -0.603362
   7         O                -0.599427         -0.486252
   8         O                -0.550030         -0.492095
   9         O                -0.521131         -0.425390
  10         O                -0.504541         -0.426616
  11         O                -0.499410         -0.429994
  12         O                -0.406078         -0.349022
  13         O                -0.343863         -0.309624
  14         V                 0.026927         -0.196726
  15         V                 0.068865         -0.185816
  16         V                 0.105606         -0.188324
  17         V                 0.136888         -0.243343
  18         V                 0.143906         -0.165166
  19         V                 0.147054         -0.205064
  20         V                 0.176930         -0.180475
  21         V                 0.184619         -0.128656
  22         V                 0.188718         -0.184672
  23         V                 0.207670         -0.115817
  24         V                 0.219032         -0.054123
 Total kinetic energy from orbitals=-1.656273905690D+01
 Leave Link  601 at Tue Dec 15 16:12:08 2015, MaxMem=    33554432 cpu:         0.0
 (Enter /home/Applications/g09/g09/l701.exe)
 Compute integral first derivatives.
 ... and contract with generalized density number  6.
 Leave Link  701 at Tue Dec 15 16:12:08 2015, MaxMem=    33554432 cpu:         0.0
 (Enter /home/Applications/g09/g09/l702.exe)
 L702 exits ... SP integral derivatives will be done elsewhere.
 Leave Link  702 at Tue Dec 15 16:12:08 2015, MaxMem=    33554432 cpu:         0.0
 (Enter /home/Applications/g09/g09/l703.exe)
 Compute integral first derivatives, UseDBF=F ICtDFT=           0.
 Integral derivatives from FoFJK, PRISM(SPDF).
 Calling FoFJK, ICntrl=  10005127 FMM=F ISym2X=0 I1Cent= 0 IOpClX= 0 NMat=1 NMatS=1 NMatT=0.
 FoFJK:  IHMeth= 8 ICntrl=10005127 DoSepK=F KAlg= 0 I1Cent=   0 FoldK=F
 IRaf=         0 NMat=   1 IRICut=       1 DoRegI=T DoRafI=F ISym2E= 0.
 FoFCou: FMM=F IPFlag=           0 FMFlag=      100000 FMFlg1=         800
         NFxFlg=           0 DoJE=F BraDBF=F KetDBF=F FulRan=T
         wScrn=  0.000000 ICntrl=10005127 IOpCl=  0 I1Cent=           0 NGrid=           0
         NMat0=    1 NMatS0=      1 NMatT0=    0 NMatD0=    1 NMtDS0=    0 NMtDT0=    0
 Symmetry not used in FoFCou.
 Leave Link  703 at Tue Dec 15 16:12:08 2015, MaxMem=    33554432 cpu:         0.0
 (Enter /home/Applications/g09/g09/l716.exe)
 Dipole        = 2.46403993D-01 1.39004619D-01 5.54686214D-03
 ***** Axes restored to original set *****
 -------------------------------------------------------------------
 Center     Atomic                   Forces (Hartrees/Bohr)
 Number     Number              X              Y              Z
 -------------------------------------------------------------------
      1        6           0.087059330   -0.045537181    0.001702870
      2        6          -0.078645702   -0.071342067    0.001676183
      3        8          -0.043796069   -0.021332234    0.000866223
      4        6          -0.107097896    0.107530386   -0.002035082
      5        6           0.102568597    0.009452406   -0.000543716
      6        1           0.026420528    0.019673809   -0.000482448
      7        1           0.013647163   -0.008580682    0.000741956
      8        1           0.004774567   -0.000014921   -0.000371756
      9        1          -0.004930518    0.010150483   -0.001554230
 -------------------------------------------------------------------
 Cartesian Forces:  Max     0.107530386 RMS     0.046528652
 Z-matrix is all fixed cartesians, so copy forces.
 Force constants in Cartesian coordinates: 
                1             2             3             4             5 
      1  0.886979D+00
      2 -0.242846D-01  0.887209D+00
      3 -0.719907D-04 -0.102631D-01  0.227484D+00
      4 -0.495390D+00 -0.105086D+00  0.413314D-02  0.907114D+00
      5 -0.804701D-01 -0.213438D+00  0.218424D-02  0.431357D-01  0.808367D+00
      6  0.532245D-02  0.257595D-02 -0.104076D+00 -0.899499D-02 -0.699378D-02
      7 -0.817722D-02  0.275794D-01  0.202727D-04 -0.270281D+00  0.144571D+00
      8 -0.650191D-02  0.219275D-01 -0.232749D-04  0.187487D+00 -0.317117D+00
      9  0.265651D-03 -0.653269D-03  0.603400D-02  0.175240D-02  0.165506D-03
     10  0.108156D-01  0.153288D-03 -0.232025D-03  0.220793D-01  0.175542D-01
     11  0.366396D-01  0.519549D-03 -0.720084D-03 -0.185242D-01 -0.147278D-01
     12 -0.956294D-04 -0.350494D-05 -0.118163D-02 -0.199911D-03 -0.165736D-03
     13 -0.181699D+00  0.183284D-01 -0.928714D-04  0.106556D-01 -0.359308D-01
     14 -0.683664D-02 -0.509234D+00  0.392020D-02  0.151673D-03 -0.512974D-03
     15  0.303760D-03  0.229445D-02 -0.101694D+00 -0.124488D-03  0.292040D-03
     16  0.189420D-01  0.271954D-03  0.325826D-04  0.000000D+00  0.000000D+00
     17 -0.246787D-01 -0.352211D-03  0.209164D-03  0.000000D+00  0.000000D+00
     18 -0.221243D-03  0.203866D-03  0.247232D-01  0.606029D-04  0.535057D-04
     19  0.141620D-05  0.121453D-05  0.142605D-03  0.000000D+00  0.000000D+00
     20  0.277709D-05  0.238162D-05  0.279640D-03  0.132014D-05  0.000000D+00
     21  0.804102D-04  0.689594D-04  0.809693D-02  0.586569D-04  0.359340D-04
     22  0.743822D-02 -0.250593D-01  0.656582D-03 -0.168762D+00 -0.107092D+00
     23 -0.423522D-02  0.142944D-01  0.257411D-03 -0.100675D+00 -0.284466D+00
     24  0.118298D-03  0.785817D-03  0.288759D-01  0.297528D-02  0.458731D-02
     25 -0.238909D+00  0.108096D+00 -0.458830D-02 -0.541574D-02  0.182313D-01
     26  0.110365D+00 -0.200928D+00  0.415578D-02 -0.649203D-02  0.218936D-01
     27 -0.570171D-02  0.499081D-02 -0.882619D-01  0.339313D-03 -0.159024D-03
                6             7             8             9            10 
      6  0.193083D+00
      7  0.187599D-02  0.557301D+00
      8 -0.246325D-03  0.315866D-01  0.640742D+00
      9 -0.435690D-01 -0.671591D-02 -0.571185D-02  0.523396D-01
     10 -0.391563D-03 -0.310043D+00 -0.219028D+00  0.448520D-02  0.989530D+00
     11  0.284734D-03 -0.175352D+00 -0.350794D+00  0.487056D-02 -0.152719D-01
     12 -0.282235D-02  0.459894D-02  0.589480D-02 -0.468721D-01 -0.565455D-02
     13  0.173862D-03 -0.834262D-02  0.700111D-02  0.152206D-03 -0.546777D+00
     14 -0.221916D-04 -0.282713D-01  0.237205D-01  0.303268D-03  0.118264D+00
     15 -0.193067D-02  0.450504D-03 -0.192537D-03  0.828711D-02  0.381289D-02
     16  0.860340D-05  0.000000D+00  0.000000D+00  0.580621D-04 -0.549299D-02
     17  0.527599D-04  0.000000D+00  0.000000D+00  0.286954D-05  0.716037D-02
     18  0.628548D-02  0.818874D-04  0.835757D-04  0.771432D-02  0.435745D-03
     19 -0.142355D-04  0.195813D-01 -0.164155D-01  0.480056D-03 -0.160111D+00
     20  0.970770D-04  0.112588D-01 -0.943633D-02  0.390032D-03  0.911668D-01
     21  0.431335D-02 -0.232327D-03  0.286974D-03  0.466594D-02 -0.256875D-02
     22  0.284699D-02  0.199602D-01  0.158698D-01 -0.479245D-03  0.000000D+00
     23  0.428878D-02 -0.113751D-01 -0.904435D-02  0.390087D-03  0.000000D+00
     24 -0.752986D-01 -0.142494D-03 -0.126560D-03  0.535205D-02  0.486585D-04
     25 -0.827105D-03  0.000000D+00  0.000000D+00  0.158669D-05 -0.170670D-05
     26 -0.370109D-04  0.253491D-05  0.141303D-05  0.242803D-03  0.000000D+00
     27  0.240150D-01  0.631428D-04  0.351975D-04  0.604805D-02  0.643963D-04
               11            12            13            14            15 
     11  0.830181D+00
     12 -0.101488D-01  0.212026D+00
     13  0.929754D-01  0.368044D-02  0.993422D+00
     14 -0.227324D+00 -0.493289D-04  0.258794D-01  0.920941D+00
     15 -0.250186D-03 -0.119120D+00 -0.536967D-02 -0.487347D-02  0.248543D+00
     16 -0.186130D-01  0.235885D-03 -0.293535D+00 -0.134388D+00  0.143929D-02
     17  0.242556D-01 -0.163403D-04 -0.135216D+00 -0.222259D+00  0.116462D-02
     18  0.757786D-03  0.285893D-01  0.126934D-02  0.736358D-03 -0.986637D-01
     19  0.981474D-01 -0.245716D-02  0.735529D-02  0.249287D-01 -0.528072D-03
     20 -0.262111D+00  0.439517D-02  0.423515D-02  0.143338D-01  0.494848D-03
     21  0.512094D-02 -0.806821D-01  0.159464D-03 -0.281983D-03  0.327244D-01
     22  0.000000D+00  0.638399D-04  0.000000D+00  0.000000D+00  0.494452D-04
     23  0.000000D+00  0.418783D-04  0.125345D-05  0.110666D-05  0.130003D-03
     24  0.298088D-04  0.357812D-02  0.697360D-04  0.615693D-04  0.723273D-02
     25 -0.146366D-05 -0.171857D-03  0.189201D-01  0.271085D-03 -0.336542D-04
     26  0.000000D+00  0.518374D-04  0.227257D-01  0.333824D-03  0.940234D-03
     27  0.552259D-04  0.648440D-02 -0.425070D-04  0.205572D-03  0.246208D-01
               16            17            18            19            20 
     16  0.280086D+00
     17  0.152731D+00  0.198356D+00
     18 -0.166714D-02 -0.132597D-02  0.536434D-01
     19 -0.165268D-05  0.000000D+00 -0.219581D-03  0.133175D+00
     20 -0.324081D-05  0.000000D+00 -0.430584D-03 -0.106662D+00  0.257211D+00
     21 -0.938371D-04 -0.463761D-05 -0.124675D-01  0.259638D-02 -0.522619D-02
     22  0.000000D+00  0.000000D+00  0.000000D+00  0.000000D+00  0.000000D+00
     23  0.000000D+00  0.000000D+00  0.000000D+00  0.000000D+00  0.000000D+00
     24  0.000000D+00  0.000000D+00  0.000000D+00  0.000000D+00  0.000000D+00
     25  0.000000D+00  0.218563D-05  0.260382D-03  0.000000D+00  0.000000D+00
     26  0.000000D+00  0.000000D+00 -0.785393D-04  0.000000D+00  0.000000D+00
     27 -0.134476D-04 -0.824668D-04 -0.982457D-02  0.000000D+00  0.000000D+00
               21            22            23            24            25 
     21  0.433490D-01
     22  0.000000D+00  0.141362D+00
     23  0.000000D+00  0.116283D+00  0.279222D+00
     24  0.000000D+00 -0.306676D-02 -0.492187D-02  0.406239D-01
     25  0.000000D+00  0.000000D+00  0.000000D+00 -0.271900D-05  0.225406D+00
     26  0.000000D+00 -0.284441D-05 -0.747858D-05 -0.416073D-03 -0.126599D+00
     27  0.000000D+00 -0.708521D-04 -0.186286D-03 -0.103641D-01  0.536166D-02
               26            27 
     26  0.178707D+00
     27 -0.485903D-02  0.472823D-01
 Leave Link  716 at Tue Dec 15 16:12:08 2015, MaxMem=    33554432 cpu:         0.0
 (Enter /home/Applications/g09/g09/l103.exe)

 GradGradGradGradGradGradGradGradGradGradGradGradGradGradGradGradGradGrad
 Berny optimization.
 Search for a local minimum.
 Step number   1 out of a maximum of    2
 All quantities printed in internal units (Hartrees-Bohrs-Radians)
 Second derivative matrix not updated -- first step.
 ITU=  0
     Eigenvalues ---    0.02215   0.02976   0.06947   0.07374   0.07882
     Eigenvalues ---    0.08892   0.13278   0.15895   0.16194   0.22967
     Eigenvalues ---    0.26858   0.32620   0.42847   0.44753   0.62751
     Eigenvalues ---    0.83090   1.05813   1.30516   1.45138   1.59152
     Eigenvalues ---    1.69940
 Quadratic step=4.416D-01 exceeds max=3.000D-01 adjusted using Lamda=-1.218D-01.
 Angle between NR and scaled steps=  11.16 degrees.
 Angle between quadratic step and forces=  36.86 degrees.
 Linear search not attempted -- first point.
 TrRot= -0.009322 -0.003694  0.000477 -0.809800 -0.000364  0.810295
 Variable       Old X    -DE/DX   Delta X   Delta X   Delta X     New X
                                 (Linear)    (Quad)   (Total)
    X1        1.86705   0.08706   0.00000   0.07143   0.06276   1.92981
    Y1       -1.25962  -0.04554   0.00000  -0.05531  -0.05805  -1.31767
    Z1       -0.01375   0.00170   0.00000   0.00415   0.00546  -0.00829
    X2       -0.60241  -0.07865   0.00000  -0.06669  -0.07499  -0.67740
    Y2       -1.99183  -0.07134   0.00000  -0.09546  -0.09948  -2.09131
    Z2        0.01629   0.00168   0.00000   0.00329   0.00415   0.02044
    X3       -2.24561  -0.04380   0.00000  -0.07126  -0.08061  -2.32622
    Y3        0.07505  -0.02133   0.00000  -0.02036  -0.02520   0.04986
    Z3        0.02142   0.00087   0.00000   0.00099   0.00087   0.02229
    X4       -0.59341  -0.10710   0.00000  -0.07991  -0.09029  -0.68370
    Y4        2.04474   0.10753   0.00000   0.10719   0.10316   2.14790
    Z4       -0.01746  -0.00204   0.00000  -0.00405  -0.00431  -0.02177
    X5        1.82992   0.10257   0.00000   0.09444   0.08445   1.91437
    Y5        1.32935   0.00945   0.00000   0.04180   0.03905   1.36840
    Z5       -0.03543  -0.00054   0.00000   0.00039   0.00099  -0.03444
    X6        3.40540   0.02642   0.00000   0.12445   0.11385   3.51925
    Y6        2.53871   0.01967   0.00000   0.07050   0.06854   2.60725
    Z6       -0.04774  -0.00048   0.00000  -0.00235  -0.00167  -0.04941
    X7       -1.64573   0.01365   0.00000  -0.00871  -0.01996  -1.66570
    Y7        3.87401  -0.00858   0.00000   0.06817   0.06364   3.93766
    Z7       -0.06210   0.00074   0.00000   0.00030  -0.00068  -0.06278
    X8       -1.62396   0.00477   0.00000  -0.02890  -0.03633  -1.66028
    Y8       -3.78485  -0.00001   0.00000  -0.07509  -0.07958  -3.86444
    Z8        0.05550  -0.00037   0.00000  -0.00134  -0.00026   0.05524
    X9        3.47187  -0.00493   0.00000   0.04917   0.04112   3.51299
    Y9       -2.59560   0.01015   0.00000  -0.01014  -0.01208  -2.60768
    Z9        0.03946  -0.00155   0.00000  -0.00659  -0.00454   0.03492
         Item               Value     Threshold  Converged?
 Maximum Force            0.107530     0.000450     NO 
 RMS     Force            0.046529     0.000300     NO 
 Maximum Displacement     0.113845     0.001800     NO 
 RMS     Displacement     0.057446     0.001200     NO 
 Predicted change in Energy=-3.450253D-02
 GradGradGradGradGradGradGradGradGradGradGradGradGradGradGradGradGradGrad

 Leave Link  103 at Tue Dec 15 16:12:08 2015, MaxMem=    33554432 cpu:         0.0
 (Enter /home/Applications/g09/g09/l9999.exe)
 1\1\GINC-DUSTIN-DESKTOP\Force\RAM1-FC\STO-3G\C4H4O1\DUSTIN\15-Dec-2015
 \0\\#P AM1(Input,print) CIS(Singlets,NStates=15) pop(full) force\\AM1-
 Reparam Input\\0,1\C,0.988001,-0.666563,-0.007277\C,-0.318781,-1.05403
 1,0.008621\O,-1.188327,0.039717,0.011334\C,-0.314021,1.082031,-0.00923
 9\C,0.968351,0.703462,-0.01875\H,1.802061,1.343429,-0.025263\H,-0.8708
 85,2.050039,-0.032863\H,-0.859361,-2.002859,0.029371\H,1.837234,-1.373
 533,0.020882\\Version=ES64L-G09RevD.01\State=1-A\HF=0.0225674\RMSD=8.6
 07e-09\RMSF=4.653e-02\Dipole=0.280909,0.0339129,0.0028295\PG=C01 [X(C4
 H4O1)]\\@


 CHEMISTRY BEGAN BY SAYING IT WOULD CHANGE THE BASER
 METALS INTO GOLD.  BY NOT DOING THAT IT HAS DONE MUCH
 GREATER THINGS.  --  RALPH WALDO EMERSON
 Job cpu time:       0 days  0 hours  0 minutes  0.5 seconds.
 File lengths (MBytes):  RWF=      7 Int=      0 D2E=      0 Chk=      2 Scr=      1
 Normal termination of Gaussian 09 at Tue Dec 15 16:12:08 2015.
