 Entering Gaussian System, Link 0=g09
 Input=FuranAM1_2.com
 Output=FuranAM1_2.log
 Initial command:
 /home/Applications/g09/g09/l1.exe "/home/Applications/g09/scratch/Gau-7552.inp" -scrdir="/home/Applications/g09/scratch/"
 Entering Link 1 = /home/Applications/g09/g09/l1.exe PID=      7557.
  
 Copyright (c) 1988,1990,1992,1993,1995,1998,2003,2009,2013,
            Gaussian, Inc.  All Rights Reserved.
  
 This is part of the Gaussian(R) 09 program.  It is based on
 the Gaussian(R) 03 system (copyright 2003, Gaussian, Inc.),
 the Gaussian(R) 98 system (copyright 1998, Gaussian, Inc.),
 the Gaussian(R) 94 system (copyright 1995, Gaussian, Inc.),
 the Gaussian 92(TM) system (copyright 1992, Gaussian, Inc.),
 the Gaussian 90(TM) system (copyright 1990, Gaussian, Inc.),
 the Gaussian 88(TM) system (copyright 1988, Gaussian, Inc.),
 the Gaussian 86(TM) system (copyright 1986, Carnegie Mellon
 University), and the Gaussian 82(TM) system (copyright 1983,
 Carnegie Mellon University). Gaussian is a federally registered
 trademark of Gaussian, Inc.
  
 This software contains proprietary and confidential information,
 including trade secrets, belonging to Gaussian, Inc.
  
 This software is provided under written license and may be
 used, copied, transmitted, or stored only in accord with that
 written license.
  
 The following legend is applicable only to US Government
 contracts under FAR:
  
                    RESTRICTED RIGHTS LEGEND
  
 Use, reproduction and disclosure by the US Government is
 subject to restrictions as set forth in subparagraphs (a)
 and (c) of the Commercial Computer Software - Restricted
 Rights clause in FAR 52.227-19.
  
 Gaussian, Inc.
 340 Quinnipiac St., Bldg. 40, Wallingford CT 06492
  
  
 ---------------------------------------------------------------
 Warning -- This program may not be used in any manner that
 competes with the business of Gaussian, Inc. or will provide
 assistance to any competitor of Gaussian, Inc.  The licensee
 of this program is prohibited from giving any competitor of
 Gaussian, Inc. access to this program.  By using this program,
 the user acknowledges that Gaussian, Inc. is engaged in the
 business of creating and licensing software in the field of
 computational chemistry and represents and warrants to the
 licensee that it is not a competitor of Gaussian, Inc. and that
 it will not use this program in any manner prohibited above.
 ---------------------------------------------------------------
  

 Cite this work as:
 Gaussian 09, Revision D.01,
 M. J. Frisch, G. W. Trucks, H. B. Schlegel, G. E. Scuseria, 
 M. A. Robb, J. R. Cheeseman, G. Scalmani, V. Barone, B. Mennucci, 
 G. A. Petersson, H. Nakatsuji, M. Caricato, X. Li, H. P. Hratchian, 
 A. F. Izmaylov, J. Bloino, G. Zheng, J. L. Sonnenberg, M. Hada, 
 M. Ehara, K. Toyota, R. Fukuda, J. Hasegawa, M. Ishida, T. Nakajima, 
 Y. Honda, O. Kitao, H. Nakai, T. Vreven, J. A. Montgomery, Jr., 
 J. E. Peralta, F. Ogliaro, M. Bearpark, J. J. Heyd, E. Brothers, 
 K. N. Kudin, V. N. Staroverov, T. Keith, R. Kobayashi, J. Normand, 
 K. Raghavachari, A. Rendell, J. C. Burant, S. S. Iyengar, J. Tomasi, 
 M. Cossi, N. Rega, J. M. Millam, M. Klene, J. E. Knox, J. B. Cross, 
 V. Bakken, C. Adamo, J. Jaramillo, R. Gomperts, R. E. Stratmann, 
 O. Yazyev, A. J. Austin, R. Cammi, C. Pomelli, J. W. Ochterski, 
 R. L. Martin, K. Morokuma, V. G. Zakrzewski, G. A. Voth, 
 P. Salvador, J. J. Dannenberg, S. Dapprich, A. D. Daniels, 
 O. Farkas, J. B. Foresman, J. V. Ortiz, J. Cioslowski, 
 and D. J. Fox, Gaussian, Inc., Wallingford CT, 2013.
 
 ******************************************
 Gaussian 09:  ES64L-G09RevD.01 24-Apr-2013
                14-Nov-2015 
 ******************************************
 ------------------------------------------------------------
 #P AM1(Input,print) CIS(Singlets,NStates=15) pop(full) force
 ------------------------------------------------------------
 1/10=7,30=1,38=1/1,3;
 2/12=2,17=6,18=5,40=1/2;
 3/5=2,16=1,25=1,41=700000,71=1,135=100,136=1/1,2,8,3;
 4/35=1/1;
 5/5=2,35=1,38=5/2;
 8/6=1,10=1,108=15/1;
 9/15=2,41=15,42=1,48=1,49=10/14;
 10/5=4/2;
 6/7=3,18=1/1;
 7/12=6,13=5,29=1/1,2,3,16;
 1/10=7,30=1/3;
 99//99;
 Leave Link    1 at Sat Nov 14 17:36:38 2015, MaxMem=           0 cpu:         0.0
 (Enter /home/Applications/g09/g09/l101.exe)
 -----------------
 AM1-Reparam Input
 -----------------
 Symbolic Z-matrix:
 Charge =  0 Multiplicity = 1
 6                     0.90894  -0.7413    0.00223 
 6                    -0.3802   -1.12777   0.02823 
 8                    -1.16715  -0.04528  -0.04082 
 6                    -0.32861   1.13626   0.03342 
 6                     0.92444   0.67048   0.00416 
 1                     1.81077   1.38934   0.00302 
 1                    -0.87903   2.06303   0.02013 
 1                    -0.8316   -2.04614   0.01716 
 1                     1.81992  -1.3514    0.01567 
 
 NAtoms=      9 NQM=        9 NQMF=       0 NMMI=      0 NMMIF=      0
                NMic=       0 NMicF=      0.
                    Isotopes and Nuclear Properties:
 (Nuclear quadrupole moments (NQMom) in fm**2, nuclear magnetic moments (NMagM)
  in nuclear magnetons)

  Atom         1           2           3           4           5           6           7           8           9
 IAtWgt=          12          12          16          12          12           1           1           1           1
 AtmWgt=  12.0000000  12.0000000  15.9949146  12.0000000  12.0000000   1.0078250   1.0078250   1.0078250   1.0078250
 NucSpn=           0           0           0           0           0           1           1           1           1
 AtZEff=   0.0000000   0.0000000   0.0000000   0.0000000   0.0000000   0.0000000   0.0000000   0.0000000   0.0000000
 NQMom=    0.0000000   0.0000000   0.0000000   0.0000000   0.0000000   0.0000000   0.0000000   0.0000000   0.0000000
 NMagM=    0.0000000   0.0000000   0.0000000   0.0000000   0.0000000   2.7928460   2.7928460   2.7928460   2.7928460
 AtZNuc=   6.0000000   6.0000000   8.0000000   6.0000000   6.0000000   1.0000000   1.0000000   1.0000000   1.0000000
 Leave Link  101 at Sat Nov 14 17:36:38 2015, MaxMem=    33554432 cpu:         0.0
 (Enter /home/Applications/g09/g09/l103.exe)

 GradGradGradGradGradGradGradGradGradGradGradGradGradGradGradGradGradGrad
 Berny optimization.
 Initialization pass.
 Trust Radius=3.00D-01 FncErr=1.00D-07 GrdErr=1.00D-07
 Number of steps in this run=      2 maximum allowed number of steps=      2.
 GradGradGradGradGradGradGradGradGradGradGradGradGradGradGradGradGradGrad

 Leave Link  103 at Sat Nov 14 17:36:38 2015, MaxMem=    33554432 cpu:         0.0
 (Enter /home/Applications/g09/g09/l202.exe)
                          Input orientation:                          
 ---------------------------------------------------------------------
 Center     Atomic      Atomic             Coordinates (Angstroms)
 Number     Number       Type             X           Y           Z
 ---------------------------------------------------------------------
      1          6           0        0.908936   -0.741299    0.002227
      2          6           0       -0.380203   -1.127775    0.028234
      3          8           0       -1.167153   -0.045281   -0.040817
      4          6           0       -0.328606    1.136262    0.033424
      5          6           0        0.924443    0.670484    0.004163
      6          1           0        1.810769    1.389340    0.003020
      7          1           0       -0.879032    2.063032    0.020134
      8          1           0       -0.831595   -2.046141    0.017164
      9          1           0        1.819916   -1.351398    0.015669
 ---------------------------------------------------------------------
                    Distance matrix (angstroms):
                    1          2          3          4          5
     1  C    0.000000
     2  C    1.346076   0.000000
     3  O    2.190077   1.340094   0.000000
     4  C    2.248937   2.264631   1.450764   0.000000
     5  C    1.411869   2.221805   2.211135   1.337138   0.000000
     6  H    2.313639   3.337194   3.305764   2.154507   1.141196
     7  H    3.325872   3.229574   2.128782   1.077983   2.278589
     8  H    2.175381   1.023364   2.029631   3.221948   3.234794
     9  H    1.096488   2.211490   3.260631   3.287083   2.211337
                    6          7          8          9
     6  H    0.000000
     7  H    2.772938   0.000000
     8  H    4.334146   4.109448   0.000000
     9  H    2.740782   4.352318   2.741018   0.000000
 Stoichiometry    C4H4O
 Framework group  C1[X(C4H4O)]
 Deg. of freedom    21
 Full point group                 C1      NOp   1
 Largest Abelian subgroup         C1      NOp   1
 Largest concise Abelian subgroup C1      NOp   1
                         Standard orientation:                         
 ---------------------------------------------------------------------
 Center     Atomic      Atomic             Coordinates (Angstroms)
 Number     Number       Type             X           Y           Z
 ---------------------------------------------------------------------
      1          6           0        0.608469    1.005898   -0.009403
      2          6           0        1.143570   -0.228639    0.029399
      3          8           0        0.161140   -1.137871   -0.033686
      4          6           0       -1.110870   -0.443227    0.030924
      5          6           0       -0.795369    0.855524   -0.009594
      6          1           0       -1.613316    1.651251   -0.020170
      7          1           0       -1.966565   -1.098778    0.021567
      8          1           0        2.108609   -0.569144    0.023908
      9          1           0        1.107350    1.982306   -0.003766
 ---------------------------------------------------------------------
 Rotational constants (GHZ):      9.5776694      9.1351532      4.6793551
 Leave Link  202 at Sat Nov 14 17:36:38 2015, MaxMem=    33554432 cpu:         0.0
 (Enter /home/Applications/g09/g09/l301.exe)

 Semi-emprical parameters in input format:
 Method=8 CoreType=1 PeptideFC=0.0122030000 RIJScale=0.5185550000
 ****
 H       
 PQN=1 NValence=1 F0ss=0.4825000000 ZetaOverlap=1.2099400000 U=-0.4188110000
 Beta=-0.2321950000 CoreKO=1.0589200000 KON=0,0,0,1.0589200000 KON=1,0,1,1.0589200000
 KON=0,1,1,1.0589200000 KON=2,1,1,1.0436260000 EISol=-0.4188110042 EHeat=0.0830298228
 Alpha=1.5252600000
 GCore=0.0085280000,1.4001430000,2.2676710000
 GCore=0.0003530000,1.3411630000,3.3020960000
 GCore=-0.0013190000,0.5600570000,3.9684250000
 ****
 C       
 PQN=2,2 NValence=4 F0ss=0.4494440000 F0sp=0.4215150000 F0pp=0.3768030000 F2pp=0.1945650000
 G1sp=0.2703300000
 ZetaOverlap=1.7266490000,1.6851160000
 U=-1.9120180000,-1.4557970000
 Beta=-0.5856680000,-0.2842450000 DDN=0,1,0.8236740000 DDN=1,1,0.7268010000
 CoreKO=1.1124280000 KON=0,0,0,1.1124280000 KON=1,0,1,0.7973820000 KON=0,1,1,1.1121310000
 KON=2,1,1,0.7949800000 EISol=-4.4398989268 EHeat=0.2723305520 Alpha=1.4240710000
 DipHyp=1.6472532266
 GCore=0.0008170000,1.3416950000,3.0957900000
 GCore=0.0031890000,1.4001430000,3.4959930000
 GCore=-0.0013520000,1.4430290000,3.8739390000
 GCore=-0.0000880000,1.4001430000,5.1136920000
 ****
 O       
 PQN=2,2 NValence=6 F0ss=0.5666750000 F0sp=0.5224510000 F0pp=0.4841100000 F2pp=0.2432330000
 G1sp=0.4314590000
 ZetaOverlap=3.1080320000,2.5240390000
 U=-3.5951870000,-2.8760900000
 Beta=-1.1022050000,-1.0757550000 DDN=0,1,0.5021220000 DDN=1,1,0.4852320000
 CoreKO=0.9138150000 KON=0,0,0,0.8822960000 KON=1,0,1,0.4899190000 KON=0,1,1,0.9108530000
 KON=2,1,1,0.5349580000 EISol=-11.6164441184 EHeat=0.0949133088 Alpha=2.2516500000
 DipHyp=1.0041862250
 GCore=0.0195120000,1.4001430000,1.5613910000
 GCore=0.0054260000,1.8036240000,2.7307880000
 ****
 
 Standard basis: VSTO-6G (5D, 7F)
 Ernie: Thresh=  0.10000D-02 Tol=  0.10000D-05 Strict=F.
  NNHCO=     0 NNPyr=     0 NCTC=     0               EPep=         0.000000000
    EC=        68.492849561  ECS=         1.737566702   EG=         0.329545894
   EHC=         0.000000000  EAt=       -31.051283842  AtH=         1.516354808
 EPDDG=         0.000000000  ECC=        70.559962156 EAtT=        32.567638650
 There are    24 symmetry adapted cartesian basis functions of A   symmetry.
 There are    24 symmetry adapted basis functions of A   symmetry.
    24 basis functions,   144 primitive gaussians,    24 cartesian basis functions
    13 alpha electrons       13 beta electrons
       nuclear repulsion energy       103.1276008064 Hartrees.
 IExCor=    0 DFT=F Ex=HF Corr=None ExCW=0 ScaHFX=  1.000000
 ScaDFX=  1.000000  1.000000  1.000000  1.000000 ScalE2=  1.000000  1.000000
 IRadAn=      0 IRanWt=     -1 IRanGd=            0 ICorTp=0 IEmpDi=  4
 Integral buffers will be    131072 words long.
 Regular integral format.
 Two-electron integral symmetry is turned off.
 Leave Link  301 at Sat Nov 14 17:36:38 2015, MaxMem=    33554432 cpu:         0.0
 (Enter /home/Applications/g09/g09/l302.exe)
 Do NDO integrals.
 NPDir=0 NMtPBC=     1 NCelOv=     1 NCel=       1 NClECP=     1 NCelD=      1
         NCelK=      1 NCelE2=     1 NClLst=     1 CellRange=     0.0.
 One-electron integrals computed using PRISM.
 NBasis=    24 RedAO= F EigKep=  0.00D+00  NBF=    24
 NBsUse=    24 1.00D-04 EigRej=  0.00D+00 NBFU=    24
 Leave Link  302 at Sat Nov 14 17:36:38 2015, MaxMem=    33554432 cpu:         0.0
 (Enter /home/Applications/g09/g09/l308.exe)
 Leave Link  308 at Sat Nov 14 17:36:38 2015, MaxMem=    33554432 cpu:         0.0
 (Enter /home/Applications/g09/g09/l303.exe)
 DipDrv:  MaxL=1.
 Leave Link  303 at Sat Nov 14 17:36:38 2015, MaxMem=    33554432 cpu:         0.0
 (Enter /home/Applications/g09/g09/l401.exe)
 Simple Huckel Guess.
 JPrj=0 DoOrth=F DoCkMO=F.
 Leave Link  401 at Sat Nov 14 17:36:38 2015, MaxMem=    33554432 cpu:         0.0
 (Enter /home/Applications/g09/g09/l502.exe)
 Closed shell SCF:
 Using DIIS extrapolation, IDIIS=  1040.
 Overlap will be assumed to be unity.
 Two-electron integral symmetry not used.
 Keep J ints in memory in canonical form, NReq=888082.
 IVT=       79475 IEndB=       79475 NGot=    33554432 MDV=    33473473
 LenX=    33473473 LenY=    33472456
 Requested convergence on RMS density matrix=1.00D-08 within 128 cycles.
 Requested convergence on MAX density matrix=1.00D-06.
 Requested convergence on             energy=1.00D-06.
 No special actions if energy rises.
 FoFCou: FMM=F IPFlag=           0 FMFlag=           0 FMFlg1=           0
         NFxFlg=           0 DoJE=F BraDBF=F KetDBF=F FulRan=T
         wScrn=  0.000000 ICntrl=     600 IOpCl=  2 I1Cent=           0 NGrid=           0
         NMat0=    1 NMatS0=     54 NMatT0=    0 NMatD0=    1 NMtDS0=    0 NMtDT0=    0
 Symmetry not used in FoFCou.

 Cycle   1  Pass 1  IDiag  1:
 E=-0.779942951524646E-01
 DIIS: error= 6.04D-02 at cycle   1 NSaved=   1.
 NSaved= 1 IEnMin= 1 EnMin=-0.779942951524646E-01 IErMin= 1 ErrMin= 6.04D-02
 ErrMax= 6.04D-02  0.00D+00 EMaxC= 1.00D-01 BMatC= 1.11D-01 BMatP= 1.11D-01
 IDIUse=3 WtCom= 3.96D-01 WtEn= 6.04D-01
 Coeff-Com:  0.100D+01
 Coeff-En:   0.100D+01
 Coeff:      0.100D+01
 GapD=    2.000 DampG=2.000 DampE=0.500 DampFc=1.0000 IDamp=-1.
 RMSDP=1.81D-02 MaxDP=1.57D-01              OVMax= 0.00D+00

 Cycle   2  Pass 1  IDiag  1:
 E=-0.331110805438613     Delta-E=       -0.253116510286 Rises=F Damp=F
 DIIS: error= 1.69D-02 at cycle   2 NSaved=   2.
 NSaved= 2 IEnMin= 2 EnMin=-0.331110805438613     IErMin= 2 ErrMin= 1.69D-02
 ErrMax= 1.69D-02  0.00D+00 EMaxC= 1.00D-01 BMatC= 8.04D-03 BMatP= 1.11D-01
 IDIUse=3 WtCom= 8.31D-01 WtEn= 1.69D-01
 Coeff-Com: -0.321D+00 0.132D+01
 Coeff-En:   0.000D+00 0.100D+01
 Coeff:     -0.267D+00 0.127D+01
 RMSDP=7.02D-03 MaxDP=5.38D-02 DE=-2.53D-01 OVMax= 0.00D+00

 Cycle   3  Pass 1  IDiag  3:
 E=-0.354741329076873     Delta-E=       -0.023630523638 Rises=F Damp=F
 DIIS: error= 2.91D-03 at cycle   3 NSaved=   3.
 NSaved= 3 IEnMin= 3 EnMin=-0.354741329076873     IErMin= 3 ErrMin= 2.91D-03
 ErrMax= 2.91D-03  0.00D+00 EMaxC= 1.00D-01 BMatC= 2.55D-04 BMatP= 8.04D-03
 IDIUse=3 WtCom= 9.71D-01 WtEn= 2.91D-02
 Coeff-Com:  0.871D-01-0.453D+00 0.137D+01
 Coeff-En:   0.000D+00 0.000D+00 0.100D+01
 Coeff:      0.846D-01-0.439D+00 0.135D+01
 Gap=     0.373 Goal=   None    Shift=    0.000
 RMSDP=1.93D-03 MaxDP=2.11D-02 DE=-2.36D-02 OVMax= 2.25D-02

 Cycle   4  Pass 1  IDiag  3:
 E=-0.356022958733703     Delta-E=       -0.001281629657 Rises=F Damp=F
 DIIS: error= 8.86D-04 at cycle   4 NSaved=   4.
 NSaved= 4 IEnMin= 4 EnMin=-0.356022958733703     IErMin= 4 ErrMin= 8.86D-04
 ErrMax= 8.86D-04  0.00D+00 EMaxC= 1.00D-01 BMatC= 1.86D-05 BMatP= 2.55D-04
 IDIUse=3 WtCom= 9.91D-01 WtEn= 8.86D-03
 Coeff-Com:  0.389D-02 0.549D-02-0.337D+00 0.133D+01
 Coeff-En:   0.000D+00 0.000D+00 0.000D+00 0.100D+01
 Coeff:      0.385D-02 0.545D-02-0.334D+00 0.132D+01
 Gap=     0.374 Goal=   None    Shift=    0.000
 RMSDP=6.77D-04 MaxDP=7.62D-03 DE=-1.28D-03 OVMax= 8.36D-03

 Cycle   5  Pass 1  IDiag  3:
 E=-0.356138258789144     Delta-E=       -0.000115300055 Rises=F Damp=F
 DIIS: error= 1.48D-04 at cycle   5 NSaved=   5.
 NSaved= 5 IEnMin= 5 EnMin=-0.356138258789144     IErMin= 5 ErrMin= 1.48D-04
 ErrMax= 1.48D-04  0.00D+00 EMaxC= 1.00D-01 BMatC= 1.08D-06 BMatP= 1.86D-05
 IDIUse=3 WtCom= 9.99D-01 WtEn= 1.48D-03
 Coeff-Com: -0.375D-02 0.110D-01 0.864D-01-0.563D+00 0.147D+01
 Coeff-En:   0.000D+00 0.000D+00 0.000D+00 0.000D+00 0.100D+01
 Coeff:     -0.374D-02 0.110D-01 0.863D-01-0.562D+00 0.147D+01
 Gap=     0.374 Goal=   None    Shift=    0.000
 RMSDP=1.91D-04 MaxDP=1.42D-03 DE=-1.15D-04 OVMax= 1.91D-03

 Cycle   6  Pass 1  IDiag  3:
 E=-0.356146032534454     Delta-E=       -0.000007773745 Rises=F Damp=F
 DIIS: error= 6.40D-05 at cycle   6 NSaved=   6.
 NSaved= 6 IEnMin= 6 EnMin=-0.356146032534454     IErMin= 6 ErrMin= 6.40D-05
 ErrMax= 6.40D-05  0.00D+00 EMaxC= 1.00D-01 BMatC= 7.96D-08 BMatP= 1.08D-06
 IDIUse=1 WtCom= 1.00D+00 WtEn= 0.00D+00
 Coeff-Com:  0.201D-02-0.692D-02-0.238D-01 0.215D+00-0.757D+00 0.157D+01
 Coeff:      0.201D-02-0.692D-02-0.238D-01 0.215D+00-0.757D+00 0.157D+01
 Gap=     0.374 Goal=   None    Shift=    0.000
 RMSDP=6.18D-05 MaxDP=5.28D-04 DE=-7.77D-06 OVMax= 7.42D-04

 Cycle   7  Pass 1  IDiag  3:
 E=-0.356146723184168     Delta-E=       -0.000000690650 Rises=F Damp=F
 DIIS: error= 1.95D-05 at cycle   7 NSaved=   7.
 NSaved= 7 IEnMin= 7 EnMin=-0.356146723184168     IErMin= 7 ErrMin= 1.95D-05
 ErrMax= 1.95D-05  0.00D+00 EMaxC= 1.00D-01 BMatC= 5.38D-09 BMatP= 7.96D-08
 IDIUse=1 WtCom= 1.00D+00 WtEn= 0.00D+00
 Coeff-Com: -0.507D-03 0.149D-02 0.770D-02-0.634D-01 0.237D+00-0.690D+00
 Coeff-Com:  0.151D+01
 Coeff:     -0.507D-03 0.149D-02 0.770D-02-0.634D-01 0.237D+00-0.690D+00
 Coeff:      0.151D+01
 Gap=     0.374 Goal=   None    Shift=    0.000
 RMSDP=1.82D-05 MaxDP=1.70D-04 DE=-6.91D-07 OVMax= 1.94D-04

 Cycle   8  Pass 1  IDiag  3:
 E=-0.356146773532942     Delta-E=       -0.000000050349 Rises=F Damp=F
 DIIS: error= 4.04D-06 at cycle   8 NSaved=   8.
 NSaved= 8 IEnMin= 8 EnMin=-0.356146773532942     IErMin= 8 ErrMin= 4.04D-06
 ErrMax= 4.04D-06  0.00D+00 EMaxC= 1.00D-01 BMatC= 2.82D-10 BMatP= 5.38D-09
 IDIUse=1 WtCom= 1.00D+00 WtEn= 0.00D+00
 Coeff-Com:  0.781D-04-0.690D-04-0.270D-02 0.168D-01-0.591D-01 0.192D+00
 Coeff-Com: -0.611D+00 0.146D+01
 Coeff:      0.781D-04-0.690D-04-0.270D-02 0.168D-01-0.591D-01 0.192D+00
 Coeff:     -0.611D+00 0.146D+01
 Gap=     0.374 Goal=   None    Shift=    0.000
 RMSDP=3.96D-06 MaxDP=3.61D-05 DE=-5.03D-08 OVMax= 3.83D-05

 Cycle   9  Pass 1  IDiag  3:
 E=-0.356146775813272     Delta-E=       -0.000000002280 Rises=F Damp=F
 DIIS: error= 5.17D-07 at cycle   9 NSaved=   9.
 NSaved= 9 IEnMin= 9 EnMin=-0.356146775813272     IErMin= 9 ErrMin= 5.17D-07
 ErrMax= 5.17D-07  0.00D+00 EMaxC= 1.00D-01 BMatC= 1.13D-11 BMatP= 2.82D-10
 IDIUse=1 WtCom= 1.00D+00 WtEn= 0.00D+00
 Coeff-Com:  0.139D-05-0.759D-04 0.600D-03-0.279D-02 0.961D-02-0.375D-01
 Coeff-Com:  0.160D+00-0.545D+00 0.142D+01
 Coeff:      0.139D-05-0.759D-04 0.600D-03-0.279D-02 0.961D-02-0.375D-01
 Coeff:      0.160D+00-0.545D+00 0.142D+01
 Gap=     0.374 Goal=   None    Shift=    0.000
 RMSDP=5.87D-07 MaxDP=4.94D-06 DE=-2.28D-09 OVMax= 5.44D-06

 Cycle  10  Pass 1  IDiag  3:
 E=-0.356146775881499     Delta-E=       -0.000000000068 Rises=F Damp=F
 DIIS: error= 9.88D-08 at cycle  10 NSaved=  10.
 NSaved=10 IEnMin=10 EnMin=-0.356146775881499     IErMin=10 ErrMin= 9.88D-08
 ErrMax= 9.88D-08  0.00D+00 EMaxC= 1.00D-01 BMatC= 5.00D-13 BMatP= 1.13D-11
 IDIUse=1 WtCom= 1.00D+00 WtEn= 0.00D+00
 Coeff-Com: -0.418D-05 0.447D-04-0.222D-03 0.850D-03-0.273D-02 0.116D-01
 Coeff-Com: -0.564D-01 0.212D+00-0.681D+00 0.152D+01
 Coeff:     -0.418D-05 0.447D-04-0.222D-03 0.850D-03-0.273D-02 0.116D-01
 Coeff:     -0.564D-01 0.212D+00-0.681D+00 0.152D+01
 Gap=     0.374 Goal=   None    Shift=    0.000
 RMSDP=1.22D-07 MaxDP=1.05D-06 DE=-6.82D-11 OVMax= 1.21D-06

 Cycle  11  Pass 1  IDiag  3:
 E=-0.356146775884525     Delta-E=       -0.000000000003 Rises=F Damp=F
 DIIS: error= 2.35D-08 at cycle  11 NSaved=  11.
 NSaved=11 IEnMin=11 EnMin=-0.356146775884525     IErMin=11 ErrMin= 2.35D-08
 ErrMax= 2.35D-08  0.00D+00 EMaxC= 1.00D-01 BMatC= 1.79D-14 BMatP= 5.00D-13
 IDIUse=1 WtCom= 1.00D+00 WtEn= 0.00D+00
 Coeff-Com:  0.195D-05-0.197D-04 0.924D-04-0.344D-03 0.108D-02-0.468D-02
 Coeff-Com:  0.231D-01-0.872D-01 0.285D+00-0.723D+00 0.151D+01
 Coeff:      0.195D-05-0.197D-04 0.924D-04-0.344D-03 0.108D-02-0.468D-02
 Coeff:      0.231D-01-0.872D-01 0.285D+00-0.723D+00 0.151D+01
 Gap=     0.374 Goal=   None    Shift=    0.000
 RMSDP=2.44D-08 MaxDP=2.33D-07 DE=-3.03D-12 OVMax= 2.66D-07

 Cycle  12  Pass 1  IDiag  3:
 E=-0.356146775884454     Delta-E=        0.000000000000 Rises=F Damp=F
 DIIS: error= 5.14D-09 at cycle  12 NSaved=  12.
 NSaved=12 IEnMin=11 EnMin=-0.356146775884525     IErMin=12 ErrMin= 5.14D-09
 ErrMax= 5.14D-09  0.00D+00 EMaxC= 1.00D-01 BMatC= 1.02D-15 BMatP= 1.79D-14
 IDIUse=1 WtCom= 1.00D+00 WtEn= 0.00D+00
 Coeff-Com: -0.735D-06 0.714D-05-0.317D-04 0.116D-03-0.355D-03 0.158D-02
 Coeff-Com: -0.793D-02 0.301D-01-0.995D-01 0.263D+00-0.711D+00 0.152D+01
 Coeff:     -0.735D-06 0.714D-05-0.317D-04 0.116D-03-0.355D-03 0.158D-02
 Coeff:     -0.793D-02 0.301D-01-0.995D-01 0.263D+00-0.711D+00 0.152D+01
 Gap=     0.374 Goal=   None    Shift=    0.000
 RMSDP=6.88D-09 MaxDP=6.04D-08 DE= 7.11D-14 OVMax= 7.33D-08

 Cycle  13  Pass 2  IDiag  1:
 SCF Done:  E(RAM1) = -0.356146775884     A.U. after   13 cycles
            NFock= 12  Conv=0.69D-08     -V/T= 0.9790
 KE=-1.692838228158D+01 PE=-1.705081507792D+02 EE= 8.395278547852D+01
 Leave Link  502 at Sat Nov 14 17:36:38 2015, MaxMem=    33554432 cpu:         0.0
 (Enter /home/Applications/g09/g09/l801.exe)
 Range of M.O.s used for correlation:     1    24
 NBasis=    24 NAE=    13 NBE=    13 NFC=     0 NFV=     0
 NROrb=     24 NOA=    13 NOB=    13 NVA=    11 NVB=    11
 Leave Link  801 at Sat Nov 14 17:36:38 2015, MaxMem=    33554432 cpu:         0.0
 (Enter /home/Applications/g09/g09/l914.exe)
 RHF ground state
 MDV=    33554432 DFT=F DoStab=F Mixed=F DoRPA=F DoScal=F NonHer=F
 Making orbital integer symmetry assigments:
 Orbital symmetries:
       Occupied  (A) (A) (A) (A) (A) (A) (A) (A) (A) (A) (A) (A)
                 (A)
       Virtual   (A) (A) (A) (A) (A) (A) (A) (A) (A) (A) (A)
    60 initial guesses have been made.
 Convergence on wavefunction:    0.000001000000000
 Davidson Disk Diagonalization:  ConvIn= 1.00D-06 SkipCon=T Conv= 1.00D-06.
 Max sub-space:   240 roots to seek:    60 dimension of matrix:          286
 Iteration     1 Dimension    60 NMult     0 NNew     60
 CISAX will form    60 AO SS matrices at one time.
 NMat=    60 NSing=    60 JSym2X= 0.
 FoFJK:  IHMeth= 8 ICntrl=       0 DoSepK=F KAlg= 0 I1Cent=   0 FoldK=F
 IRaf=         1 NMat= 120 IRICut=       1 DoRegI=T DoRafI=F ISym2E= 0.
 FoFCou: FMM=F IPFlag=           0 FMFlag=      100000 FMFlg1=           0
         NFxFlg=           0 DoJE=F BraDBF=F KetDBF=F FulRan=T
         wScrn=  0.000000 ICntrl=       0 IOpCl=  0 I1Cent=           0 NGrid=           0
         NMat0=  120 NMatS0=     60 NMatT0=    0 NMatD0=  120 NMtDS0=    0 NMtDT0=    0
 Symmetry not used in FoFCou.
 New state      2 was old state      4
 New state      3 was old state      2
 New state      4 was old state      6
 New state      5 was old state      8
 New state      6 was old state      9
 New state      7 was old state      3
 New state      8 was old state      7
 New state      9 was old state      5
 New state     10 was old state     11
 New state     11 was old state     12
 New state     12 was old state     16
 New state     14 was old state     10
 New state     15 was old state     14
 Excitation Energies [eV] at current iteration:
 Root      1 :     4.506200632144171
 Root      2 :     4.931061258477112
 Root      3 :     5.311762831513461
 Root      4 :     6.353818439164196
 Root      5 :     6.462854021286983
 Root      6 :     6.558113122769859
 Root      7 :     6.570898548120034
 Root      8 :     6.761317091028623
 Root      9 :     6.867889186430812
 Root     10 :     7.202010159185819
 Root     11 :     7.529524525945177
 Root     12 :     7.621193835578377
 Root     13 :     7.773424845873993
 Root     14 :     7.869212334605054
 Root     15 :     7.973404149561382
 Root     16 :     8.100879086868373
 Root     17 :     8.167871425827029
 Root     18 :     8.361365069653047
 Root     19 :     8.404784721806072
 Root     20 :     8.755202633186654
 Root     21 :     8.799057491654835
 Root     22 :     9.012631005087792
 Root     23 :     9.041251709347311
 Root     24 :     9.331636244872733
 Root     25 :     9.653458133240592
 Root     26 :     9.824878559304555
 Root     27 :     9.971100770401378
 Root     28 :     9.995925751687286
 Root     29 :    10.038066330142580
 Root     30 :    10.175306361281380
 Root     31 :    10.341187869547960
 Root     32 :    10.365183642463040
 Root     33 :    10.445420102623380
 Root     34 :    10.567143443361010
 Root     35 :    10.659995606156950
 Root     36 :    10.736408778742980
 Root     37 :    10.853772273343120
 Root     38 :    11.004906584287190
 Root     39 :    11.050623439079740
 Root     40 :    11.089000065098940
 Root     41 :    11.291838542317900
 Root     42 :    11.380343918030840
 Root     43 :    11.516918393897190
 Root     44 :    11.665439689091680
 Root     45 :    11.751742817309650
 Root     46 :    11.917665304291910
 Root     47 :    12.015267789915200
 Root     48 :    12.097805504610810
 Root     49 :    12.223854816598220
 Root     50 :    12.311541384976930
 Root     51 :    12.489000036286440
 Root     52 :    12.714403021949360
 Root     53 :    12.895891844122810
 Root     54 :    13.058781291224780
 Root     55 :    13.135695207567240
 Root     56 :    13.370676869306620
 Root     57 :    13.436352131799880
 Root     58 :    13.556479432716030
 Root     59 :    13.618860300738180
 Root     60 :    14.019821308663990
 Iteration     2 Dimension   120 NMult    60 NNew     60
 CISAX will form    60 AO SS matrices at one time.
 NMat=    60 NSing=    60 JSym2X= 0.
 Root      1 not converged, maximum delta is    0.027694336549462
 Root      2 not converged, maximum delta is    0.031145910832482
 Root      3 not converged, maximum delta is    0.008563574508588
 Root      4 not converged, maximum delta is    0.106878065387361
 Root      5 not converged, maximum delta is    0.104195506843070
 New state      6 was old state      7
 Root      6 not converged, maximum delta is    0.283986351695966
 New state      7 was old state      6
 Root      7 not converged, maximum delta is    0.381862746615688
 Root      8 not converged, maximum delta is    0.038681111048154
 Root      9 not converged, maximum delta is    0.027966726114059
 Root     10 not converged, maximum delta is    0.031151662637131
 Root     11 not converged, maximum delta is    0.063886323527027
 Root     12 not converged, maximum delta is    0.072587255889952
 Root     13 not converged, maximum delta is    0.064856877143819
 Root     14 not converged, maximum delta is    0.087827925773714
 Root     15 not converged, maximum delta is    0.057792223035535
 Excitation Energies [eV] at current iteration:
 Root      1 :     4.435282288684480   Change is   -0.070918343459691
 Root      2 :     4.902894307707805   Change is   -0.028166950769308
 Root      3 :     5.302444101304533   Change is   -0.009318730208927
 Root      4 :     6.277669818166011   Change is   -0.076148620998185
 Root      5 :     6.360427257086722   Change is   -0.102426764200260
 Root      6 :     6.424694256555638   Change is   -0.146204291564396
 Root      7 :     6.466380336295777   Change is   -0.091732786474082
 Root      8 :     6.703313007894399   Change is   -0.058004083134224
 Root      9 :     6.826756987927204   Change is   -0.041132198503608
 Root     10 :     7.158751885541460   Change is   -0.043258273644358
 Root     11 :     7.387011409928132   Change is   -0.142513116017045
 Root     12 :     7.510393344420168   Change is   -0.110800491158209
 Root     13 :     7.745086660129038   Change is   -0.028338185744954
 Root     14 :     7.787561126380759   Change is   -0.081651208224295
 Root     15 :     7.906140083069510   Change is   -0.067264066491873
 Root     16 :     8.022626405091440   Change is   -0.078252681776933
 Root     17 :     8.094416537055169   Change is   -0.073454888771859
 Root     18 :     8.271881186757398   Change is   -0.089483882895649
 Root     19 :     8.308325695134004   Change is   -0.096459026672068
 Root     20 :     8.497692732242964   Change is   -0.257509900943689
 Root     21 :     8.765120172636736   Change is   -0.033937319018100
 Root     22 :     8.773169662929966   Change is   -0.268082046417345
 Root     23 :     8.994608671298126   Change is   -0.018022333789665
 Root     24 :     9.267934408234149   Change is   -0.063701836638584
 Root     25 :     9.323857745243012   Change is   -0.329600387997580
 Root     26 :     9.650918181833781   Change is   -0.345007569853505
 Root     27 :     9.683126451586771   Change is   -0.492179909694613
 Root     28 :     9.760348760507542   Change is   -0.064529798797012
 Root     29 :     9.802784335386313   Change is   -0.168316435015065
 Root     30 :     9.855633712975584   Change is   -0.182432617166992
 Root     31 :     9.873818318293543   Change is   -0.571601784329838
 Root     32 :     9.944897795047904   Change is   -0.396290074500052
 Root     33 :    10.064754218895210   Change is   -0.671654559847763
 Root     34 :    10.312079724108450   Change is   -0.053103918354597
 Root     35 :    10.362412447888710   Change is   -0.204730995472304
 Root     36 :    10.408126007488570   Change is   -0.251869598668379
 Root     37 :    10.440373151178690   Change is   -0.564533433108504
 Root     38 :    10.577777413572040   Change is   -0.472846025507697
 Root     39 :    10.743719516777880   Change is   -0.110052756565244
 Root     40 :    10.787765676658790   Change is   -0.301234388440158
 Root     41 :    10.900763694659310   Change is   -0.616154699237886
 Root     42 :    11.017099677223990   Change is   -0.274738865093913
 Root     43 :    11.112095478238150   Change is   -0.985710026372666
 Root     44 :    11.199663042818670   Change is   -0.465776646273006
 Root     45 :    11.287093126685010   Change is   -0.093250791345823
 Root     46 :    11.588800032380050   Change is   -0.162942784929606
 Root     47 :    11.741973734453190   Change is   -0.175691569838721
 Root     48 :    11.773755233222350   Change is   -0.241512556692854
 Root     49 :    11.846587891218640   Change is   -0.464953493758293
 Root     50 :    12.035000978125580   Change is   -0.188853838472639
 Root     51 :    12.213373721898150   Change is   -0.275626314388285
 Root     52 :    12.384471156836660   Change is   -0.329931865112694
 Root     53 :    12.558104110059450   Change is   -0.500677181165326
 Root     54 :    12.693672329595010   Change is   -0.202219514527799
 Root     55 :    12.885939929014120   Change is   -0.484736940292500
 Root     56 :    13.085779801341580   Change is   -0.049915406225666
 Root     57 :    13.098338764300000   Change is   -0.458140668416028
 Root     58 :    13.143581760529060   Change is   -0.475278540209112
 Root     59 :    13.282614384108730   Change is   -0.153737747691152
 Root     60 :    13.430643860169680
 Iteration     3 Dimension   135 NMult   120 NNew     15
 CISAX will form    15 AO SS matrices at one time.
 NMat=    15 NSing=    15 JSym2X= 0.
 Root      1 not converged, maximum delta is    0.000698260305884
 Root      2 not converged, maximum delta is    0.000128047578228
 Root      3 not converged, maximum delta is    0.000284711653139
 Root      4 not converged, maximum delta is    0.000194227937688
 Root      5 not converged, maximum delta is    0.000318426413451
 Root      6 not converged, maximum delta is    0.001224238812164
 Root      7 not converged, maximum delta is    0.001611513452454
 Root      8 not converged, maximum delta is    0.000271604886375
 Root      9 not converged, maximum delta is    0.001517918568455
 Root     10 not converged, maximum delta is    0.000362602453456
 Root     11 not converged, maximum delta is    0.000545910714093
 Root     12 not converged, maximum delta is    0.000639350862520
 Root     13 not converged, maximum delta is    0.000140915613911
 Root     14 not converged, maximum delta is    0.000145144810738
 Root     15 not converged, maximum delta is    0.000135227877953
 Excitation Energies [eV] at current iteration:
 Root      1 :     4.435101499772106   Change is   -0.000180788912373
 Root      2 :     4.902889798735060   Change is   -0.000004508972744
 Root      3 :     5.302412158317924   Change is   -0.000031942986610
 Root      4 :     6.277661208003638   Change is   -0.000008610162372
 Root      5 :     6.360418949632049   Change is   -0.000008307454674
 Root      6 :     6.424034151215225   Change is   -0.000660105340413
 Root      7 :     6.466353362544139   Change is   -0.000026973751638
 Root      8 :     6.703302724352726   Change is   -0.000010283541673
 Root      9 :     6.826490984383561   Change is   -0.000266003543643
 Root     10 :     7.158718311064070   Change is   -0.000033574477390
 Root     11 :     7.386907379005833   Change is   -0.000104030922299
 Root     12 :     7.510370377715831   Change is   -0.000022966704336
 Root     13 :     7.745082096350433   Change is   -0.000004563778606
 Root     14 :     7.787555371302605   Change is   -0.000005755078154
 Root     15 :     7.906134548649982   Change is   -0.000005534419528
 Iteration     4 Dimension   143 NMult   135 NNew      8
 CISAX will form     8 AO SS matrices at one time.
 NMat=     8 NSing=     8 JSym2X= 0.
 Root      1 not converged, maximum delta is    0.000031499388348
 Root      2 not converged, maximum delta is    0.000003331348040
 Root      3 not converged, maximum delta is    0.000013464341058
 Root      4 not converged, maximum delta is    0.000007158081803
 Root      5 not converged, maximum delta is    0.000006910534402
 Root      6 not converged, maximum delta is    0.000059009561010
 Root      7 not converged, maximum delta is    0.000011800420757
 Root      8 not converged, maximum delta is    0.000008227363912
 Root      9 not converged, maximum delta is    0.000068275571486
 Root     10 not converged, maximum delta is    0.000018687160369
 Root     11 not converged, maximum delta is    0.000026570414396
 Root     12 not converged, maximum delta is    0.000011098532420
 Root     13 not converged, maximum delta is    0.000004600934261
 Root     14 not converged, maximum delta is    0.000004955042529
 Root     15 not converged, maximum delta is    0.000006123002453
 Excitation Energies [eV] at current iteration:
 Root      1 :     4.435101072358280   Change is   -0.000000427413826
 Root      2 :     4.902889792509185   Change is   -0.000000006225876
 Root      3 :     5.302412111462957   Change is   -0.000000046854966
 Root      4 :     6.277661182597203   Change is   -0.000000025406435
 Root      5 :     6.360418941892290   Change is   -0.000000007739759
 Root      6 :     6.424032793613233   Change is   -0.000001357601992
 Root      7 :     6.466353304564444   Change is   -0.000000057979696
 Root      8 :     6.703302705175351   Change is   -0.000000019177375
 Root      9 :     6.826489853239249   Change is   -0.000001131144312
 Root     10 :     7.158718172156108   Change is   -0.000000138907963
 Root     11 :     7.386907238887327   Change is   -0.000000140118506
 Root     12 :     7.510370348710039   Change is   -0.000000029005793
 Root     13 :     7.745082091147847   Change is   -0.000000005202585
 Root     14 :     7.787555360268006   Change is   -0.000000011034599
 Root     15 :     7.906134532554153   Change is   -0.000000016095829
 Convergence achieved on expansion vectors.
 ***********************************************************************
 Excited states from <AA,BB:AA,BB> singles matrix:
 ***********************************************************************
 
 1PDM for each excited state written to RWF  633
 Ground to excited state transition densities written to RWF  633
 Ground to excited state transition electric dipole moments (Au):
       state          X           Y           Z        Dip. S.      Osc.
         1         1.0120      0.0155     -0.0025      1.0245      0.1113
         2         0.0664      0.0404     -0.0322      0.0071      0.0008
         3        -0.0224      0.4176     -0.0591      0.1784      0.0232
         4        -0.0077      0.1224     -0.0679      0.0196      0.0030
         5        -0.0337      0.0386     -0.0691      0.0074      0.0012
         6         0.0124      1.5480     -0.0949      2.4053      0.3786
         7        -0.0083      0.3100      0.1318      0.1136      0.0180
         8         0.0812     -0.1698     -0.0342      0.0366      0.0060
         9        -0.7401     -0.0960      0.0001      0.5569      0.0931
        10        -0.0365     -0.2680     -0.0842      0.0802      0.0141
        11         0.0392     -0.0370      0.0042      0.0029      0.0005
        12         0.0513     -0.0183      0.0553      0.0060      0.0011
        13         0.0021      0.0027      0.0909      0.0083      0.0016
        14        -0.0235      0.0105      0.0287      0.0015      0.0003
        15        -0.0276      0.0034     -0.0061      0.0008      0.0002
 Ground to excited state transition velocity dipole moments (Au):
       state          X           Y           Z        Dip. S.      Osc.
         1        -0.0759      0.0075     -0.0007      0.0058      0.0238
         2         0.0009     -0.0013      0.0217      0.0005      0.0018
         3        -0.0134     -0.0297      0.0155      0.0013      0.0044
         4         0.0028     -0.0293      0.0968      0.0102      0.0296
         5         0.0084     -0.0026      0.0538      0.0030      0.0085
         6         0.0131     -0.3323      0.0326      0.1117      0.3153
         7         0.0025     -0.0602     -0.0932      0.0123      0.0346
         8        -0.0203      0.0398      0.1327      0.0196      0.0530
         9         0.1435      0.0257      0.0166      0.0215      0.0572
        10         0.0064      0.0658      0.0015      0.0044      0.0111
        11        -0.0116      0.0099      0.0042      0.0003      0.0006
        12        -0.0084      0.0019      0.0093      0.0002      0.0004
        13        -0.0009      0.0026      0.0344      0.0012      0.0028
        14         0.0065     -0.0066      0.0177      0.0004      0.0009
        15         0.0070      0.0029     -0.0368      0.0014      0.0032
 Ground to excited state transition magnetic dipole moments (Au):
       state          X           Y           Z
         1        -0.0027      0.0139      0.7540
         2         0.0552      0.7381     -0.0201
         3         0.0394     -0.0658     -0.0510
         4         0.0327     -0.2331      0.0116
         5         0.2947      0.2630     -0.0201
         6        -0.2438     -0.0369      0.0173
         7         0.0594     -0.0631      0.0013
         8         0.2553     -0.1735      0.0171
         9         0.0703      0.0956     -0.0165
        10        -1.5771     -0.3980     -0.0106
        11        -0.3514      0.2839     -0.0138
        12        -0.2894      0.7925     -0.0220
        13         0.6836     -0.0744      0.0028
        14         0.0276     -0.0696      0.0225
        15         0.1147      0.0395      0.0147
 Ground to excited state transition velocity quadrupole moments (Au):
       state          XX          YY          ZZ          XY          XZ          YZ
         1        -0.1072      0.0839      0.0193      0.4203     -0.0236     -0.0041
         2         0.0059     -0.0057      0.0078      0.0058      0.1829      0.0300
         3         0.1486     -0.1505      0.0657     -0.1294     -0.0069     -0.0072
         4         0.0242      0.0083     -0.0062      0.0477      0.1398     -0.1519
         5         0.0069      0.0495     -0.0380      0.0208     -0.0485      0.0504
         6         0.4953     -0.2441     -0.0476      0.1307     -0.0398      0.0081
         7         0.1101     -0.0526     -0.0235      0.0442      0.0782      0.2723
         8        -0.0658      0.0292     -0.0040     -0.0895     -0.0116      0.1664
         9        -0.0755      0.0970      0.0187      0.5570     -0.0317      0.0125
        10        -0.0974      0.0606     -0.0001      0.0074     -0.0350      0.0200
        11        -0.0064     -0.0031     -0.0009     -0.0588      0.0820     -0.0025
        12        -0.0050     -0.0182      0.0047     -0.0636     -0.2116     -0.0884
        13         0.0153      0.0232     -0.0060     -0.0030     -0.0366      0.2668
        14         0.0033     -0.0197      0.0082      0.0222     -0.1071     -0.3161
        15        -0.0087      0.0187     -0.0058      0.0096     -0.1969      0.1905
 <0|del|b> * <b|rxdel|0> + <0|del|b> * <b|delr+rdel|0>
 Rotatory Strengths (R) in cgs (10**-40 erg-esu-cm/Gauss)
       state          XX          YY          ZZ    R(velocity)    E-M Angle
         1        -1.2857      0.5850     -0.3958     -0.3655       90.25
         2        -2.0625     -0.9482     -2.3648     -1.7919       94.87
         3        -1.8847      1.4131      2.7856      0.7713       78.93
         4        25.5528     -5.8548      4.9718      8.2233       70.28
         5        -1.1949      1.0659      2.2531      0.7080       88.13
         6         5.7686    -10.1719     33.2561      9.6176       83.30
         7         6.3350      7.1872     -2.1412      3.7937       66.58
         8       -23.0299      7.9668    -13.1582     -9.4071      103.13
         9        17.2569      3.3450     14.0027     11.5349       45.73
        10       -32.1063    -13.5042    -52.0952    -32.5686      109.75
        11         2.2071      5.6186     10.0222      5.9493       17.32
        12         1.4518      4.5385      3.5808      3.1904       69.52
        13        -0.1329     -0.8570     -0.8475     -0.6125       91.79
        14         0.6723     -2.3229      4.2199      0.8564       48.38
        15        -0.2696      2.3603     -1.1886      0.3007       85.37
 1/2[<0|r|b>*<b|rxdel|0> + (<0|rxdel|b>*<b|r|0>)*]
 Rotatory Strengths (R) in cgs (10**-40 erg-esu-cm/Gauss)
       state          XX          YY          ZZ     R(length)
         1         1.9274     -0.1527      1.3245      1.0331
         2        -2.5923    -21.0948     -0.4563     -8.0478
         3         0.6233     19.4358     -2.1335      5.9752
         4         0.1772     20.1726      0.5580      6.9693
         5         7.0257     -7.1711     -0.9845     -0.3766
         6         2.1312     40.4215      1.1583     14.5703
         7         0.3475     13.8349     -0.1237      4.6862
         8       -14.6695    -20.8372      0.4127    -11.6980
         9        36.7924      6.4901      0.0012     14.4279
        10       -40.6752    -75.4186     -0.6308    -38.9082
        11         9.7499      7.4339      0.0409      5.7416
        12        10.4956     10.2409      0.8593      7.1986
        13        -1.0106      0.1428     -0.1795     -0.3491
        14         0.4577      0.5189     -0.4551      0.1738
        15         2.2388     -0.0960      0.0638      0.7355
  1/2[<0|del|b>*<b|r|0> + (<0|r|b>*<b|del|0>)*] (Au)
       state          X           Y           Z        Dip. S.   Osc.(frdel)
         1        -0.0768      0.0001      0.0000      0.0767      0.0511
         2         0.0001     -0.0001     -0.0007      0.0007      0.0005
         3         0.0003     -0.0124     -0.0009      0.0130      0.0087
         4         0.0000     -0.0036     -0.0066      0.0102      0.0068
         5        -0.0003     -0.0001     -0.0037      0.0041      0.0027
         6         0.0002     -0.5144     -0.0031      0.5173      0.3449
         7         0.0000     -0.0187     -0.0123      0.0310      0.0206
         8        -0.0017     -0.0068     -0.0045      0.0129      0.0086
         9        -0.1062     -0.0025      0.0000      0.1087      0.0725
        10        -0.0002     -0.0176     -0.0001      0.0180      0.0120
        11        -0.0005     -0.0004      0.0000      0.0008      0.0005
        12        -0.0004      0.0000      0.0005     -0.0001      0.0000
        13         0.0000      0.0000      0.0031     -0.0031     -0.0021
        14        -0.0002     -0.0001      0.0005     -0.0003     -0.0002
        15        -0.0002      0.0000      0.0002      0.0000      0.0000

 Excitation energies and oscillator strengths:
 
 Excited State   1:      Singlet-A      4.4351 eV  279.55 nm  f=0.1113  <S**2>=0.000
      12 -> 15         0.16302
      13 -> 14         0.67891
 This state for optimization and/or second-order correction.
 Total Energy, E(CIS) = -0.193159803406    
 Copying the excited state density for this state as the 1-particle RhoCI density.
 
 Excited State   2:      Singlet-A      4.9029 eV  252.88 nm  f=0.0008  <S**2>=0.000
      13 -> 16         0.68848
 
 Excited State   3:      Singlet-A      5.3024 eV  233.83 nm  f=0.0232  <S**2>=0.000
      12 -> 14        -0.37104
      13 -> 15         0.59265
 
 Excited State   4:      Singlet-A      6.2777 eV  197.50 nm  f=0.0030  <S**2>=0.000
      12 -> 16         0.19920
      12 -> 19         0.12921
      12 -> 23        -0.10163
      13 -> 17         0.44013
      13 -> 18        -0.16349
      13 -> 19        -0.14615
      13 -> 20         0.16985
      13 -> 21        -0.16866
      13 -> 22        -0.28944
 
 Excited State   5:      Singlet-A      6.3604 eV  194.93 nm  f=0.0012  <S**2>=0.000
       7 -> 16        -0.12325
      12 -> 16         0.59324
      12 -> 20         0.11355
      13 -> 19         0.14498
      13 -> 20        -0.11144
      13 -> 21         0.11778
      13 -> 23        -0.19310
 
 Excited State   6:      Singlet-A      6.4240 eV  193.00 nm  f=0.3786  <S**2>=0.000
      10 -> 16         0.10202
      12 -> 14         0.55132
      13 -> 15         0.34227
 
 Excited State   7:      Singlet-A      6.4664 eV  191.74 nm  f=0.0180  <S**2>=0.000
      10 -> 14         0.10451
      12 -> 16        -0.14943
      12 -> 19         0.11242
      12 -> 22        -0.18804
      12 -> 23        -0.11882
      13 -> 18        -0.28614
      13 -> 19         0.39958
      13 -> 22        -0.22496
      13 -> 23        -0.21918
 
 Excited State   8:      Singlet-A      6.7033 eV  184.96 nm  f=0.0060  <S**2>=0.000
       9 -> 14        -0.13081
      12 -> 16        -0.14980
      12 -> 18        -0.14150
      13 -> 17         0.43998
      13 -> 18         0.34960
      13 -> 20        -0.13934
      13 -> 23        -0.22599
 
 Excited State   9:      Singlet-A      6.8265 eV  181.62 nm  f=0.0931  <S**2>=0.000
      12 -> 15         0.66424
      13 -> 14        -0.15095
 
 Excited State  10:      Singlet-A      7.1587 eV  173.19 nm  f=0.0141  <S**2>=0.000
       9 -> 14        -0.23560
      10 -> 14         0.31384
      10 -> 15         0.15177
      11 -> 14         0.44884
      11 -> 15        -0.24049
      13 -> 23         0.12264
 
 Excited State  11:      Singlet-A      7.3869 eV  167.84 nm  f=0.0005  <S**2>=0.000
       9 -> 15        -0.18806
      10 -> 14         0.46168
      10 -> 15         0.21370
      11 -> 14        -0.35462
      13 -> 18         0.14383
      13 -> 20         0.10024
 
 Excited State  12:      Singlet-A      7.5104 eV  165.08 nm  f=0.0011  <S**2>=0.000
      12 -> 17         0.44053
      12 -> 18         0.16245
      12 -> 19        -0.15945
      12 -> 21        -0.10176
      13 -> 17         0.20643
      13 -> 18        -0.24258
      13 -> 22         0.27782
      13 -> 23         0.14383
 
 Excited State  13:      Singlet-A      7.7451 eV  160.08 nm  f=0.0016  <S**2>=0.000
       9 -> 14         0.37320
      10 -> 14         0.23839
      11 -> 14         0.15716
      12 -> 18        -0.20590
      12 -> 22        -0.12165
      13 -> 18        -0.10037
      13 -> 19        -0.29300
      13 -> 21         0.16345
      13 -> 23        -0.11323
      13 -> 24         0.21024
 
 Excited State  14:      Singlet-A      7.7876 eV  159.21 nm  f=0.0003  <S**2>=0.000
       9 -> 14         0.34313
       9 -> 15         0.10752
      11 -> 14         0.15563
      12 -> 18         0.16670
      12 -> 19         0.18730
      12 -> 20         0.10588
      13 -> 18         0.18897
      13 -> 19         0.28623
      13 -> 20         0.27662
      13 -> 23         0.17847
 
 Excited State  15:      Singlet-A      7.9061 eV  156.82 nm  f=0.0002  <S**2>=0.000
       9 -> 14        -0.29336
       9 -> 15         0.13356
      10 -> 14        -0.11972
      12 -> 17         0.11043
      12 -> 19         0.20773
      12 -> 21        -0.14443
      13 -> 19        -0.19361
      13 -> 20         0.35458
      13 -> 21         0.30576
 SavETr:  write IOETrn=   770 NScale= 10 NData=  16 NLR=1 NState=   15 LETran=     280.
 The selected state is a singlet
 CISAX will form     1 AO SS matrices at one time.
 NMat=     1 NSing=     1 JSym2X= 0.
 Leave Link  914 at Sat Nov 14 17:36:38 2015, MaxMem=    33554432 cpu:         0.1
 (Enter /home/Applications/g09/g09/l1002.exe)
 Minotr:  Closed shell wavefunction.
          Computing CIS/TD-HF/TD-KS derivatives.
          Using Z-Vector for PSCF gradient.
          Skipping F1 and S1 gradient terms here.
          IDoAtm=111111111
          Direct CPHF calculation.
          Differentiating once with respect to electric field.
                with respect to dipole field.
          Differentiating once with respect to nuclear coordinates.
          Electric field/nuclear overlap derivatives assumed to be zero.
          Requested convergence is 1.0D-10 RMS, and 1.0D-09 maximum.
          NewPWx=T KeepS1=F KeepF1=F KeepIn=T MapXYZ=F SortEE=F KeepMc=T.
          MDV=      33495423 using IRadAn=       0.
 Keep J ints in memory in canonical form, NReq=871704.
 FoFCou: FMM=F IPFlag=           0 FMFlag=           0 FMFlg1=           0
         NFxFlg=           0 DoJE=F BraDBF=F KetDBF=F FulRan=T
         wScrn=  0.000000 ICntrl=     600 IOpCl=  2 I1Cent=           0 NGrid=           0
         NMat0=    1 NMatS0=     54 NMatT0=    0 NMatD0=    1 NMtDS0=    0 NMtDT0=    0
 Symmetry not used in FoFCou.
          Solving linear equations separately, MaxMat=       0.
          There are     1 degrees of freedom in the 1st order CPHF.  IDoFFX=0 NUNeed=     1.
 LinEq1:  Iter=  0 NonCon=     1 RMS=1.18D-02 Max=1.07D-01 NDo=     1
 AX will form     1 AO Fock derivatives at one time.
 LinEq1:  Iter=  1 NonCon=     1 RMS=2.76D-03 Max=2.46D-02 NDo=     1
 LinEq1:  Iter=  2 NonCon=     1 RMS=3.82D-04 Max=2.48D-03 NDo=     1
 LinEq1:  Iter=  3 NonCon=     1 RMS=4.43D-05 Max=2.03D-04 NDo=     1
 LinEq1:  Iter=  4 NonCon=     1 RMS=4.98D-06 Max=2.80D-05 NDo=     1
 LinEq1:  Iter=  5 NonCon=     1 RMS=9.41D-07 Max=8.17D-06 NDo=     1
 LinEq1:  Iter=  6 NonCon=     1 RMS=1.15D-07 Max=3.94D-07 NDo=     1
 LinEq1:  Iter=  7 NonCon=     1 RMS=1.26D-08 Max=4.42D-08 NDo=     1
 LinEq1:  Iter=  8 NonCon=     1 RMS=1.30D-09 Max=3.80D-09 NDo=     1
 LinEq1:  Iter=  9 NonCon=     1 RMS=1.41D-10 Max=5.04D-10 NDo=     1
 LinEq1:  Iter= 10 NonCon=     0 RMS=1.42D-11 Max=5.31D-11 NDo=     1
 Linear equations converged to 1.000D-10 1.000D-09 after    10 iterations.
 End of Minotr F.D. properties file   721 does not exist.
 End of Minotr F.D. properties file   722 does not exist.
 End of Minotr F.D. properties file   788 does not exist.
 Leave Link 1002 at Sat Nov 14 17:36:38 2015, MaxMem=    33554432 cpu:         0.0
 (Enter /home/Applications/g09/g09/l601.exe)
 Copying SCF densities to generalized density rwf, IOpCl= 0 IROHF=0.

 **********************************************************************

            Population analysis using the SCF density.

 **********************************************************************

 Orbital symmetries:
       Occupied  (A) (A) (A) (A) (A) (A) (A) (A) (A) (A) (A) (A)
                 (A)
       Virtual   (A) (A) (A) (A) (A) (A) (A) (A) (A) (A) (A)
 The electronic state is 1-A.
 Alpha  occ. eigenvalues --   -1.60382  -1.25303  -1.11893  -0.82124  -0.80865
 Alpha  occ. eigenvalues --   -0.69177  -0.61121  -0.57585  -0.50942  -0.50653
 Alpha  occ. eigenvalues --   -0.50418  -0.41249  -0.34836
 Alpha virt. eigenvalues --    0.02546   0.06558   0.09162   0.14637   0.15516
 Alpha virt. eigenvalues --    0.15808   0.18123   0.19123   0.19912   0.21211
 Alpha virt. eigenvalues --    0.21639
     Molecular Orbital Coefficients:
                           1         2         3         4         5
                           O         O         O         O         O
     Eigenvalues --    -1.60382  -1.25303  -1.11893  -0.82124  -0.80865
   1 1   C  1S          0.33402  -0.41749  -0.33054  -0.36222  -0.16265
   2        1PX        -0.05600   0.09163  -0.16503   0.13370  -0.27537
   3        1PY        -0.12558   0.01642   0.10167  -0.23087   0.09108
   4        1PZ         0.00242  -0.00338  -0.00378   0.00446  -0.00857
   5 2   C  1S          0.39864  -0.03335  -0.50104   0.38876  -0.08510
   6        1PX        -0.17559  -0.05128  -0.03331   0.14259  -0.10138
   7        1PY        -0.01599  -0.24703  -0.06828  -0.15821  -0.33212
   8        1PZ        -0.00883  -0.00503   0.00758   0.00276  -0.01188
   9 3   O  1S          0.58842   0.64644   0.09798  -0.25850   0.08931
  10        1PX         0.00495   0.05522  -0.31267   0.24176   0.48940
  11        1PY         0.19900   0.00204  -0.04010   0.14932  -0.01880
  12        1PZ         0.01173   0.00633   0.00040   0.01642  -0.00743
  13 4   C  1S          0.34521  -0.15924   0.50941   0.30111  -0.28222
  14        1PX         0.15513   0.06925   0.00529  -0.19350  -0.04189
  15        1PY         0.03872  -0.20482   0.02737   0.13037   0.33082
  16        1PZ        -0.00715  -0.00103  -0.00909   0.00850   0.00404
  17 5   C  1S          0.32668  -0.46252   0.26439  -0.05183   0.40586
  18        1PX         0.08250  -0.07038  -0.16003  -0.26814  -0.08800
  19        1PY        -0.10419   0.02589  -0.14780  -0.24433   0.14755
  20        1PZ         0.00236  -0.00348   0.00309   0.00900  -0.00096
  21 6   H  1S          0.06757  -0.14114   0.10259  -0.01492   0.26150
  22 7   H  1S          0.07419  -0.03765   0.19540   0.17955  -0.22348
  23 8   H  1S          0.09444  -0.00296  -0.21392   0.29188  -0.03265
  24 9   H  1S          0.07261  -0.13508  -0.12298  -0.23677  -0.09483
                           6         7         8         9        10
                           O         O         O         O         O
     Eigenvalues --    -0.69177  -0.61121  -0.57585  -0.50942  -0.50653
   1 1   C  1S         -0.10094   0.00293   0.17022   0.03694  -0.07292
   2        1PX        -0.14199  -0.02190   0.03506   0.54096   0.11886
   3        1PY        -0.28141   0.02740   0.15976  -0.01526  -0.05002
   4        1PZ         0.00244   0.22529  -0.01302   0.03376  -0.01002
   5 2   C  1S         -0.05674   0.00494  -0.11690  -0.05533   0.09567
   6        1PX        -0.37708  -0.01635  -0.39280  -0.16523  -0.15582
   7        1PY         0.05826  -0.03199  -0.11927   0.27042   0.05680
   8        1PZ        -0.00378   0.38736  -0.03131   0.01448  -0.00730
   9 3   O  1S         -0.20102  -0.01455  -0.05577   0.11345  -0.08769
  10        1PX        -0.04561   0.00585   0.44197   0.05566  -0.15817
  11        1PY         0.52027  -0.02245   0.14777  -0.07877   0.43213
  12        1PZ         0.01947   0.80488  -0.00868   0.01440   0.01727
  13 4   C  1S         -0.08150   0.00744   0.15869  -0.02736  -0.07289
  14        1PX         0.30803   0.01410  -0.41051   0.03616  -0.00155
  15        1PY         0.12581  -0.02292  -0.11239   0.35182  -0.33672
  16        1PZ        -0.00168   0.31903   0.01496   0.01841  -0.01488
  17 5   C  1S         -0.08401  -0.00030  -0.17518  -0.03942   0.03257
  18        1PX         0.18562   0.01832   0.08122  -0.48522  -0.30014
  19        1PY        -0.22062   0.02368  -0.01497  -0.21530   0.51273
  20        1PZ         0.00378   0.21081  -0.00018   0.03589  -0.02983
  21 6   H  1S         -0.21059   0.00120  -0.14334   0.11622   0.47916
  22 7   H  1S         -0.23294   0.00526   0.37163  -0.22281   0.11325
  23 8   H  1S         -0.25604  -0.00027  -0.30580  -0.24973  -0.06275
  24 9   H  1S         -0.23740   0.01163   0.21061   0.20547  -0.03607
                          11        12        13        14        15
                           O         O         O         V         V
     Eigenvalues --    -0.50418  -0.41249  -0.34836   0.02546   0.06558
   1 1   C  1S         -0.01554  -0.01148   0.00442  -0.00391  -0.00591
   2        1PX         0.09832  -0.02156   0.01194  -0.00008   0.00218
   3        1PY         0.54654   0.02069  -0.01622   0.00351   0.00024
   4        1PZ        -0.02505   0.52886  -0.47735  -0.29638   0.59237
   5 2   C  1S         -0.03583   0.00394  -0.01506   0.01572  -0.01344
   6        1PX         0.16808   0.00654   0.02296  -0.01307   0.01189
   7        1PY        -0.35250  -0.00516   0.00843   0.00004   0.00280
   8        1PZ        -0.01163   0.11950  -0.56795   0.57120  -0.42745
   9 3   O  1S         -0.11171   0.00277  -0.00117   0.00363  -0.00949
  10        1PX        -0.07296  -0.00812  -0.00643   0.00080   0.02574
  11        1PY         0.44067   0.04631  -0.00587   0.00611  -0.01538
  12        1PZ         0.00453  -0.48494   0.09426  -0.32071   0.04057
  13 4   C  1S          0.08396   0.00568   0.01584   0.01606   0.02632
  14        1PX         0.24891   0.00288   0.02857   0.00882   0.03918
  15        1PY         0.07602  -0.01013  -0.00467   0.00351  -0.02640
  16        1PZ        -0.01978   0.29345   0.58031   0.57799   0.36972
  17 5   C  1S         -0.05143  -0.00538  -0.00113  -0.00526   0.00141
  18        1PX        -0.03943   0.01265   0.00116  -0.00061   0.00459
  19        1PY        -0.09861   0.03473   0.01629  -0.00205  -0.01218
  20        1PZ        -0.01376   0.61612   0.31762  -0.38447  -0.56846
  21 6   H  1S         -0.06888   0.00622   0.00977   0.00482   0.01194
  22 7   H  1S         -0.13489   0.00858  -0.01116  -0.01158  -0.01649
  23 8   H  1S          0.20914   0.01291   0.00772  -0.00947   0.00264
  24 9   H  1S          0.41091   0.00095  -0.00915   0.00446   0.00483
                          16        17        18        19        20
                           V         V         V         V         V
     Eigenvalues --     0.09162   0.14637   0.15516   0.15808   0.18123
   1 1   C  1S         -0.03128  -0.04557  -0.10157  -0.27723   0.24624
   2        1PX         0.07517   0.38659   0.22290  -0.16770   0.24090
   3        1PY        -0.08362  -0.03764   0.26757  -0.08216  -0.08107
   4        1PZ        -0.01615  -0.00065  -0.00108   0.00109   0.00152
   5 2   C  1S          0.17704  -0.15544   0.25481   0.26285  -0.35716
   6        1PX        -0.17640   0.28680   0.18952  -0.13384  -0.29554
   7        1PY        -0.33628   0.03065   0.08021  -0.03316  -0.12902
   8        1PZ         0.00659   0.02322  -0.00373  -0.02169   0.01642
   9 3   O  1S         -0.24625   0.04311  -0.01438  -0.04522  -0.06107
  10        1PX         0.15827   0.20430   0.09294  -0.19563   0.10226
  11        1PY        -0.41970   0.10314  -0.01478  -0.10211  -0.07552
  12        1PZ        -0.04201   0.00293  -0.00032  -0.00698  -0.01472
  13 4   C  1S          0.23566  -0.23785   0.23112  -0.37102  -0.00974
  14        1PX         0.45863   0.35734   0.08704   0.09803   0.22277
  15        1PY        -0.35812   0.06590   0.05661  -0.06985  -0.14310
  16        1PZ        -0.04025  -0.00087  -0.01433   0.02317  -0.00288
  17 5   C  1S         -0.05927   0.14399   0.20525   0.31542   0.19549
  18        1PX         0.05272   0.32404   0.04410  -0.25414  -0.26600
  19        1PY        -0.08422  -0.13028   0.45994  -0.07008   0.15587
  20        1PZ         0.03323   0.00218  -0.00736  -0.00217   0.00085
  21 6   H  1S          0.23222   0.18994  -0.44716  -0.36160  -0.36936
  22 7   H  1S         -0.15170   0.54234  -0.11725   0.34884   0.07452
  23 8   H  1S         -0.21447  -0.10847  -0.38996  -0.12817   0.47495
  24 9   H  1S          0.11727  -0.10785  -0.25731   0.39793  -0.22759
                          21        22        23        24
                           V         V         V         V
     Eigenvalues --     0.19123   0.19912   0.21211   0.21639
   1 1   C  1S          0.28082  -0.30117   0.28294   0.02100
   2        1PX        -0.23590  -0.12568  -0.18168  -0.36500
   3        1PY         0.49062   0.14904  -0.38351  -0.03306
   4        1PZ        -0.00051  -0.01040   0.01187  -0.01651
   5 2   C  1S          0.23023   0.05022  -0.08643  -0.13927
   6        1PX        -0.10854  -0.34492   0.24615   0.33386
   7        1PY         0.01179   0.36884  -0.34129   0.43418
   8        1PZ        -0.01735  -0.00878   0.00382   0.02631
   9 3   O  1S         -0.04294  -0.03414  -0.00198   0.05571
  10        1PX        -0.09312   0.09451  -0.07167   0.47185
  11        1PY        -0.09630  -0.15161   0.00090   0.13465
  12        1PZ        -0.00581  -0.00191  -0.00047   0.00715
  13 4   C  1S         -0.15810   0.17864   0.09674   0.09943
  14        1PX         0.16596   0.27699   0.17235   0.25258
  15        1PY         0.07680   0.36338   0.40516  -0.30554
  16        1PZ         0.00887  -0.01862  -0.00390  -0.01909
  17 5   C  1S         -0.19704  -0.22730  -0.32043  -0.04161
  18        1PX        -0.29863   0.17397  -0.21886  -0.31926
  19        1PY        -0.21505   0.30700   0.32265  -0.07551
  20        1PZ        -0.00170  -0.00777  -0.01349   0.01442
  21 6   H  1S          0.09762   0.08102  -0.06286  -0.07851
  22 7   H  1S          0.24885   0.19363   0.19861  -0.04535
  23 8   H  1S         -0.09811   0.30423  -0.18707  -0.02450
  24 9   H  1S         -0.47528   0.16310   0.11632   0.12325
     Density Matrix:
                           1         2         3         4         5
   1 1   C  1S          1.19806
   2        1PX         0.04855   0.94276
   3        1PY         0.07273   0.03933   0.99114
   4        1PZ        -0.00874  -0.01018   0.01166   1.12095
   5 2   C  1S          0.32597   0.22844  -0.44965   0.03055   1.20019
   6        1PX        -0.17513   0.01299   0.24105  -0.02768   0.13518
   7        1PY         0.43367   0.33333  -0.47780   0.01664   0.03253
   8        1PZ        -0.01774  -0.02031   0.02445   0.84581   0.01733
   9 3   O  1S         -0.00715   0.03551   0.00688   0.00687   0.12608
  10        1PX         0.01884  -0.03996   0.01596  -0.00517   0.28910
  11        1PY        -0.08281   0.00723   0.06570   0.01002   0.28455
  12        1PZ         0.00100   0.01054  -0.00156  -0.23926   0.02506
  13 4   C  1S         -0.02299   0.00362   0.01782  -0.00848   0.01240
  14        1PX        -0.01038  -0.06372   0.01266  -0.01644   0.00862
  15        1PY        -0.01414   0.07503  -0.01302   0.01051  -0.03481
  16        1PZ         0.00446   0.00490  -0.00744  -0.09770  -0.00940
  17 5   C  1S          0.28654  -0.47922  -0.01279  -0.00605  -0.01825
  18        1PX         0.44169  -0.64497  -0.02309  -0.00426  -0.00340
  19        1PY         0.08680  -0.15239   0.10574   0.00702   0.00577
  20        1PZ        -0.00726   0.00075   0.00700   0.44728  -0.00554
  21 6   H  1S         -0.04458   0.06047  -0.00026  -0.00192   0.04531
  22 7   H  1S          0.03894  -0.05793  -0.00487   0.00530   0.03950
  23 8   H  1S         -0.06229  -0.03755   0.08114  -0.00795   0.62342
  24 9   H  1S          0.57223   0.37257   0.69275   0.00405  -0.05880
                           6         7         8         9        10
   6        1PX         0.88467
   7        1PY        -0.11672   0.84124
   8        1PZ        -0.00984  -0.00461   0.97718
   9 3   O  1S         -0.22314  -0.20819  -0.01608   1.85060
  10        1PX        -0.32389  -0.43389  -0.02750   0.00389   1.25960
  11        1PY        -0.48892  -0.31460  -0.03455  -0.26844  -0.04649
  12        1PZ        -0.04342  -0.03783   0.40105  -0.02172   0.00333
  13 4   C  1S          0.00158  -0.03963  -0.01028   0.09678  -0.30810
  14        1PX         0.05466   0.02642  -0.00561   0.24004  -0.55171
  15        1PY        -0.01628  -0.02339  -0.00080  -0.13770   0.37123
  16        1PZ         0.00630   0.00139  -0.34165  -0.01399   0.02808
  17 5   C  1S          0.00447  -0.02053   0.00392  -0.01231   0.00475
  18        1PX        -0.03326  -0.07046  -0.00191  -0.03515  -0.02114
  19        1PY         0.00097  -0.02239  -0.00620   0.00765  -0.04484
  20        1PZ         0.00794   0.01073  -0.04833   0.00554   0.00442
  21 6   H  1S         -0.01235   0.06011  -0.00465   0.02992  -0.06662
  22 7   H  1S         -0.06255  -0.04777   0.00066  -0.04399   0.05133
  23 8   H  1S          0.67751  -0.28952   0.00152  -0.04661  -0.04218
  24 9   H  1S          0.04253  -0.04234   0.00431   0.02496   0.03778
                          11        12        13        14        15
  11        1PY         1.49240
  12        1PZ        -0.03798   1.78674
  13 4   C  1S          0.17385   0.02156   1.23924
  14        1PX         0.41622   0.04644  -0.14174   0.79154
  15        1PY        -0.14273  -0.02421  -0.00254   0.13890   0.88537
  16        1PZ        -0.02422   0.33789   0.01830   0.01597  -0.00556
  17 5   C  1S         -0.07443  -0.00189   0.32869   0.08957   0.44514
  18        1PX        -0.03161  -0.00803  -0.13582   0.11984  -0.21964
  19        1PY         0.05009  -0.00267  -0.50824  -0.13619  -0.55870
  20        1PZ         0.00758  -0.19798   0.03144   0.02285   0.02262
  21 6   H  1S          0.07782   0.00681  -0.05900  -0.05243  -0.03463
  22 7   H  1S         -0.04205  -0.01056   0.62532  -0.56356  -0.46518
  23 8   H  1S         -0.04312  -0.01154   0.04540   0.09650  -0.04635
  24 9   H  1S          0.08457   0.00510   0.04724   0.00227   0.05355
                          16        17        18        19        20
  16        1PZ         1.05211
  17 5   C  1S         -0.01614   1.20198
  18        1PX         0.01150  -0.04629   0.97128
  19        1PY         0.03657   0.07732  -0.04209   0.96947
  20        1PZ         0.86754  -0.00672   0.00482   0.01187   1.05483
  21 6   H  1S          0.00423   0.55741  -0.53607   0.58566  -0.00435
  22 7   H  1S         -0.00217  -0.06571   0.03120   0.10195  -0.00975
  23 8   H  1S         -0.00028   0.03866   0.05281   0.01634   0.00340
  24 9   H  1S         -0.00647  -0.03979  -0.04963  -0.00580   0.00043
                          21        22        23        24
  21 6   H  1S          0.83298
  22 7   H  1S          0.00531   0.80108
  23 8   H  1S         -0.00725  -0.01726   0.82058
  24 9   H  1S         -0.02376  -0.01286   0.00153   0.83400
    Full Mulliken population analysis:
                           1         2         3         4         5
   1 1   C  1S          1.19806
   2        1PX         0.00000   0.94276
   3        1PY         0.00000   0.00000   0.99114
   4        1PZ         0.00000   0.00000   0.00000   1.12095
   5 2   C  1S          0.00000   0.00000   0.00000   0.00000   1.20019
   6        1PX         0.00000   0.00000   0.00000   0.00000   0.00000
   7        1PY         0.00000   0.00000   0.00000   0.00000   0.00000
   8        1PZ         0.00000   0.00000   0.00000   0.00000   0.00000
   9 3   O  1S          0.00000   0.00000   0.00000   0.00000   0.00000
  10        1PX         0.00000   0.00000   0.00000   0.00000   0.00000
  11        1PY         0.00000   0.00000   0.00000   0.00000   0.00000
  12        1PZ         0.00000   0.00000   0.00000   0.00000   0.00000
  13 4   C  1S          0.00000   0.00000   0.00000   0.00000   0.00000
  14        1PX         0.00000   0.00000   0.00000   0.00000   0.00000
  15        1PY         0.00000   0.00000   0.00000   0.00000   0.00000
  16        1PZ         0.00000   0.00000   0.00000   0.00000   0.00000
  17 5   C  1S          0.00000   0.00000   0.00000   0.00000   0.00000
  18        1PX         0.00000   0.00000   0.00000   0.00000   0.00000
  19        1PY         0.00000   0.00000   0.00000   0.00000   0.00000
  20        1PZ         0.00000   0.00000   0.00000   0.00000   0.00000
  21 6   H  1S          0.00000   0.00000   0.00000   0.00000   0.00000
  22 7   H  1S          0.00000   0.00000   0.00000   0.00000   0.00000
  23 8   H  1S          0.00000   0.00000   0.00000   0.00000   0.00000
  24 9   H  1S          0.00000   0.00000   0.00000   0.00000   0.00000
                           6         7         8         9        10
   6        1PX         0.88467
   7        1PY         0.00000   0.84124
   8        1PZ         0.00000   0.00000   0.97718
   9 3   O  1S          0.00000   0.00000   0.00000   1.85060
  10        1PX         0.00000   0.00000   0.00000   0.00000   1.25960
  11        1PY         0.00000   0.00000   0.00000   0.00000   0.00000
  12        1PZ         0.00000   0.00000   0.00000   0.00000   0.00000
  13 4   C  1S          0.00000   0.00000   0.00000   0.00000   0.00000
  14        1PX         0.00000   0.00000   0.00000   0.00000   0.00000
  15        1PY         0.00000   0.00000   0.00000   0.00000   0.00000
  16        1PZ         0.00000   0.00000   0.00000   0.00000   0.00000
  17 5   C  1S          0.00000   0.00000   0.00000   0.00000   0.00000
  18        1PX         0.00000   0.00000   0.00000   0.00000   0.00000
  19        1PY         0.00000   0.00000   0.00000   0.00000   0.00000
  20        1PZ         0.00000   0.00000   0.00000   0.00000   0.00000
  21 6   H  1S          0.00000   0.00000   0.00000   0.00000   0.00000
  22 7   H  1S          0.00000   0.00000   0.00000   0.00000   0.00000
  23 8   H  1S          0.00000   0.00000   0.00000   0.00000   0.00000
  24 9   H  1S          0.00000   0.00000   0.00000   0.00000   0.00000
                          11        12        13        14        15
  11        1PY         1.49240
  12        1PZ         0.00000   1.78674
  13 4   C  1S          0.00000   0.00000   1.23924
  14        1PX         0.00000   0.00000   0.00000   0.79154
  15        1PY         0.00000   0.00000   0.00000   0.00000   0.88537
  16        1PZ         0.00000   0.00000   0.00000   0.00000   0.00000
  17 5   C  1S          0.00000   0.00000   0.00000   0.00000   0.00000
  18        1PX         0.00000   0.00000   0.00000   0.00000   0.00000
  19        1PY         0.00000   0.00000   0.00000   0.00000   0.00000
  20        1PZ         0.00000   0.00000   0.00000   0.00000   0.00000
  21 6   H  1S          0.00000   0.00000   0.00000   0.00000   0.00000
  22 7   H  1S          0.00000   0.00000   0.00000   0.00000   0.00000
  23 8   H  1S          0.00000   0.00000   0.00000   0.00000   0.00000
  24 9   H  1S          0.00000   0.00000   0.00000   0.00000   0.00000
                          16        17        18        19        20
  16        1PZ         1.05211
  17 5   C  1S          0.00000   1.20198
  18        1PX         0.00000   0.00000   0.97128
  19        1PY         0.00000   0.00000   0.00000   0.96947
  20        1PZ         0.00000   0.00000   0.00000   0.00000   1.05483
  21 6   H  1S          0.00000   0.00000   0.00000   0.00000   0.00000
  22 7   H  1S          0.00000   0.00000   0.00000   0.00000   0.00000
  23 8   H  1S          0.00000   0.00000   0.00000   0.00000   0.00000
  24 9   H  1S          0.00000   0.00000   0.00000   0.00000   0.00000
                          21        22        23        24
  21 6   H  1S          0.83298
  22 7   H  1S          0.00000   0.80108
  23 8   H  1S          0.00000   0.00000   0.82058
  24 9   H  1S          0.00000   0.00000   0.00000   0.83400
     Gross orbital populations:
                           1
   1 1   C  1S          1.19806
   2        1PX         0.94276
   3        1PY         0.99114
   4        1PZ         1.12095
   5 2   C  1S          1.20019
   6        1PX         0.88467
   7        1PY         0.84124
   8        1PZ         0.97718
   9 3   O  1S          1.85060
  10        1PX         1.25960
  11        1PY         1.49240
  12        1PZ         1.78674
  13 4   C  1S          1.23924
  14        1PX         0.79154
  15        1PY         0.88537
  16        1PZ         1.05211
  17 5   C  1S          1.20198
  18        1PX         0.97128
  19        1PY         0.96947
  20        1PZ         1.05483
  21 6   H  1S          0.83298
  22 7   H  1S          0.80108
  23 8   H  1S          0.82058
  24 9   H  1S          0.83400
          Condensed to atoms (all electrons):
               1          2          3          4          5          6
     1  C    4.252916   0.000000   0.000000   0.000000   0.000000   0.000000
     2  C    0.000000   3.903283   0.000000   0.000000   0.000000   0.000000
     3  O    0.000000   0.000000   6.389348   0.000000   0.000000   0.000000
     4  C    0.000000   0.000000   0.000000   3.968254   0.000000   0.000000
     5  C    0.000000   0.000000   0.000000   0.000000   4.197559   0.000000
     6  H    0.000000   0.000000   0.000000   0.000000   0.000000   0.832978
     7  H    0.000000   0.000000   0.000000   0.000000   0.000000   0.000000
     8  H    0.000000   0.000000   0.000000   0.000000   0.000000   0.000000
     9  H    0.000000   0.000000   0.000000   0.000000   0.000000   0.000000
               7          8          9
     1  C    0.000000   0.000000   0.000000
     2  C    0.000000   0.000000   0.000000
     3  O    0.000000   0.000000   0.000000
     4  C    0.000000   0.000000   0.000000
     5  C    0.000000   0.000000   0.000000
     6  H    0.000000   0.000000   0.000000
     7  H    0.801077   0.000000   0.000000
     8  H    0.000000   0.820582   0.000000
     9  H    0.000000   0.000000   0.834003
 Mulliken charges:
               1
     1  C   -0.252916
     2  C    0.096717
     3  O   -0.389348
     4  C    0.031746
     5  C   -0.197559
     6  H    0.167022
     7  H    0.198923
     8  H    0.179418
     9  H    0.165997
 Sum of Mulliken charges =   0.00000
 Mulliken charges with hydrogens summed into heavy atoms:
               1
     1  C   -0.086919
     2  C    0.276135
     3  O   -0.389348
     4  C    0.230669
     5  C   -0.030537
 Charge=              0.0000 electrons
 Dipole moment (field-independent basis, Debye):
    X=             -0.3890    Y=              1.2166    Z=              0.0949  Tot=              1.2808
 N-N= 1.031276008064D+02 E-N=-1.705081507351D+02  KE=-1.692838228158D+01
 Orbital energies and kinetic energies (alpha):
                                 1                 2
   1         O                -1.603825         -1.375554
   2         O                -1.253026         -1.065042
   3         O                -1.118927         -0.978381
   4         O                -0.821238         -0.727117
   5         O                -0.808653         -0.702455
   6         O                -0.691766         -0.615932
   7         O                -0.611207         -0.514351
   8         O                -0.575849         -0.517427
   9         O                -0.509424         -0.421327
  10         O                -0.506534         -0.440628
  11         O                -0.504176         -0.431968
  12         O                -0.412495         -0.359776
  13         O                -0.348363         -0.314233
  14         V                 0.025458         -0.205102
  15         V                 0.065583         -0.187620
  16         V                 0.091618         -0.188765
  17         V                 0.146368         -0.189250
  18         V                 0.155155         -0.206988
  19         V                 0.158077         -0.223696
  20         V                 0.181229         -0.192217
  21         V                 0.191234         -0.167276
  22         V                 0.199124         -0.122937
  23         V                 0.212106         -0.108555
  24         V                 0.216388         -0.068413
 Total kinetic energy from orbitals=-1.692838228158D+01
 Leave Link  601 at Sat Nov 14 17:36:38 2015, MaxMem=    33554432 cpu:         0.0
 (Enter /home/Applications/g09/g09/l701.exe)
 Compute integral first derivatives.
 ... and contract with generalized density number  6.
 Leave Link  701 at Sat Nov 14 17:36:38 2015, MaxMem=    33554432 cpu:         0.0
 (Enter /home/Applications/g09/g09/l702.exe)
 L702 exits ... SP integral derivatives will be done elsewhere.
 Leave Link  702 at Sat Nov 14 17:36:38 2015, MaxMem=    33554432 cpu:         0.0
 (Enter /home/Applications/g09/g09/l703.exe)
 Compute integral first derivatives, UseDBF=F ICtDFT=           0.
 Integral derivatives from FoFJK, PRISM(SPDF).
 Calling FoFJK, ICntrl=  10005127 FMM=F ISym2X=0 I1Cent= 0 IOpClX= 0 NMat=1 NMatS=1 NMatT=0.
 FoFJK:  IHMeth= 8 ICntrl=10005127 DoSepK=F KAlg= 0 I1Cent=   0 FoldK=F
 IRaf=         0 NMat=   1 IRICut=       1 DoRegI=T DoRafI=F ISym2E= 0.
 FoFCou: FMM=F IPFlag=           0 FMFlag=      100000 FMFlg1=         800
         NFxFlg=           0 DoJE=F BraDBF=F KetDBF=F FulRan=T
         wScrn=  0.000000 ICntrl=10005127 IOpCl=  0 I1Cent=           0 NGrid=           0
         NMat0=    1 NMatS0=      1 NMatT0=    0 NMatD0=    1 NMtDS0=    0 NMtDT0=    0
 Symmetry not used in FoFCou.
 Leave Link  703 at Sat Nov 14 17:36:38 2015, MaxMem=    33554432 cpu:         0.0
 (Enter /home/Applications/g09/g09/l716.exe)
 Dipole        = 8.16292711D-03 5.92618560D-01 3.92243303D-02
 ***** Axes restored to original set *****
 -------------------------------------------------------------------
 Center     Atomic                   Forces (Hartrees/Bohr)
 Number     Number              X              Y              Z
 -------------------------------------------------------------------
      1        6           0.119480739    0.028600649    0.003035094
      2        6          -0.032265951   -0.021249747   -0.003112686
      3        8          -0.068678583    0.046493239    0.001262323
      4        6          -0.078098294    0.007235991   -0.006180718
      5        6           0.120152946    0.014222379    0.001695208
      6        1          -0.023860985   -0.031855741   -0.000169005
      7        1           0.000909458   -0.006862470    0.002410613
      8        1          -0.025902755   -0.040726055    0.002339652
      9        1          -0.011736575    0.004141754   -0.001280480
 -------------------------------------------------------------------
 Cartesian Forces:  Max     0.120152946 RMS     0.042359314
 Z-matrix is all fixed cartesians, so copy forces.
 Force constants in Cartesian coordinates: 
                1             2             3             4             5 
      1  0.939963D+00
      2 -0.333771D-02  0.804630D+00
      3 -0.660201D-02 -0.553613D-02  0.220007D+00
      4 -0.527894D+00 -0.113498D+00  0.112566D-01  0.986997D+00
      5 -0.890229D-01 -0.222118D+00  0.549533D-02  0.329358D-01  0.994332D+00
      6  0.903627D-02  0.402031D-02 -0.113676D+00  0.126545D-01 -0.221567D-01
      7 -0.904157D-02  0.299866D-01 -0.256619D-02 -0.302319D+00  0.186831D+00
      8 -0.653311D-02  0.217376D-01 -0.837332D-03  0.228553D+00 -0.409729D+00
      9  0.428030D-03 -0.958558D-03  0.742596D-02 -0.221671D-01  0.212416D-01
     10  0.129084D-01 -0.118474D-03 -0.283542D-03  0.234755D-01  0.172039D-01
     11  0.347275D-01 -0.378988D-03 -0.173854D-02 -0.168062D-01 -0.123173D-01
     12 -0.312073D-04 -0.255188D-03 -0.332228D-02  0.223192D-02  0.171844D-02
     13 -0.172307D+00  0.802438D-02  0.912496D-03  0.105676D-01 -0.352613D-01
     14 -0.163880D-01 -0.437026D+00  0.660085D-03 -0.125105D-03  0.385223D-03
     15  0.912808D-03 -0.201750D-02 -0.852782D-01 -0.243423D-03  0.149941D-02
     16  0.175159D-01 -0.192479D-03  0.613827D-04  0.000000D+00  0.000000D+00
     17 -0.215969D-01  0.237283D-03 -0.463328D-04  0.000000D+00  0.000000D+00
     18 -0.213209D-03 -0.229711D-04  0.184589D-01  0.989522D-04 -0.765709D-05
     19  0.759282D-05  0.000000D+00  0.333762D-03  0.118223D-04  0.000000D+00
     20  0.746758D-05  0.000000D+00  0.328257D-03  0.415773D-05  0.000000D+00
     21  0.206279D-03 -0.147002D-04  0.906753D-02 -0.199702D-03  0.000000D+00
     22  0.836433D-02 -0.279364D-01 -0.536662D-03 -0.185986D+00 -0.128849D+00
     23 -0.411263D-02  0.137100D-01 -0.121472D-03 -0.123840D+00 -0.374651D+00
     24  0.118712D-03  0.175472D-02  0.319603D-01 -0.470014D-02 -0.616910D-02
     25 -0.269516D+00  0.107072D+00 -0.257588D-02 -0.485318D-02  0.161627D-01
     26  0.106256D+00 -0.180791D+00  0.179613D-02 -0.722307D-02  0.240979D-01
     27 -0.385567D-02  0.303002D-02 -0.846428D-01  0.106839D-02 -0.162070D-02
                6             7             8             9            10 
      6  0.211319D+00
      7 -0.197880D-01  0.496942D+00
      8  0.221976D-01 -0.838065D-01  0.666626D+00
      9 -0.458392D-01  0.343677D-01 -0.742970D-02  0.526075D-01
     10  0.206411D-02 -0.218877D+00 -0.148449D+00 -0.152110D-01  0.898709D+00
     11 -0.155320D-02 -0.105767D+00 -0.281179D+00 -0.137570D-01 -0.126044D+00
     12 -0.271101D-02 -0.132977D-01 -0.149612D-01 -0.422723D-01  0.537598D-02
     13 -0.171934D-03 -0.102803D-01  0.725736D-02  0.422102D-03 -0.529141D+00
     14  0.106858D-03 -0.275252D-01  0.194828D-01  0.841863D-03  0.141634D+00
     15  0.927707D-03 -0.209012D-02  0.628689D-03  0.426121D-02  0.122806D-01
     16  0.116109D-04  0.000000D+00 -0.610866D-05  0.972230D-04 -0.643041D-02
     17 -0.669773D-05  0.000000D+00  0.694018D-05 -0.110457D-03  0.793052D-02
     18  0.479116D-02  0.000000D+00 -0.372066D-03  0.592166D-02  0.127505D-02
     19 -0.134138D-03  0.199944D-01 -0.142400D-01  0.792763D-03 -0.180673D+00
     20 -0.471744D-04  0.118957D-01 -0.847739D-02  0.555866D-03  0.107852D+00
     21  0.226586D-02  0.144071D-02 -0.139505D-02  0.592944D-02 -0.511887D-02
     22 -0.329048D-02  0.235824D-01  0.172205D-01  0.120189D-02  0.304239D-04
     23 -0.262695D-02 -0.116144D-01 -0.848466D-02 -0.646914D-03 -0.906194D-05
     24 -0.859528D-01  0.192741D-02  0.169839D-02  0.465926D-02 -0.488792D-03
     25 -0.381869D-03  0.000000D+00  0.441140D-05  0.684832D-04 -0.165732D-05
     26  0.659899D-04  0.000000D+00  0.169566D-04  0.263236D-03  0.000000D+00
     27  0.288748D-01  0.630157D-05  0.470651D-03  0.730645D-02  0.106515D-03
               11            12            13            14            15 
     11  0.805058D+00
     12  0.169173D-01  0.216339D+00
     13  0.116728D+00  0.952169D-02  0.892132D+00
     14 -0.238195D+00 -0.510399D-02 -0.292675D-01  0.820951D+00
     15 -0.638967D-02 -0.115619D+00 -0.109521D-01  0.573938D-02  0.212998D+00
     16 -0.173111D-01  0.189037D-03 -0.216373D+00 -0.931886D-01  0.273432D-03
     17  0.213467D-01 -0.188594D-03 -0.970474D-01 -0.180185D+00  0.674049D-05
     18  0.167267D-02  0.279760D-01 -0.398759D-03 -0.941475D-03 -0.788135D-01
     19  0.114473D+00 -0.357167D-02  0.929594D-02  0.250375D-01 -0.466894D-03
     20 -0.294333D+00  0.177597D-02  0.552641D-02  0.148521D-01  0.241961D-03
     21  0.485756D-02 -0.906186D-01  0.375426D-03 -0.126481D-02  0.362101D-01
     22  0.000000D+00 -0.345195D-03  0.446535D-05  0.000000D+00  0.216208D-03
     23  0.000000D+00  0.102818D-03 -0.412411D-05  0.000000D+00 -0.199685D-03
     24 -0.157379D-05  0.554592D-02  0.160056D-03 -0.123854D-04  0.774977D-02
     25  0.000000D+00 -0.728516D-04  0.161011D-01 -0.176949D-03  0.694543D-04
     26  0.000000D+00 -0.562049D-05  0.240445D-01 -0.264778D-03  0.490692D-03
     27 -0.759065D-05  0.468214D-02  0.130979D-03 -0.255248D-04  0.175643D-01
               16            17            18            19            20 
     16  0.205294D+00
     17  0.110706D+00  0.158586D+00
     18 -0.415138D-03  0.107274D-03  0.406354D-01
     19 -0.740908D-05  0.841762D-05 -0.451273D-03  0.151370D+00
     20 -0.728688D-05  0.827879D-05 -0.443829D-03 -0.125279D+00  0.287951D+00
     21 -0.201288D-03  0.228687D-03 -0.122600D-01  0.349745D-02 -0.241105D-02
     22  0.000000D+00  0.000000D+00  0.000000D+00  0.000000D+00  0.000000D+00
     23  0.000000D+00  0.000000D+00  0.000000D+00  0.000000D+00  0.000000D+00
     24  0.000000D+00  0.000000D+00  0.000000D+00  0.000000D+00  0.000000D+00
     25  0.000000D+00  0.000000D+00  0.104398D-03  0.000000D+00  0.000000D+00
     26  0.000000D+00  0.000000D+00  0.805428D-05  0.000000D+00  0.000000D+00
     27 -0.162600D-04  0.937959D-05 -0.670961D-02  0.000000D+00  0.000000D+00
               21            22            23            24            25 
     21  0.494057D-01
     22  0.000000D+00  0.154008D+00
     23  0.000000D+00  0.139578D+00  0.369414D+00
     24  0.000000D+00  0.309837D-02  0.317436D-02  0.483728D-01
     25  0.000000D+00 -0.322558D-05  0.297908D-05 -0.115618D-03  0.258273D+00
     26  0.000000D+00 -0.123985D-04  0.114510D-04 -0.444413D-03 -0.123065D+00
     27  0.000000D+00 -0.344136D-03  0.317838D-03 -0.123352D-01  0.290388D-02
               26            27 
     26  0.156930D+00
     27 -0.217407D-02  0.452600D-01
 Leave Link  716 at Sat Nov 14 17:36:38 2015, MaxMem=    33554432 cpu:         0.0
 (Enter /home/Applications/g09/g09/l103.exe)

 GradGradGradGradGradGradGradGradGradGradGradGradGradGradGradGradGradGrad
 Berny optimization.
 Search for a local minimum.
 Step number   1 out of a maximum of    2
 All quantities printed in internal units (Hartrees-Bohrs-Radians)
 Second derivative matrix not updated -- first step.
 ITU=  0
     Eigenvalues ---    0.02015   0.03077   0.06701   0.07461   0.07961
     Eigenvalues ---    0.08423   0.12964   0.15487   0.16531   0.23376
     Eigenvalues ---    0.25897   0.33902   0.41723   0.44685   0.61967
     Eigenvalues ---    0.80436   1.00168   1.27325   1.50205   1.62892
     Eigenvalues ---    1.65870
 Quadratic step=3.993D-01 exceeds max=3.000D-01 adjusted using Lamda=-7.530D-02.
 Angle between NR and scaled steps=  14.54 degrees.
 Angle between quadratic step and forces=  32.31 degrees.
 Linear search not attempted -- first point.
 TrRot= -0.003069  0.010749 -0.000393  0.046969  0.000631 -0.046668
 Variable       Old X    -DE/DX   Delta X   Delta X   Delta X     New X
                                 (Linear)    (Quad)   (Total)
    X1        1.71764   0.11948   0.00000   0.14064   0.13799   1.85563
    Y1       -1.40085   0.02860   0.00000   0.03745   0.04876  -1.35210
    Z1        0.00421   0.00304   0.00000   0.00583   0.00431   0.00852
    X2       -0.71848  -0.03227   0.00000  -0.02857  -0.03098  -0.74946
    Y2       -2.13119  -0.02125   0.00000   0.00796   0.01848  -2.11271
    Z2        0.05335  -0.00311   0.00000  -0.02160  -0.02146   0.03189
    X3       -2.20560  -0.06868   0.00000  -0.15042  -0.15351  -2.35911
    Y3       -0.08557   0.04649   0.00000   0.03605   0.04609  -0.03948
    Z3       -0.07713   0.00126   0.00000   0.01951   0.02060  -0.05653
    X4       -0.62098  -0.07810   0.00000  -0.04860  -0.05228  -0.67326
    Y4        2.14722   0.00724   0.00000  -0.02659  -0.01604   2.13119
    Z4        0.06316  -0.00618   0.00000  -0.02334  -0.02338   0.03978
    X5        1.74694   0.12015   0.00000   0.12711   0.12366   1.87060
    Y5        1.26703   0.01422   0.00000   0.02675   0.03806   1.30509
    Z5        0.00787   0.00170   0.00000   0.00505   0.00344   0.01130
    X6        3.42186  -0.02386   0.00000   0.03726   0.03343   3.45528
    Y6        2.62547  -0.03186   0.00000  -0.06609  -0.05430   2.57117
    Z6        0.00571  -0.00017   0.00000   0.00990   0.00725   0.01296
    X7       -1.66113   0.00091   0.00000  -0.03300  -0.03721  -1.69834
    Y7        3.89857  -0.00686   0.00000  -0.03579  -0.02555   3.87301
    Z7        0.03805   0.00241   0.00000   0.00186   0.00242   0.04047
    X8       -1.57149  -0.02590   0.00000  -0.07515  -0.07701  -1.64849
    Y8       -3.86665  -0.04073   0.00000  -0.07350  -0.06325  -3.92989
    Z8        0.03244   0.00234   0.00000   0.00638   0.00714   0.03957
    X9        3.43914  -0.01174   0.00000   0.05819   0.05591   3.49506
    Y9       -2.55377   0.00414   0.00000  -0.00405   0.00775  -2.54602
    Z9        0.02961  -0.00128   0.00000   0.00220  -0.00032   0.02929
         Item               Value     Threshold  Converged?
 Maximum Force            0.120153     0.000450     NO 
 RMS     Force            0.042359     0.000300     NO 
 Maximum Displacement     0.153513     0.001800     NO 
 RMS     Displacement     0.057392     0.001200     NO 
 Predicted change in Energy=-3.131312D-02
 GradGradGradGradGradGradGradGradGradGradGradGradGradGradGradGradGradGrad

 Leave Link  103 at Sat Nov 14 17:36:38 2015, MaxMem=    33554432 cpu:         0.0
 (Enter /home/Applications/g09/g09/l9999.exe)
 1\1\GINC-DUSTIN-DESKTOP\Force\RAM1-FC\STO-3G\C4H4O1\DUSTIN\14-Nov-2015
 \0\\#P AM1(Input,print) CIS(Singlets,NStates=15) pop(full) force\\AM1-
 Reparam Input\\0,1\C,0.908936,-0.741299,0.002227\C,-0.380203,-1.127775
 ,0.028234\O,-1.167153,-0.045281,-0.040817\C,-0.328606,1.136262,0.03342
 4\C,0.924443,0.670484,0.004163\H,1.810769,1.38934,0.00302\H,-0.879032,
 2.063032,0.020134\H,-0.831595,-2.046141,0.017164\H,1.819916,-1.351398,
 0.015669\\Version=ES64L-G09RevD.01\State=1-A\HF=-0.3561468\RMSD=6.880e
 -09\RMSF=4.236e-02\Dipole=0.5871611,-0.0777547,0.0446988\PG=C01 [X(C4H
 4O1)]\\@


 THE SECRET OF SUCCESS IN LIFE IS TO EAT WHAT YOU LIKE, AND LET THE FOOD
 FIGHT IT OUT INSIDE YOU. -- FROM A FORTUNE COOKIE
 Job cpu time:       0 days  0 hours  0 minutes  0.7 seconds.
 File lengths (MBytes):  RWF=      7 Int=      0 D2E=      0 Chk=      2 Scr=      1
 Normal termination of Gaussian 09 at Sat Nov 14 17:36:38 2015.
