 Entering Gaussian System, Link 0=g09
 Input=FuranAM1_46P1.com
 Output=FuranAM1_46P1.log
 Initial command:
 /home/Applications/g09/g09/l1.exe "/home/Applications/g09/scratch/Gau-11039.inp" -scrdir="/home/Applications/g09/scratch/"
 Entering Link 1 = /home/Applications/g09/g09/l1.exe PID=     11041.
  
 Copyright (c) 1988,1990,1992,1993,1995,1998,2003,2009,2013,
            Gaussian, Inc.  All Rights Reserved.
  
 This is part of the Gaussian(R) 09 program.  It is based on
 the Gaussian(R) 03 system (copyright 2003, Gaussian, Inc.),
 the Gaussian(R) 98 system (copyright 1998, Gaussian, Inc.),
 the Gaussian(R) 94 system (copyright 1995, Gaussian, Inc.),
 the Gaussian 92(TM) system (copyright 1992, Gaussian, Inc.),
 the Gaussian 90(TM) system (copyright 1990, Gaussian, Inc.),
 the Gaussian 88(TM) system (copyright 1988, Gaussian, Inc.),
 the Gaussian 86(TM) system (copyright 1986, Carnegie Mellon
 University), and the Gaussian 82(TM) system (copyright 1983,
 Carnegie Mellon University). Gaussian is a federally registered
 trademark of Gaussian, Inc.
  
 This software contains proprietary and confidential information,
 including trade secrets, belonging to Gaussian, Inc.
  
 This software is provided under written license and may be
 used, copied, transmitted, or stored only in accord with that
 written license.
  
 The following legend is applicable only to US Government
 contracts under FAR:
  
                    RESTRICTED RIGHTS LEGEND
  
 Use, reproduction and disclosure by the US Government is
 subject to restrictions as set forth in subparagraphs (a)
 and (c) of the Commercial Computer Software - Restricted
 Rights clause in FAR 52.227-19.
  
 Gaussian, Inc.
 340 Quinnipiac St., Bldg. 40, Wallingford CT 06492
  
  
 ---------------------------------------------------------------
 Warning -- This program may not be used in any manner that
 competes with the business of Gaussian, Inc. or will provide
 assistance to any competitor of Gaussian, Inc.  The licensee
 of this program is prohibited from giving any competitor of
 Gaussian, Inc. access to this program.  By using this program,
 the user acknowledges that Gaussian, Inc. is engaged in the
 business of creating and licensing software in the field of
 computational chemistry and represents and warrants to the
 licensee that it is not a competitor of Gaussian, Inc. and that
 it will not use this program in any manner prohibited above.
 ---------------------------------------------------------------
  

 Cite this work as:
 Gaussian 09, Revision D.01,
 M. J. Frisch, G. W. Trucks, H. B. Schlegel, G. E. Scuseria, 
 M. A. Robb, J. R. Cheeseman, G. Scalmani, V. Barone, B. Mennucci, 
 G. A. Petersson, H. Nakatsuji, M. Caricato, X. Li, H. P. Hratchian, 
 A. F. Izmaylov, J. Bloino, G. Zheng, J. L. Sonnenberg, M. Hada, 
 M. Ehara, K. Toyota, R. Fukuda, J. Hasegawa, M. Ishida, T. Nakajima, 
 Y. Honda, O. Kitao, H. Nakai, T. Vreven, J. A. Montgomery, Jr., 
 J. E. Peralta, F. Ogliaro, M. Bearpark, J. J. Heyd, E. Brothers, 
 K. N. Kudin, V. N. Staroverov, T. Keith, R. Kobayashi, J. Normand, 
 K. Raghavachari, A. Rendell, J. C. Burant, S. S. Iyengar, J. Tomasi, 
 M. Cossi, N. Rega, J. M. Millam, M. Klene, J. E. Knox, J. B. Cross, 
 V. Bakken, C. Adamo, J. Jaramillo, R. Gomperts, R. E. Stratmann, 
 O. Yazyev, A. J. Austin, R. Cammi, C. Pomelli, J. W. Ochterski, 
 R. L. Martin, K. Morokuma, V. G. Zakrzewski, G. A. Voth, 
 P. Salvador, J. J. Dannenberg, S. Dapprich, A. D. Daniels, 
 O. Farkas, J. B. Foresman, J. V. Ortiz, J. Cioslowski, 
 and D. J. Fox, Gaussian, Inc., Wallingford CT, 2013.
 
 ******************************************
 Gaussian 09:  ES64L-G09RevD.01 24-Apr-2013
                15-Dec-2015 
 ******************************************
 ------------------------------------------------------------
 #P AM1(Input,print) CIS(Singlets,NStates=15) pop(full) force
 ------------------------------------------------------------
 1/10=7,30=1,38=1/1,3;
 2/12=2,17=6,18=5,40=1/2;
 3/5=2,16=1,25=1,41=700000,71=1,135=100,136=1/1,2,8,3;
 4/35=1/1;
 5/5=2,35=1,38=5/2;
 8/6=1,10=1,108=15/1;
 9/15=2,41=15,42=1,48=1,49=10/14;
 10/5=4/2;
 6/7=3,18=1/1;
 7/12=6,13=5,29=1/1,2,3,16;
 1/10=7,30=1/3;
 99//99;
 Leave Link    1 at Tue Dec 15 17:09:19 2015, MaxMem=           0 cpu:         0.0
 (Enter /home/Applications/g09/g09/l101.exe)
 -----------------
 AM1-Reparam Input
 -----------------
 Symbolic Z-matrix:
 Charge =  0 Multiplicity = 1
 6                     0.93586  -0.72166   0.02205 
 6                    -0.35623  -1.05077  -0.00287 
 8                    -1.20026   0.04588  -0.01797 
 6                    -0.29816   1.06863   0.04997 
 6                     0.95179   0.74257   0.027 
 1                     1.79325   1.33863   0.04286 
 1                    -0.8636    2.05082  -0.02007 
 1                    -0.80319  -2.02175   0.03253 
 1                     1.81237  -1.37187  -0.00955 
 
 NAtoms=      9 NQM=        9 NQMF=       0 NMMI=      0 NMMIF=      0
                NMic=       0 NMicF=      0.
                    Isotopes and Nuclear Properties:
 (Nuclear quadrupole moments (NQMom) in fm**2, nuclear magnetic moments (NMagM)
  in nuclear magnetons)

  Atom         1           2           3           4           5           6           7           8           9
 IAtWgt=          12          12          16          12          12           1           1           1           1
 AtmWgt=  12.0000000  12.0000000  15.9949146  12.0000000  12.0000000   1.0078250   1.0078250   1.0078250   1.0078250
 NucSpn=           0           0           0           0           0           1           1           1           1
 AtZEff=   0.0000000   0.0000000   0.0000000   0.0000000   0.0000000   0.0000000   0.0000000   0.0000000   0.0000000
 NQMom=    0.0000000   0.0000000   0.0000000   0.0000000   0.0000000   0.0000000   0.0000000   0.0000000   0.0000000
 NMagM=    0.0000000   0.0000000   0.0000000   0.0000000   0.0000000   2.7928460   2.7928460   2.7928460   2.7928460
 AtZNuc=   6.0000000   6.0000000   8.0000000   6.0000000   6.0000000   1.0000000   1.0000000   1.0000000   1.0000000
 Leave Link  101 at Tue Dec 15 17:09:19 2015, MaxMem=    33554432 cpu:         0.0
 (Enter /home/Applications/g09/g09/l103.exe)

 GradGradGradGradGradGradGradGradGradGradGradGradGradGradGradGradGradGrad
 Berny optimization.
 Initialization pass.
 Trust Radius=3.00D-01 FncErr=1.00D-07 GrdErr=1.00D-07
 Number of steps in this run=      2 maximum allowed number of steps=      2.
 GradGradGradGradGradGradGradGradGradGradGradGradGradGradGradGradGradGrad

 Leave Link  103 at Tue Dec 15 17:09:19 2015, MaxMem=    33554432 cpu:         0.0
 (Enter /home/Applications/g09/g09/l202.exe)
                          Input orientation:                          
 ---------------------------------------------------------------------
 Center     Atomic      Atomic             Coordinates (Angstroms)
 Number     Number       Type             X           Y           Z
 ---------------------------------------------------------------------
      1          6           0        0.935861   -0.721664    0.022049
      2          6           0       -0.356230   -1.050773   -0.002872
      3          8           0       -1.200259    0.045884   -0.017969
      4          6           0       -0.298160    1.068634    0.049973
      5          6           0        0.951788    0.742569    0.026997
      6          1           0        1.793254    1.338631    0.042856
      7          1           0       -0.863602    2.050815   -0.020073
      8          1           0       -0.803191   -2.021749    0.032533
      9          1           0        1.812372   -1.371869   -0.009552
 ---------------------------------------------------------------------
                    Distance matrix (angstroms):
                    1          2          3          4          5
     1  C    0.000000
     2  C    1.333579   0.000000
     3  O    2.270185   1.383933   0.000000
     4  C    2.174570   2.120861   1.365436   0.000000
     5  C    1.464328   2.219883   2.262454   1.291982   0.000000
     6  H    2.231675   3.214284   3.261290   2.108782   1.031313
     7  H    3.305523   3.142860   2.033000   1.135478   2.238161
     8  H    2.171321   1.069496   2.106020   3.131426   3.274360
     9  H    1.091804   2.192255   3.329571   3.227064   2.283153
                    6          7          8          9
     6  H    0.000000
     7  H    2.751372   0.000000
     8  H    4.246621   4.073352   0.000000
     9  H    2.711074   4.344619   2.695419   0.000000
 Stoichiometry    C4H4O
 Framework group  C1[X(C4H4O)]
 Deg. of freedom    21
 Full point group                 C1      NOp   1
 Largest Abelian subgroup         C1      NOp   1
 Largest concise Abelian subgroup C1      NOp   1
                         Standard orientation:                         
 ---------------------------------------------------------------------
 Center     Atomic      Atomic             Coordinates (Angstroms)
 Number     Number       Type             X           Y           Z
 ---------------------------------------------------------------------
      1          6           0        0.961004    0.714901    0.003316
      2          6           0        0.937369   -0.618462   -0.000946
      3          8           0       -0.343133   -1.143220   -0.015483
      4          6           0       -1.091747   -0.002208    0.030209
      5          6           0       -0.447050    1.116828   -0.006390
      6          1           0       -0.799831    2.085926   -0.007749
      7          1           0       -2.187945   -0.289368   -0.041894
      8          1           0        1.755621   -1.305255    0.050051
      9          1           0        1.819766    1.388099   -0.033679
 ---------------------------------------------------------------------
 Rotational constants (GHZ):      9.7334289      9.2036073      4.7323564
 Leave Link  202 at Tue Dec 15 17:09:19 2015, MaxMem=    33554432 cpu:         0.0
 (Enter /home/Applications/g09/g09/l301.exe)

 Semi-emprical parameters in input format:
 Method=8 CoreType=1 PeptideFC=0.0111590000 RIJScale=0.5652640000
 ****
 H       
 PQN=1 NValence=1 F0ss=0.5085940000 ZetaOverlap=1.0856700000 U=-0.4186260000
 Beta=-0.2131800000 CoreKO=1.0354420000 KON=0,0,0,1.0458670000 KON=1,0,1,0.9802520000
 KON=0,1,1,1.0589200000 KON=2,1,1,1.0697690000 EISol=-0.4188110042 EHeat=0.0830298228
 Alpha=1.4609850000
 GCore=0.0085280000,1.4882240000,2.4027570000
 GCore=0.0003530000,1.4551640000,3.3455890000
 GCore=-0.0013010000,0.5600570000,3.4989800000
 ****
 C       
 PQN=2,2 NValence=4 F0ss=0.4494440000 F0sp=0.4261420000 F0pp=0.3497590000 F2pp=0.1878900000
 G1sp=0.2701540000
 ZetaOverlap=1.8086650000,1.3781170000
 U=-1.7687090000,-1.4557970000
 Beta=-0.5453250000,-0.3336900000 DDN=0,1,0.7474020000 DDN=1,1,0.7268010000
 CoreKO=1.1124280000 KON=0,0,0,1.1723100000 KON=1,0,1,0.8473510000 KON=0,1,1,1.1012040000
 KON=2,1,1,0.8516400000 EISol=-4.4398989268 EHeat=0.2723305520 Alpha=1.2914650000
 DipHyp=1.4947180026
 GCore=0.0007890000,1.3361580000,2.6678360000
 GCore=0.0028980000,1.4001430000,3.2840710000
 GCore=-0.0015090000,1.2510850000,3.8739390000
 GCore=-0.0000850000,1.4001430000,4.8086990000
 ****
 O       
 PQN=2,2 NValence=6 F0ss=0.5666750000 F0sp=0.5321300000 F0pp=0.4958710000 F2pp=0.2358080000
 G1sp=0.4216980000
 ZetaOverlap=2.6354490000,2.7379220000
 U=-3.5951870000,-2.0345890000
 Beta=-1.1573400000,-1.2994290000 DDN=0,1,0.4953610000 DDN=1,1,0.4852320000
 CoreKO=0.8822960000 KON=0,0,0,0.8822960000 KON=1,0,1,0.5019540000 KON=0,1,1,0.8682050000
 KON=2,1,1,0.5515580000 EISol=-11.6164441184 EHeat=0.0949133088 Alpha=2.4031680000
 DipHyp=0.9906650029
 GCore=0.0204720000,1.4001430000,1.6023330000
 GCore=0.0054290000,1.9602000000,2.7307880000
 ****
 
 Standard basis: VSTO-6G (5D, 7F)
 Ernie: Thresh=  0.10000D-02 Tol=  0.10000D-05 Strict=F.
  NNHCO=     0 NNPyr=     0 NCTC=     0               EPep=         0.000000000
    EC=        68.955170883  ECS=         2.427545644   EG=         0.343234047
   EHC=         0.000000000  EAt=       -31.051283842  AtH=         1.516354808
 EPDDG=         0.000000000  ECC=        71.725950574 EAtT=        32.567638650
 There are    24 symmetry adapted cartesian basis functions of A   symmetry.
 There are    24 symmetry adapted basis functions of A   symmetry.
    24 basis functions,   144 primitive gaussians,    24 cartesian basis functions
    13 alpha electrons       13 beta electrons
       nuclear repulsion energy       104.2935892247 Hartrees.
 IExCor=    0 DFT=F Ex=HF Corr=None ExCW=0 ScaHFX=  1.000000
 ScaDFX=  1.000000  1.000000  1.000000  1.000000 ScalE2=  1.000000  1.000000
 IRadAn=      0 IRanWt=     -1 IRanGd=            0 ICorTp=0 IEmpDi=  4
 Integral buffers will be    131072 words long.
 Regular integral format.
 Two-electron integral symmetry is turned off.
 Leave Link  301 at Tue Dec 15 17:09:19 2015, MaxMem=    33554432 cpu:         0.0
 (Enter /home/Applications/g09/g09/l302.exe)
 Do NDO integrals.
 NPDir=0 NMtPBC=     1 NCelOv=     1 NCel=       1 NClECP=     1 NCelD=      1
         NCelK=      1 NCelE2=     1 NClLst=     1 CellRange=     0.0.
 One-electron integrals computed using PRISM.
 NBasis=    24 RedAO= F EigKep=  0.00D+00  NBF=    24
 NBsUse=    24 1.00D-04 EigRej=  0.00D+00 NBFU=    24
 Leave Link  302 at Tue Dec 15 17:09:19 2015, MaxMem=    33554432 cpu:         0.0
 (Enter /home/Applications/g09/g09/l308.exe)
 Leave Link  308 at Tue Dec 15 17:09:19 2015, MaxMem=    33554432 cpu:         0.0
 (Enter /home/Applications/g09/g09/l303.exe)
 DipDrv:  MaxL=1.
 Leave Link  303 at Tue Dec 15 17:09:19 2015, MaxMem=    33554432 cpu:         0.0
 (Enter /home/Applications/g09/g09/l401.exe)
 Simple Huckel Guess.
 JPrj=0 DoOrth=F DoCkMO=F.
 Leave Link  401 at Tue Dec 15 17:09:20 2015, MaxMem=    33554432 cpu:         0.0
 (Enter /home/Applications/g09/g09/l502.exe)
 Closed shell SCF:
 Using DIIS extrapolation, IDIIS=  1040.
 Overlap will be assumed to be unity.
 Two-electron integral symmetry not used.
 Keep J ints in memory in canonical form, NReq=888082.
 IVT=       79475 IEndB=       79475 NGot=    33554432 MDV=    33473473
 LenX=    33473473 LenY=    33472456
 Requested convergence on RMS density matrix=1.00D-08 within 128 cycles.
 Requested convergence on MAX density matrix=1.00D-06.
 Requested convergence on             energy=1.00D-06.
 No special actions if energy rises.
 FoFCou: FMM=F IPFlag=           0 FMFlag=           0 FMFlg1=           0
         NFxFlg=           0 DoJE=F BraDBF=F KetDBF=F FulRan=T
         wScrn=  0.000000 ICntrl=     600 IOpCl=  2 I1Cent=           0 NGrid=           0
         NMat0=    1 NMatS0=     54 NMatT0=    0 NMatD0=    1 NMtDS0=    0 NMtDT0=    0
 Symmetry not used in FoFCou.

 Cycle   1  Pass 1  IDiag  1:
 E=  4.40320987459725    
 DIIS: error= 1.38D-01 at cycle   1 NSaved=   1.
 NSaved= 1 IEnMin= 1 EnMin=  4.40320987459725     IErMin= 1 ErrMin= 1.38D-01
 ErrMax= 1.38D-01  0.00D+00 EMaxC= 1.00D-01 BMatC= 4.56D-01 BMatP= 4.56D-01
 IDIUse=3 WtCom= 0.00D+00 WtEn= 1.00D+00
 Coeff-Com:  0.100D+01
 Coeff-En:   0.100D+01
 Coeff:      0.100D+01
 GapD=    2.000 DampG=2.000 DampE=0.250 DampFc=0.5000 IDamp=-1.
 Damping current iteration by 5.00D-01
 RMSDP=6.66D-02 MaxDP=7.39D-01              OVMax= 0.00D+00

 Cycle   2  Pass 1  IDiag  1:
 E=  3.41435059227254     Delta-E=       -0.988859282325 Rises=F Damp=T
 DIIS: error= 7.46D-02 at cycle   2 NSaved=   2.
 NSaved= 2 IEnMin= 2 EnMin=  3.41435059227254     IErMin= 2 ErrMin= 7.46D-02
 ErrMax= 7.46D-02  0.00D+00 EMaxC= 1.00D-01 BMatC= 1.52D-01 BMatP= 4.56D-01
 IDIUse=3 WtCom= 2.54D-01 WtEn= 7.46D-01
 Coeff-Com: -0.109D+01 0.209D+01
 Coeff-En:   0.000D+00 0.100D+01
 Coeff:     -0.276D+00 0.128D+01
 RMSDP=3.66D-02 MaxDP=3.70D-01 DE=-9.89D-01 OVMax= 0.00D+00

 Cycle   3  Pass 1  IDiag  1:
 E=  2.21763672212217     Delta-E=       -1.196713870150 Rises=F Damp=F
 DIIS: error= 1.45D-02 at cycle   3 NSaved=   3.
 NSaved= 3 IEnMin= 3 EnMin=  2.21763672212217     IErMin= 3 ErrMin= 1.45D-02
 ErrMax= 1.45D-02  0.00D+00 EMaxC= 1.00D-01 BMatC= 9.42D-03 BMatP= 1.52D-01
 IDIUse=3 WtCom= 8.55D-01 WtEn= 1.45D-01
 Coeff-Com:  0.307D+00-0.665D+00 0.136D+01
 Coeff-En:   0.000D+00 0.000D+00 0.100D+01
 Coeff:      0.262D+00-0.568D+00 0.131D+01
 RMSDP=9.20D-03 MaxDP=5.02D-02 DE=-1.20D+00 OVMax= 0.00D+00

 Cycle   4  Pass 1  IDiag  3:
 E=  2.17994342604416     Delta-E=       -0.037693296078 Rises=F Damp=F
 DIIS: error= 4.26D-03 at cycle   4 NSaved=   4.
 NSaved= 4 IEnMin= 4 EnMin=  2.17994342604416     IErMin= 4 ErrMin= 4.26D-03
 ErrMax= 4.26D-03  0.00D+00 EMaxC= 1.00D-01 BMatC= 8.82D-04 BMatP= 9.42D-03
 IDIUse=3 WtCom= 9.57D-01 WtEn= 4.26D-02
 Coeff-Com: -0.647D-01 0.118D+00-0.440D+00 0.139D+01
 Coeff-En:   0.000D+00 0.000D+00 0.000D+00 0.100D+01
 Coeff:     -0.620D-01 0.113D+00-0.421D+00 0.137D+01
 Gap=     0.396 Goal=   None    Shift=    0.000
 RMSDP=3.71D-03 MaxDP=2.00D-02 DE=-3.77D-02 OVMax= 4.01D-02

 Cycle   5  Pass 1  IDiag  3:
 E=  2.17575314647584     Delta-E=       -0.004190279568 Rises=F Damp=F
 DIIS: error= 8.63D-04 at cycle   5 NSaved=   5.
 NSaved= 5 IEnMin= 5 EnMin=  2.17575314647584     IErMin= 5 ErrMin= 8.63D-04
 ErrMax= 8.63D-04  0.00D+00 EMaxC= 1.00D-01 BMatC= 3.84D-05 BMatP= 8.82D-04
 IDIUse=3 WtCom= 9.91D-01 WtEn= 8.63D-03
 Coeff-Com:  0.145D-01-0.248D-01 0.135D+00-0.584D+00 0.146D+01
 Coeff-En:   0.000D+00 0.000D+00 0.000D+00 0.000D+00 0.100D+01
 Coeff:      0.143D-01-0.246D-01 0.134D+00-0.579D+00 0.146D+01
 Gap=     0.396 Goal=   None    Shift=    0.000
 RMSDP=8.68D-04 MaxDP=4.00D-03 DE=-4.19D-03 OVMax= 7.42D-03

 Cycle   6  Pass 1  IDiag  3:
 E=  2.17555036613982     Delta-E=       -0.000202780336 Rises=F Damp=F
 DIIS: error= 1.75D-04 at cycle   6 NSaved=   6.
 NSaved= 6 IEnMin= 6 EnMin=  2.17555036613982     IErMin= 6 ErrMin= 1.75D-04
 ErrMax= 1.75D-04  0.00D+00 EMaxC= 1.00D-01 BMatC= 1.44D-06 BMatP= 3.84D-05
 IDIUse=3 WtCom= 9.98D-01 WtEn= 1.75D-03
 Coeff-Com: -0.834D-03 0.166D-02-0.316D-01 0.159D+00-0.553D+00 0.142D+01
 Coeff-En:   0.000D+00 0.000D+00 0.000D+00 0.000D+00 0.000D+00 0.100D+01
 Coeff:     -0.832D-03 0.165D-02-0.316D-01 0.158D+00-0.552D+00 0.142D+01
 Gap=     0.397 Goal=   None    Shift=    0.000
 RMSDP=1.66D-04 MaxDP=9.35D-04 DE=-2.03D-04 OVMax= 9.80D-04

 Cycle   7  Pass 1  IDiag  3:
 E=  2.17554356578717     Delta-E=       -0.000006800353 Rises=F Damp=F
 DIIS: error= 1.88D-05 at cycle   7 NSaved=   7.
 NSaved= 7 IEnMin= 7 EnMin=  2.17554356578717     IErMin= 7 ErrMin= 1.88D-05
 ErrMax= 1.88D-05  0.00D+00 EMaxC= 1.00D-01 BMatC= 2.66D-08 BMatP= 1.44D-06
 IDIUse=1 WtCom= 1.00D+00 WtEn= 0.00D+00
 Coeff-Com:  0.572D-04-0.860D-04 0.967D-02-0.526D-01 0.201D+00-0.587D+00
 Coeff-Com:  0.143D+01
 Coeff:      0.572D-04-0.860D-04 0.967D-02-0.526D-01 0.201D+00-0.587D+00
 Coeff:      0.143D+01
 Gap=     0.397 Goal=   None    Shift=    0.000
 RMSDP=1.87D-05 MaxDP=1.07D-04 DE=-6.80D-06 OVMax= 1.64D-04

 Cycle   8  Pass 1  IDiag  3:
 E=  2.17554345767664     Delta-E=       -0.000000108111 Rises=F Damp=F
 DIIS: error= 2.97D-06 at cycle   8 NSaved=   8.
 NSaved= 8 IEnMin= 8 EnMin=  2.17554345767664     IErMin= 8 ErrMin= 2.97D-06
 ErrMax= 2.97D-06  0.00D+00 EMaxC= 1.00D-01 BMatC= 5.87D-10 BMatP= 2.66D-08
 IDIUse=1 WtCom= 1.00D+00 WtEn= 0.00D+00
 Coeff-Com: -0.146D-04 0.203D-05-0.144D-02 0.886D-02-0.387D-01 0.119D+00
 Coeff-Com: -0.359D+00 0.127D+01
 Coeff:     -0.146D-04 0.203D-05-0.144D-02 0.886D-02-0.387D-01 0.119D+00
 Coeff:     -0.359D+00 0.127D+01
 Gap=     0.397 Goal=   None    Shift=    0.000
 RMSDP=2.73D-06 MaxDP=1.62D-05 DE=-1.08D-07 OVMax= 1.95D-05

 Cycle   9  Pass 1  IDiag  3:
 E=  2.17554345531931     Delta-E=       -0.000000002357 Rises=F Damp=F
 DIIS: error= 5.71D-07 at cycle   9 NSaved=   9.
 NSaved= 9 IEnMin= 9 EnMin=  2.17554345531931     IErMin= 9 ErrMin= 5.71D-07
 ErrMax= 5.71D-07  0.00D+00 EMaxC= 1.00D-01 BMatC= 1.86D-11 BMatP= 5.87D-10
 IDIUse=1 WtCom= 1.00D+00 WtEn= 0.00D+00
 Coeff-Com:  0.241D-05 0.807D-07 0.162D-03-0.113D-02 0.564D-02-0.177D-01
 Coeff-Com:  0.555D-01-0.306D+00 0.126D+01
 Coeff:      0.241D-05 0.807D-07 0.162D-03-0.113D-02 0.564D-02-0.177D-01
 Coeff:      0.555D-01-0.306D+00 0.126D+01
 Gap=     0.397 Goal=   None    Shift=    0.000
 RMSDP=5.40D-07 MaxDP=3.19D-06 DE=-2.36D-09 OVMax= 3.93D-06

 Cycle  10  Pass 1  IDiag  3:
 E=  2.17554345522775     Delta-E=       -0.000000000092 Rises=F Damp=F
 DIIS: error= 1.67D-07 at cycle  10 NSaved=  10.
 NSaved=10 IEnMin=10 EnMin=  2.17554345522775     IErMin=10 ErrMin= 1.67D-07
 ErrMax= 1.67D-07  0.00D+00 EMaxC= 1.00D-01 BMatC= 1.31D-12 BMatP= 1.86D-11
 IDIUse=1 WtCom= 1.00D+00 WtEn= 0.00D+00
 Coeff-Com:  0.123D-05-0.324D-05-0.297D-04 0.256D-03-0.144D-02 0.455D-02
 Coeff-Com: -0.145D-01 0.962D-01-0.574D+00 0.149D+01
 Coeff:      0.123D-05-0.324D-05-0.297D-04 0.256D-03-0.144D-02 0.455D-02
 Coeff:     -0.145D-01 0.962D-01-0.574D+00 0.149D+01
 Gap=     0.397 Goal=   None    Shift=    0.000
 RMSDP=1.95D-07 MaxDP=1.56D-06 DE=-9.16D-11 OVMax= 1.75D-06

 Cycle  11  Pass 1  IDiag  3:
 E=  2.17554345521883     Delta-E=       -0.000000000009 Rises=F Damp=F
 DIIS: error= 4.95D-08 at cycle  11 NSaved=  11.
 NSaved=11 IEnMin=11 EnMin=  2.17554345521883     IErMin=11 ErrMin= 4.95D-08
 ErrMax= 4.95D-08  0.00D+00 EMaxC= 1.00D-01 BMatC= 7.89D-14 BMatP= 1.31D-12
 IDIUse=1 WtCom= 1.00D+00 WtEn= 0.00D+00
 Coeff-Com: -0.491D-06 0.107D-05 0.334D-05-0.463D-04 0.318D-03-0.979D-03
 Coeff-Com:  0.331D-02-0.295D-01 0.217D+00-0.759D+00 0.157D+01
 Coeff:     -0.491D-06 0.107D-05 0.334D-05-0.463D-04 0.318D-03-0.979D-03
 Coeff:      0.331D-02-0.295D-01 0.217D+00-0.759D+00 0.157D+01
 Gap=     0.397 Goal=   None    Shift=    0.000
 RMSDP=5.62D-08 MaxDP=4.72D-07 DE=-8.92D-12 OVMax= 5.31D-07

 Cycle  12  Pass 1  IDiag  3:
 E=  2.17554345521819     Delta-E=       -0.000000000001 Rises=F Damp=F
 DIIS: error= 1.04D-08 at cycle  12 NSaved=  12.
 NSaved=12 IEnMin=12 EnMin=  2.17554345521819     IErMin=12 ErrMin= 1.04D-08
 ErrMax= 1.04D-08  0.00D+00 EMaxC= 1.00D-01 BMatC= 2.73D-15 BMatP= 7.89D-14
 IDIUse=1 WtCom= 1.00D+00 WtEn= 0.00D+00
 Coeff-Com:  0.809D-08-0.391D-07-0.280D-06 0.799D-05-0.680D-04 0.199D-03
 Coeff-Com: -0.721D-03 0.862D-02-0.702D-01 0.267D+00-0.676D+00 0.147D+01
 Coeff:      0.809D-08-0.391D-07-0.280D-06 0.799D-05-0.680D-04 0.199D-03
 Coeff:     -0.721D-03 0.862D-02-0.702D-01 0.267D+00-0.676D+00 0.147D+01
 Gap=     0.397 Goal=   None    Shift=    0.000
 RMSDP=8.62D-09 MaxDP=6.75D-08 DE=-6.39D-13 OVMax= 6.76D-08

 Cycle  13  Pass 2  IDiag  1:
 SCF Done:  E(RAM1) =   2.17554345522     A.U. after   13 cycles
            NFock= 12  Conv=0.86D-08     -V/T= 1.1418
 KE=-1.534675356262D+01 PE=-1.696937224116D+02 EE= 8.292243020472D+01
 Leave Link  502 at Tue Dec 15 17:09:20 2015, MaxMem=    33554432 cpu:         0.0
 (Enter /home/Applications/g09/g09/l801.exe)
 Range of M.O.s used for correlation:     1    24
 NBasis=    24 NAE=    13 NBE=    13 NFC=     0 NFV=     0
 NROrb=     24 NOA=    13 NOB=    13 NVA=    11 NVB=    11
 Leave Link  801 at Tue Dec 15 17:09:20 2015, MaxMem=    33554432 cpu:         0.0
 (Enter /home/Applications/g09/g09/l914.exe)
 RHF ground state
 MDV=    33554432 DFT=F DoStab=F Mixed=F DoRPA=F DoScal=F NonHer=F
 Making orbital integer symmetry assigments:
 Orbital symmetries:
       Occupied  (A) (A) (A) (A) (A) (A) (A) (A) (A) (A) (A) (A)
                 (A)
       Virtual   (A) (A) (A) (A) (A) (A) (A) (A) (A) (A) (A)
    60 initial guesses have been made.
 Convergence on wavefunction:    0.000001000000000
 Davidson Disk Diagonalization:  ConvIn= 1.00D-06 SkipCon=T Conv= 1.00D-06.
 Max sub-space:   240 roots to seek:    60 dimension of matrix:          286
 Iteration     1 Dimension    60 NMult     0 NNew     60
 CISAX will form    60 AO SS matrices at one time.
 NMat=    60 NSing=    60 JSym2X= 0.
 FoFJK:  IHMeth= 8 ICntrl=       0 DoSepK=F KAlg= 0 I1Cent=   0 FoldK=F
 IRaf=         1 NMat= 120 IRICut=       1 DoRegI=T DoRafI=F ISym2E= 0.
 FoFCou: FMM=F IPFlag=           0 FMFlag=      100000 FMFlg1=           0
         NFxFlg=           0 DoJE=F BraDBF=F KetDBF=F FulRan=T
         wScrn=  0.000000 ICntrl=       0 IOpCl=  0 I1Cent=           0 NGrid=           0
         NMat0=  120 NMatS0=     60 NMatT0=    0 NMatD0=  120 NMtDS0=    0 NMtDT0=    0
 Symmetry not used in FoFCou.
 New state      5 was old state      7
 New state      6 was old state      5
 New state      7 was old state      9
 New state      8 was old state     10
 New state      9 was old state      8
 New state     10 was old state      6
 New state     11 was old state     16
 New state     12 was old state     13
 New state     13 was old state     14
 New state     14 was old state     11
 New state     15 was old state     12
 Excitation Energies [eV] at current iteration:
 Root      1 :     5.350580032631530
 Root      2 :     5.556753457512405
 Root      3 :     6.331825331674020
 Root      4 :     7.065182025034771
 Root      5 :     7.845802250419614
 Root      6 :     8.201075106958973
 Root      7 :     8.405273221857854
 Root      8 :     8.912049646682725
 Root      9 :     8.934156301919581
 Root     10 :     9.236976604121439
 Root     11 :     9.526583464424727
 Root     12 :     9.760116743060387
 Root     13 :     9.800161363545010
 Root     14 :     9.870056208098211
 Root     15 :     9.989863351000601
 Root     16 :    10.415380061098340
 Root     17 :    10.582772961884810
 Root     18 :    10.603130489412630
 Root     19 :    11.082058152881170
 Root     20 :    11.226660697122250
 Root     21 :    11.363679739634580
 Root     22 :    11.412290991971140
 Root     23 :    11.571146235322330
 Root     24 :    11.677249670872840
 Root     25 :    12.050176481696450
 Root     26 :    12.199343184573690
 Root     27 :    12.351289747726040
 Root     28 :    12.459777830108430
 Root     29 :    12.767981764145360
 Root     30 :    12.905590064777520
 Root     31 :    12.915146001133600
 Root     32 :    13.052706275077660
 Root     33 :    13.097590266892430
 Root     34 :    13.326259375564540
 Root     35 :    13.371798385179670
 Root     36 :    13.554991794477380
 Root     37 :    13.569019186488330
 Root     38 :    13.775419700665530
 Root     39 :    13.827148473755250
 Root     40 :    13.922769312049200
 Root     41 :    14.127647290879720
 Root     42 :    14.485535371188910
 Root     43 :    14.567535572815770
 Root     44 :    14.900994788948130
 Root     45 :    14.978900849851450
 Root     46 :    15.002503943054590
 Root     47 :    15.317871451060420
 Root     48 :    15.366898201134570
 Root     49 :    15.513539997712310
 Root     50 :    15.829103547915000
 Root     51 :    15.854496726171420
 Root     52 :    15.970172923865160
 Root     53 :    16.181401716185850
 Root     54 :    16.195285470467810
 Root     55 :    16.239937014460350
 Root     56 :    16.370583132090130
 Root     57 :    16.805902472085470
 Root     58 :    16.888244154095540
 Root     59 :    17.024742709886380
 Root     60 :    17.237951294352220
 Iteration     2 Dimension   120 NMult    60 NNew     60
 CISAX will form    60 AO SS matrices at one time.
 NMat=    60 NSing=    60 JSym2X= 0.
 Root      1 not converged, maximum delta is    0.024032962844246
 Root      2 not converged, maximum delta is    0.010146144593673
 Root      3 not converged, maximum delta is    0.038288720373963
 Root      4 not converged, maximum delta is    0.027469794416731
 Root      5 not converged, maximum delta is    0.027973090428687
 Root      6 not converged, maximum delta is    0.044708531326186
 Root      7 not converged, maximum delta is    0.034146175258208
 New state      8 was old state      9
 Root      8 not converged, maximum delta is    0.149005662769674
 New state      9 was old state      8
 Root      9 not converged, maximum delta is    0.134670550468333
 Root     10 not converged, maximum delta is    0.097519105008641
 Root     11 not converged, maximum delta is    0.024334234587910
 Root     12 not converged, maximum delta is    0.210537589821208
 Root     13 not converged, maximum delta is    0.329895773688255
 Root     14 not converged, maximum delta is    0.196475707451450
 Root     15 not converged, maximum delta is    0.129336662503773
 Excitation Energies [eV] at current iteration:
 Root      1 :     5.280809449378652   Change is   -0.069770583252877
 Root      2 :     5.544599445216641   Change is   -0.012154012295764
 Root      3 :     6.280131375535807   Change is   -0.051693956138213
 Root      4 :     7.034819694841244   Change is   -0.030362330193527
 Root      5 :     7.795919662630562   Change is   -0.049882587789051
 Root      6 :     8.152714813997269   Change is   -0.048360292961703
 Root      7 :     8.381357190291824   Change is   -0.023916031566030
 Root      8 :     8.822969377819343   Change is   -0.111186924100238
 Root      9 :     8.851757723768948   Change is   -0.060291922913777
 Root     10 :     9.099954327822095   Change is   -0.137022276299344
 Root     11 :     9.503080818676679   Change is   -0.023502645748047
 Root     12 :     9.714600755748293   Change is   -0.045515987312093
 Root     13 :     9.757532160387264   Change is   -0.042629203157746
 Root     14 :     9.787013846475102   Change is   -0.083042361623109
 Root     15 :     9.860475806961029   Change is   -0.129387544039572
 Root     16 :    10.236313437315430   Change is   -0.179066623782909
 Root     17 :    10.340809400886050   Change is   -0.241963560998759
 Root     18 :    10.365163771791400   Change is   -0.237966717621227
 Root     19 :    10.762567875955240   Change is   -0.319490276925929
 Root     20 :    11.179179318534940   Change is   -0.047481378587310
 Root     21 :    11.262171151628050   Change is   -0.101508588006530
 Root     22 :    11.296398486442360   Change is   -0.274747748879973
 Root     23 :    11.313866727429940   Change is   -0.098424264541199
 Root     24 :    11.402161931760480   Change is   -0.275087739112360
 Root     25 :    11.792473517263700   Change is   -0.257702964432744
 Root     26 :    11.986925858902770   Change is   -0.212417325670926
 Root     27 :    12.211143373763040   Change is   -0.140146373963003
 Root     28 :    12.286668815523840   Change is   -0.173109014584590
 Root     29 :    12.571797976162680   Change is   -0.196183787982682
 Root     30 :    12.642473471539000   Change is   -0.272672529594606
 Root     31 :    12.768786901247490   Change is   -0.136803163530032
 Root     32 :    12.866383247897650   Change is   -0.186323027180008
 Root     33 :    12.891820622221880   Change is   -0.205769644670552
 Root     34 :    13.164120717190870   Change is   -0.963526573688848
 Root     35 :    13.233757557038380   Change is   -0.092501818526158
 Root     36 :    13.296968917972280   Change is   -0.074829467207397
 Root     37 :    13.414085145268750   Change is   -0.140906649208634
 Root     38 :    13.420294382335470   Change is   -0.148724804152862
 Root     39 :    13.529101756934930   Change is   -0.298046716820328
 Root     40 :    13.655848431500750   Change is   -0.119571269164775
 Root     41 :    13.722045851427280   Change is   -0.200723460621929
 Root     42 :    14.350557490047850   Change is   -0.134977881141062
 Root     43 :    14.426376552058790   Change is   -0.141159020756977
 Root     44 :    14.720828746065530   Change is   -0.281675196989059
 Root     45 :    14.818095828074460   Change is   -0.082898960873674
 Root     46 :    14.922030621308050   Change is   -0.056870228543402
 Root     47 :    15.061913632515860   Change is   -0.255957818544561
 Root     48 :    15.228076955770040   Change is   -0.138821245364527
 Root     49 :    15.309548250376460   Change is   -0.203991747335847
 Root     50 :    15.636844717529560   Change is   -0.192258830385437
 Root     51 :    15.644964569914050   Change is   -0.209532156257368
 Root     52 :    15.733227414153120   Change is   -0.236945509712039
 Root     53 :    15.866792028589750   Change is   -0.314609687596104
 Root     54 :    15.968453052465840   Change is   -0.271483961994504
 Root     55 :    16.061774416103440   Change is   -0.308808715986690
 Root     56 :    16.138887911668210   Change is   -0.056397558799600
 Root     57 :    16.174144249369280   Change is   -0.714099904726260
 Root     58 :    16.369027332736770   Change is   -0.436875139348701
 Root     59 :    16.386765498792660   Change is   -0.637977211093723
 Root     60 :    16.729369366359860   Change is   -0.508581927992355
 Iteration     3 Dimension   135 NMult   120 NNew     15
 CISAX will form    15 AO SS matrices at one time.
 NMat=    15 NSing=    15 JSym2X= 0.
 Root      1 not converged, maximum delta is    0.001307521461314
 Root      2 not converged, maximum delta is    0.000066847297208
 Root      3 not converged, maximum delta is    0.000053453479537
 Root      4 not converged, maximum delta is    0.000059001470450
 Root      5 not converged, maximum delta is    0.000048486226105
 Root      6 not converged, maximum delta is    0.000090786689850
 Root      7 not converged, maximum delta is    0.000080219270587
 Root      8 not converged, maximum delta is    0.001496344162964
 Root      9 not converged, maximum delta is    0.000693941861303
 Root     10 not converged, maximum delta is    0.001113176328683
 Root     11 not converged, maximum delta is    0.000092336619034
 Root     12 not converged, maximum delta is    0.001588136886321
 Root     13 not converged, maximum delta is    0.005064016110185
 Root     14 not converged, maximum delta is    0.003204328696034
 Root     15 not converged, maximum delta is    0.004162157253283
 Excitation Energies [eV] at current iteration:
 Root      1 :     5.280546873731184   Change is   -0.000262575647469
 Root      2 :     5.544598186195733   Change is   -0.000001259020908
 Root      3 :     6.280130414526506   Change is   -0.000000961009300
 Root      4 :     7.034819086076014   Change is   -0.000000608765230
 Root      5 :     7.795918921888264   Change is   -0.000000740742299
 Root      6 :     8.152712545888710   Change is   -0.000002268108560
 Root      7 :     8.381355161410578   Change is   -0.000002028881246
 Root      8 :     8.822561517500167   Change is   -0.000407860319175
 Root      9 :     8.851752080215581   Change is   -0.000005643553367
 Root     10 :     9.099466491472235   Change is   -0.000487836349859
 Root     11 :     9.503079494275546   Change is   -0.000001324401133
 Root     12 :     9.714542773171782   Change is   -0.000057982576512
 Root     13 :     9.757150754696806   Change is   -0.000381405690458
 Root     14 :     9.786681270671489   Change is   -0.000332575803613
 Root     15 :     9.859180507732159   Change is   -0.001295299228869
 Iteration     4 Dimension   143 NMult   135 NNew      8
 CISAX will form     8 AO SS matrices at one time.
 NMat=     8 NSing=     8 JSym2X= 0.
 Root      1 not converged, maximum delta is    0.000033960967287
 Root      2 not converged, maximum delta is    0.000001941159722
 Root      3 not converged, maximum delta is    0.000002160729352
 Root      4 not converged, maximum delta is    0.000002324328066
 Root      5 not converged, maximum delta is    0.000001955266796
 Root      6 not converged, maximum delta is    0.000002514975894
 Root      7 not converged, maximum delta is    0.000003496673310
 Root      8 not converged, maximum delta is    0.000048059081894
 Root      9 not converged, maximum delta is    0.000005804623465
 Root     10 not converged, maximum delta is    0.000082119335554
 Root     11 not converged, maximum delta is    0.000001992485882
 Root     12 not converged, maximum delta is    0.000019827641118
 Root     13 not converged, maximum delta is    0.000047738371036
 Root     14 not converged, maximum delta is    0.000038586976139
 Root     15 not converged, maximum delta is    0.000072576088858
 Excitation Energies [eV] at current iteration:
 Root      1 :     5.280546453995331   Change is   -0.000000419735852
 Root      2 :     5.544598185226757   Change is   -0.000000000968976
 Root      3 :     6.280130413331419   Change is   -0.000000001195088
 Root      4 :     7.034819084976211   Change is   -0.000000001099803
 Root      5 :     7.795918919872523   Change is   -0.000000002015741
 Root      6 :     8.152712545042782   Change is   -0.000000000845928
 Root      7 :     8.381355156734079   Change is   -0.000000004676499
 Root      8 :     8.822560991028222   Change is   -0.000000526471945
 Root      9 :     8.851752070014884   Change is   -0.000000010200696
 Root     10 :     9.099465306719644   Change is   -0.000001184752592
 Root     11 :     9.503079492855232   Change is   -0.000000001420314
 Root     12 :     9.714542566833273   Change is   -0.000000206338509
 Root     13 :     9.757149960660575   Change is   -0.000000794036231
 Root     14 :     9.786680773105662   Change is   -0.000000497565826
 Root     15 :     9.859178215334067   Change is   -0.000002292398092
 Convergence achieved on expansion vectors.
 ***********************************************************************
 Excited states from <AA,BB:AA,BB> singles matrix:
 ***********************************************************************
 
 1PDM for each excited state written to RWF  633
 Ground to excited state transition densities written to RWF  633
 Ground to excited state transition electric dipole moments (Au):
       state          X           Y           Z        Dip. S.      Osc.
         1         1.5888     -0.4382      0.0218      2.7168      0.3515
         2        -0.0610      0.0350      0.0057      0.0050      0.0007
         3        -0.0337      0.0151      0.0654      0.0056      0.0009
         4        -0.0072      0.0109      0.0038      0.0002      0.0000
         5        -0.0033     -0.0119      0.0813      0.0068      0.0013
         6         0.0254     -0.0061     -0.2425      0.0595      0.0119
         7        -0.0258     -0.0178     -0.0138      0.0012      0.0002
         8        -0.4758      0.2381     -0.0634      0.2871      0.0621
         9         0.0671     -0.0374     -0.0940      0.0147      0.0032
        10        -0.7907     -0.2094     -0.0114      0.6693      0.1492
        11         0.0128      0.0213      0.2274      0.0523      0.0122
        12        -0.0854     -0.1161     -0.4941      0.2650      0.0631
        13         0.2152      0.3486      0.1536      0.1914      0.0458
        14         0.0648     -0.0090     -0.2536      0.0686      0.0164
        15        -0.1486     -0.8397      0.1380      0.7462      0.1802
 Ground to excited state transition velocity dipole moments (Au):
       state          X           Y           Z        Dip. S.      Osc.
         1        -0.1616      0.0420     -0.0108      0.0280      0.0962
         2         0.0090     -0.0074     -0.0945      0.0091      0.0297
         3         0.0077     -0.0014     -0.1331      0.0178      0.0513
         4         0.0039     -0.0031     -0.0036      0.0000      0.0001
         5         0.0004      0.0001     -0.0360      0.0013      0.0030
         6         0.0013      0.0037      0.0811      0.0066      0.0147
         7        -0.0019      0.0025     -0.0380      0.0015      0.0031
         8         0.0572     -0.1212      0.0043      0.0180      0.0370
         9        -0.0094      0.0182      0.0103      0.0005      0.0011
        10         0.1393      0.0534     -0.0043      0.0223      0.0444
        11        -0.0012     -0.0016      0.0300      0.0009      0.0017
        12         0.0205      0.0529     -0.0949      0.0122      0.0228
        13        -0.0633     -0.1362     -0.0647      0.0267      0.0497
        14        -0.0429     -0.0710      0.0353      0.0081      0.0151
        15         0.0306      0.1951     -0.0066      0.0390      0.0718
 Ground to excited state transition magnetic dipole moments (Au):
       state          X           Y           Z
         1        -0.0021     -0.0185      0.5178
         2        -0.0344     -0.3153     -0.0230
         3         0.0269      0.2048      0.0013
         4         0.2121      0.8701     -0.0114
         5        -0.0377      0.6243     -0.0037
         6         0.9698     -0.0465     -0.0112
         7         0.3991     -0.1585     -0.0031
         8         0.0511     -0.0222     -0.1045
         9         0.0312      0.0869      0.0081
        10        -0.0053      0.0027     -0.1543
        11        -0.0435      0.0457      0.0151
        12        -0.0063     -0.1591     -0.0427
        13         0.0429     -0.3237      0.0473
        14        -0.0914      0.1894      0.1301
        15        -0.0034     -0.1147      0.0776
 Ground to excited state transition velocity quadrupole moments (Au):
       state          XX          YY          ZZ          XY          XZ          YZ
         1        -0.1415      0.1363     -0.0001     -0.2329      0.0066     -0.0165
         2         0.0032     -0.0212     -0.0002      0.0183      0.1945     -0.1109
         3         0.0158     -0.0045     -0.0031      0.0107     -0.1808     -0.0434
         4         0.0043     -0.0094      0.0014      0.0057      0.2112     -0.0576
         5         0.0017      0.0047     -0.0047     -0.0066     -0.3764      0.0501
         6        -0.0010      0.0175     -0.0053      0.0044     -0.0879      0.1305
         7        -0.0041     -0.0045      0.0064      0.0088     -0.0075     -0.2650
         8        -0.0380     -0.3735      0.0111     -0.0729     -0.0318     -0.0013
         9        -0.0031      0.0470      0.0123      0.0018     -0.2451      0.0687
        10        -0.2607      0.1228     -0.1039      0.2215      0.0058      0.0240
        11         0.0052     -0.0158      0.0024     -0.0047     -0.0069     -0.0135
        12         0.0325     -0.0198      0.0278     -0.0208      0.1304      0.0180
        13        -0.1194      0.0749     -0.1012      0.0519      0.2002      0.1032
        14        -0.2427     -0.0268     -0.1072      0.0987     -0.1091     -0.0959
        15        -0.3616     -0.2557     -0.0095      0.0538      0.0696      0.0239
 <0|del|b> * <b|rxdel|0> + <0|del|b> * <b|delr+rdel|0>
 Rotatory Strengths (R) in cgs (10**-40 erg-esu-cm/Gauss)
       state          XX          YY          ZZ    R(velocity)    E-M Angle
         1        -7.5279     -9.2921     -5.1441     -7.3214       93.99
         2         7.3016      4.4965      2.7386      4.8456       82.05
         3        -3.2627      1.7149      0.7768     -0.2570       90.52
         4        -2.7981      0.9003     -3.2154     -1.7044      109.85
         5         0.5257     -0.1232     -0.0298      0.1242       89.62
         6        -0.4688      0.1961      0.7105      0.1459       89.87
         7        -0.6749      0.2186     -1.9575     -0.8046       93.68
         8        -2.1059      2.9565     10.4112      3.7539       71.02
         9         6.6735     -0.9516     -2.7440      0.9926       49.87
        10        -0.4774      4.4430     -3.8266      0.0463       90.00
        11         0.2287      0.6704     -0.0264      0.2909       77.22
        12        -9.2170      2.2904     -1.9991     -2.9752      104.31
        13        64.0389     -8.8236     20.3474     25.1876       44.76
        14       -12.8795      8.9852     -5.7928     -3.2291      102.77
        15       -35.9329      0.4600     -9.3987    -14.9572      147.15
 1/2[<0|r|b>*<b|rxdel|0> + (<0|rxdel|b>*<b|r|0>)*]
 Rotatory Strengths (R) in cgs (10**-40 erg-esu-cm/Gauss)
       state          XX          YY          ZZ     R(length)
         1         2.4059     -5.7206     -7.9871     -3.7673
         2        -1.4866      7.7959      0.0920      2.1338
         3         0.6421     -2.1896     -0.0599     -0.5358
         4         1.0776     -6.7054      0.0306     -1.8658
         5        -0.0879      5.2653      0.2122      1.7965
         6       -17.3990     -0.2007     -1.9214     -6.5070
         7         7.2908     -1.9906     -0.0307      1.7565
         8        17.1919      3.7377     -4.6864      5.4144
         9        -1.4816      2.2950      0.5410      0.4515
        10        -2.9503      0.4009     -1.2392     -1.2629
        11         0.3940     -0.6871     -2.4240     -0.9057
        12        -0.3810    -13.0671    -14.9042     -9.4508
        13        -6.5249     79.7895     -5.1351     22.7099
        14         4.1842      1.2003     23.3345      9.5730
        15        -0.3585    -68.1132     -7.5655    -25.3457
  1/2[<0|del|b>*<b|r|0> + (<0|r|b>*<b|del|0>)*] (Au)
       state          X           Y           Z        Dip. S.   Osc.(frdel)
         1        -0.2568     -0.0184     -0.0002      0.2754      0.1836
         2        -0.0005     -0.0003     -0.0005      0.0013      0.0009
         3        -0.0003      0.0000     -0.0087      0.0090      0.0060
         4         0.0000      0.0000      0.0000      0.0001      0.0001
         5         0.0000      0.0000     -0.0029      0.0029      0.0020
         6         0.0000      0.0000     -0.0197      0.0197      0.0131
         7         0.0001      0.0000      0.0005     -0.0005     -0.0004
         8        -0.0272     -0.0289     -0.0003      0.0564      0.0376
         9        -0.0006     -0.0007     -0.0010      0.0023      0.0015
        10        -0.1101     -0.0112      0.0000      0.1213      0.0808
        11         0.0000      0.0000      0.0068     -0.0068     -0.0045
        12        -0.0017     -0.0061      0.0469     -0.0390     -0.0260
        13        -0.0136     -0.0475     -0.0099      0.0710      0.0474
        14        -0.0028      0.0006     -0.0090      0.0111      0.0074
        15        -0.0045     -0.1638     -0.0009      0.1693      0.1128

 Excitation energies and oscillator strengths:
 
 Excited State   1:      Singlet-A      5.2805 eV  234.79 nm  f=0.3515  <S**2>=0.000
      13 -> 14         0.69693
 This state for optimization and/or second-order correction.
 Total Energy, E(CIS) =   2.36959997513    
 Copying the excited state density for this state as the 1-particle RhoCI density.
 
 Excited State   2:      Singlet-A      5.5446 eV  223.61 nm  f=0.0007  <S**2>=0.000
      13 -> 15         0.68726
 
 Excited State   3:      Singlet-A      6.2801 eV  197.42 nm  f=0.0009  <S**2>=0.000
      11 -> 16        -0.10039
      13 -> 16         0.67586
      13 -> 18        -0.11550
 
 Excited State   4:      Singlet-A      7.0348 eV  176.24 nm  f=0.0000  <S**2>=0.000
      12 -> 14         0.70159
 
 Excited State   5:      Singlet-A      7.7959 eV  159.04 nm  f=0.0013  <S**2>=0.000
      13 -> 17        -0.36566
      13 -> 18         0.48342
      13 -> 19        -0.17079
      13 -> 20         0.12221
      13 -> 22         0.25482
 
 Excited State   6:      Singlet-A      8.1527 eV  152.08 nm  f=0.0119  <S**2>=0.000
      10 -> 14         0.31529
      11 -> 14        -0.11849
      13 -> 16         0.10472
      13 -> 17         0.49720
      13 -> 18         0.32893
 
 Excited State   7:      Singlet-A      8.3814 eV  147.93 nm  f=0.0002  <S**2>=0.000
      10 -> 14         0.57667
      11 -> 14        -0.20870
      13 -> 17        -0.28783
      13 -> 18        -0.15883
 
 Excited State   8:      Singlet-A      8.8226 eV  140.53 nm  f=0.0621  <S**2>=0.000
       9 -> 15         0.16625
      10 -> 14         0.17675
      11 -> 14         0.43867
      12 -> 15         0.41915
      13 -> 19         0.16735
      13 -> 20         0.13180
 
 Excited State   9:      Singlet-A      8.8518 eV  140.07 nm  f=0.0032  <S**2>=0.000
      13 -> 17        -0.11091
      13 -> 18         0.19802
      13 -> 19         0.53076
      13 -> 20        -0.37991
 
 Excited State  10:      Singlet-A      9.0995 eV  136.25 nm  f=0.1492  <S**2>=0.000
       9 -> 15         0.10995
       9 -> 16         0.11296
      10 -> 14        -0.11772
      11 -> 14        -0.34593
      12 -> 15         0.44286
      12 -> 16        -0.21646
      12 -> 18         0.10310
      13 -> 19        -0.11776
      13 -> 20        -0.20403
 
 Excited State  11:      Singlet-A      9.5031 eV  130.47 nm  f=0.0122  <S**2>=0.000
      11 -> 15        -0.11499
      13 -> 18        -0.25358
      13 -> 21        -0.31914
      13 -> 22         0.54735
 
 Excited State  12:      Singlet-A      9.7145 eV  127.63 nm  f=0.0631  <S**2>=0.000
      11 -> 15         0.39750
      13 -> 19         0.10425
      13 -> 20         0.12619
      13 -> 21         0.41073
      13 -> 22         0.31169
 
 Excited State  13:      Singlet-A      9.7571 eV  127.07 nm  f=0.0458  <S**2>=0.000
      10 -> 15         0.21068
      11 -> 14         0.15461
      11 -> 15         0.37285
      12 -> 16         0.16477
      13 -> 19        -0.28164
      13 -> 20        -0.31859
      13 -> 21        -0.18402
 
 Excited State  14:      Singlet-A      9.7867 eV  126.69 nm  f=0.0164  <S**2>=0.000
      10 -> 17        -0.10599
      11 -> 15        -0.32621
      12 -> 15         0.11814
      12 -> 16         0.29266
      12 -> 18        -0.14192
      13 -> 19        -0.10263
      13 -> 20        -0.23397
      13 -> 21         0.36007
      13 -> 22         0.12579
 
 Excited State  15:      Singlet-A      9.8592 eV  125.76 nm  f=0.1802  <S**2>=0.000
      10 -> 15         0.13907
      11 -> 14        -0.28404
      12 -> 15         0.18731
      12 -> 16         0.36321
      12 -> 18        -0.16244
      13 -> 19         0.16605
      13 -> 20         0.29407
      13 -> 21        -0.17246
 SavETr:  write IOETrn=   770 NScale= 10 NData=  16 NLR=1 NState=   15 LETran=     280.
 The selected state is a singlet
 CISAX will form     1 AO SS matrices at one time.
 NMat=     1 NSing=     1 JSym2X= 0.
 Leave Link  914 at Tue Dec 15 17:09:20 2015, MaxMem=    33554432 cpu:         0.1
 (Enter /home/Applications/g09/g09/l1002.exe)
 Minotr:  Closed shell wavefunction.
          Computing CIS/TD-HF/TD-KS derivatives.
          Using Z-Vector for PSCF gradient.
          Skipping F1 and S1 gradient terms here.
          IDoAtm=111111111
          Direct CPHF calculation.
          Differentiating once with respect to electric field.
                with respect to dipole field.
          Differentiating once with respect to nuclear coordinates.
          Electric field/nuclear overlap derivatives assumed to be zero.
          Requested convergence is 1.0D-10 RMS, and 1.0D-09 maximum.
          NewPWx=T KeepS1=F KeepF1=F KeepIn=T MapXYZ=F SortEE=F KeepMc=T.
          MDV=      33495423 using IRadAn=       0.
 Keep J ints in memory in canonical form, NReq=871704.
 FoFCou: FMM=F IPFlag=           0 FMFlag=           0 FMFlg1=           0
         NFxFlg=           0 DoJE=F BraDBF=F KetDBF=F FulRan=T
         wScrn=  0.000000 ICntrl=     600 IOpCl=  2 I1Cent=           0 NGrid=           0
         NMat0=    1 NMatS0=     54 NMatT0=    0 NMatD0=    1 NMtDS0=    0 NMtDT0=    0
 Symmetry not used in FoFCou.
          Solving linear equations separately, MaxMat=       0.
          There are     1 degrees of freedom in the 1st order CPHF.  IDoFFX=0 NUNeed=     1.
 LinEq1:  Iter=  0 NonCon=     1 RMS=7.19D-03 Max=4.47D-02 NDo=     1
 AX will form     1 AO Fock derivatives at one time.
 LinEq1:  Iter=  1 NonCon=     1 RMS=5.68D-04 Max=1.94D-03 NDo=     1
 LinEq1:  Iter=  2 NonCon=     1 RMS=6.67D-05 Max=2.09D-04 NDo=     1
 LinEq1:  Iter=  3 NonCon=     1 RMS=7.39D-06 Max=3.49D-05 NDo=     1
 LinEq1:  Iter=  4 NonCon=     1 RMS=9.30D-07 Max=3.43D-06 NDo=     1
 LinEq1:  Iter=  5 NonCon=     1 RMS=1.47D-07 Max=1.12D-06 NDo=     1
 LinEq1:  Iter=  6 NonCon=     1 RMS=2.08D-08 Max=7.83D-08 NDo=     1
 LinEq1:  Iter=  7 NonCon=     1 RMS=2.99D-09 Max=1.58D-08 NDo=     1
 LinEq1:  Iter=  8 NonCon=     1 RMS=3.56D-10 Max=1.27D-09 NDo=     1
 LinEq1:  Iter=  9 NonCon=     0 RMS=5.34D-11 Max=2.44D-10 NDo=     1
 Linear equations converged to 1.000D-10 1.000D-09 after     9 iterations.
 End of Minotr F.D. properties file   721 does not exist.
 End of Minotr F.D. properties file   722 does not exist.
 End of Minotr F.D. properties file   788 does not exist.
 Leave Link 1002 at Tue Dec 15 17:09:20 2015, MaxMem=    33554432 cpu:         0.0
 (Enter /home/Applications/g09/g09/l601.exe)
 Copying SCF densities to generalized density rwf, IOpCl= 0 IROHF=0.

 **********************************************************************

            Population analysis using the SCF density.

 **********************************************************************

 Orbital symmetries:
       Occupied  (A) (A) (A) (A) (A) (A) (A) (A) (A) (A) (A) (A)
                 (A)
       Virtual   (A) (A) (A) (A) (A) (A) (A) (A) (A) (A) (A)
 The electronic state is 1-A.
 Alpha  occ. eigenvalues --   -1.93400  -1.20069  -0.93183  -0.80356  -0.77941
 Alpha  occ. eigenvalues --   -0.69486  -0.65849  -0.53303  -0.52062  -0.44088
 Alpha  occ. eigenvalues --   -0.43661  -0.39764  -0.26619
 Alpha virt. eigenvalues --    0.13071   0.15913   0.19278   0.27927   0.29082
 Alpha virt. eigenvalues --    0.31128   0.31279   0.32981   0.34579   0.40432
 Alpha virt. eigenvalues --    0.43051
     Molecular Orbital Coefficients:
                           1         2         3         4         5
                           O         O         O         O         O
     Eigenvalues --    -1.93400  -1.20069  -0.93183  -0.80356  -0.77941
   1 1   C  1S          0.07251   0.45290   0.29934  -0.14724  -0.26601
   2        1PX        -0.07616  -0.20382   0.18382  -0.18161   0.00128
   3        1PY        -0.07903  -0.07626  -0.19886   0.12812  -0.34911
   4        1PZ        -0.00074  -0.00183   0.00057   0.00503   0.01137
   5 2   C  1S          0.21940   0.24591   0.48002   0.07502   0.43426
   6        1PX        -0.24276  -0.07403   0.11277  -0.22149  -0.03550
   7        1PY        -0.05720   0.30417   0.03280  -0.36708  -0.31893
   8        1PZ        -0.00185   0.00136   0.00589  -0.00083   0.01457
   9 3   O  1S          0.85393  -0.27147  -0.00571   0.11450  -0.23730
  10        1PX         0.01061   0.04328   0.14874   0.26816   0.14453
  11        1PY         0.04544   0.13754  -0.03720  -0.14933   0.09941
  12        1PZ         0.00113   0.00148   0.00315  -0.00360   0.00625
  13 4   C  1S          0.23040   0.27001  -0.46197  -0.34194   0.27947
  14        1PX         0.17084   0.23526   0.11280   0.07980  -0.10375
  15        1PY        -0.19049   0.24068  -0.08088   0.52506   0.06852
  16        1PZ        -0.01007  -0.00727   0.02370   0.02273  -0.00238
  17 5   C  1S          0.07267   0.47673  -0.28918   0.26951  -0.09385
  18        1PX         0.02287   0.11773   0.27020  -0.06450  -0.30572
  19        1PY        -0.10918  -0.17393   0.05407   0.19547  -0.23138
  20        1PZ        -0.00039   0.00395   0.00141   0.00946   0.00714
  21 6   H  1S          0.00329   0.14323  -0.15827   0.22835  -0.10113
  22 7   H  1S          0.05143   0.02249  -0.25145  -0.23168   0.18167
  23 8   H  1S          0.04404   0.02958   0.25731   0.04444   0.28958
  24 9   H  1S          0.00252   0.12260   0.14825  -0.09878  -0.22765
                           6         7         8         9        10
                           O         O         O         O         O
     Eigenvalues --    -0.69486  -0.65849  -0.53303  -0.52062  -0.44088
   1 1   C  1S          0.19526   0.01519  -0.06440  -0.15364  -0.10464
   2        1PX         0.25177   0.01711   0.13875  -0.03574  -0.22197
   3        1PY         0.09156   0.01743  -0.36578   0.06940  -0.39092
   4        1PZ        -0.03133   0.39145   0.00549  -0.00659   0.07794
   5 2   C  1S          0.11035  -0.01251  -0.13223  -0.12942   0.10620
   6        1PX         0.45164   0.05461   0.21731   0.54728   0.05512
   7        1PY        -0.06516  -0.00068   0.44530  -0.20780   0.29862
   8        1PZ        -0.03268   0.53691  -0.01065   0.01176   0.21140
   9 3   O  1S          0.19384   0.02131   0.24270   0.00606  -0.00051
  10        1PX        -0.07376  -0.02223  -0.04839  -0.19455  -0.08005
  11        1PY        -0.19809  -0.01903  -0.14595   0.05961   0.03432
  12        1PZ        -0.02354   0.21521  -0.01348  -0.00325   0.00423
  13 4   C  1S          0.09249   0.03334  -0.10785   0.11527  -0.12476
  14        1PX        -0.40556  -0.01152   0.04615   0.56224  -0.06152
  15        1PY         0.15011  -0.00342   0.48738  -0.11894  -0.25683
  16        1PZ        -0.05548   0.57903   0.00731  -0.05514  -0.19510
  17 5   C  1S          0.18661   0.02001  -0.07674   0.13595   0.08766
  18        1PX        -0.15419  -0.01082  -0.30694  -0.03244  -0.03101
  19        1PY         0.21906   0.02007  -0.27086  -0.05088   0.45414
  20        1PZ        -0.03408   0.40920   0.01357  -0.02560  -0.08214
  21 6   H  1S          0.24894   0.02436  -0.14839   0.05412   0.37596
  22 7   H  1S          0.27177   0.01090  -0.14003  -0.31682  -0.00321
  23 8   H  1S          0.28660   0.03215  -0.12835   0.30099  -0.01717
  24 9   H  1S          0.24593   0.01597  -0.11758  -0.07718  -0.37208
                          11        12        13        14        15
                           O         O         O         V         V
     Eigenvalues --    -0.43661  -0.39764  -0.26619   0.13071   0.15913
   1 1   C  1S          0.04231  -0.04970   0.00508  -0.01347  -0.08953
   2        1PX         0.05698   0.53822   0.00379  -0.00596   0.11959
   3        1PY         0.12394  -0.00022   0.00746  -0.00614  -0.03039
   4        1PZ         0.23484   0.00571   0.58343  -0.66359   0.02636
   5 2   C  1S         -0.03954   0.07824   0.00823  -0.00600  -0.03527
   6        1PX        -0.04577  -0.26257   0.00415  -0.00438   0.06885
   7        1PY        -0.08131   0.05881  -0.00413   0.00853  -0.00142
   8        1PZ         0.65399   0.02163  -0.36600   0.23603  -0.01139
   9 3   O  1S          0.00563  -0.08796  -0.00370   0.00097   0.01005
  10        1PX         0.03259   0.05764  -0.00071   0.00022   0.07353
  11        1PY        -0.01869   0.18672   0.01057   0.00991   0.06815
  12        1PZ         0.00415   0.00916  -0.23774  -0.00846   0.00946
  13 4   C  1S          0.00141   0.10445  -0.00483  -0.01225  -0.21746
  14        1PX        -0.00537   0.27988   0.00818   0.02456   0.50146
  15        1PY         0.10537  -0.07716  -0.00298   0.01498   0.16293
  16        1PZ        -0.61026  -0.02172  -0.37219  -0.23674   0.02760
  17 5   C  1S         -0.03575  -0.05345  -0.01000  -0.01910  -0.07676
  18        1PX         0.02801  -0.45843   0.01076   0.01106   0.13398
  19        1PY        -0.15321   0.23020   0.01802   0.02344   0.12739
  20        1PZ        -0.21121  -0.00798   0.57405   0.66612  -0.03949
  21 6   H  1S         -0.13742   0.26472   0.00346   0.00067  -0.00005
  22 7   H  1S          0.01733  -0.17992   0.00746   0.03804   0.76724
  23 8   H  1S         -0.00001  -0.15012  -0.00309   0.01215  -0.04820
  24 9   H  1S          0.11015   0.30997  -0.00611   0.00392  -0.03207
                          16        17        18        19        20
                           V         V         V         V         V
     Eigenvalues --     0.19278   0.27927   0.29082   0.31128   0.31279
   1 1   C  1S         -0.11760  -0.06853   0.00858   0.25227  -0.14215
   2        1PX        -0.06532  -0.37481   0.44450  -0.06362   0.07090
   3        1PY         0.26263  -0.35365  -0.16357   0.34270  -0.26663
   4        1PZ         0.00996   0.01261  -0.00556   0.01901   0.04602
   5 2   C  1S         -0.17816  -0.21928  -0.24863   0.14087  -0.13958
   6        1PX        -0.30171  -0.05288  -0.14551   0.03502  -0.05285
   7        1PY         0.41721  -0.10948  -0.07239   0.02735  -0.02761
   8        1PZ        -0.01580  -0.00393   0.00324  -0.12109  -0.17982
   9 3   O  1S          0.01769  -0.02770  -0.01370  -0.01463   0.00423
  10        1PX        -0.00178  -0.04410   0.05239  -0.04773   0.03605
  11        1PY         0.13932  -0.04298  -0.04253  -0.05587  -0.02275
  12        1PZ        -0.01340  -0.01047  -0.02525   0.53882   0.77277
  13 4   C  1S         -0.04472  -0.29409   0.00341  -0.26679   0.16269
  14        1PX        -0.00645  -0.00048  -0.06984   0.03298  -0.02302
  15        1PY         0.06662  -0.17556  -0.00665  -0.16284   0.09647
  16        1PZ         0.01151   0.00408   0.00359  -0.12657  -0.18570
  17 5   C  1S         -0.10091  -0.01581  -0.00379  -0.08580   0.09701
  18        1PX        -0.10392  -0.18610   0.40557  -0.35674   0.23357
  19        1PY         0.07098  -0.28462  -0.39179  -0.30967   0.20932
  20        1PZ        -0.01314   0.00671   0.00474   0.04270   0.04212
  21 6   H  1S         -0.06609   0.24803   0.52322   0.20689  -0.16501
  22 7   H  1S          0.03223   0.10289  -0.03161   0.09062  -0.05951
  23 8   H  1S          0.74644   0.10798   0.16238  -0.06041   0.07531
  24 9   H  1S         -0.02147   0.58738  -0.24051  -0.28332   0.17431
                          21        22        23        24
                           V         V         V         V
     Eigenvalues --     0.32981   0.34579   0.40432   0.43051
   1 1   C  1S          0.44418  -0.45005   0.11714  -0.04504
   2        1PX         0.17266   0.24746   0.03459  -0.03836
   3        1PY        -0.26103   0.10264  -0.05073   0.05505
   4        1PZ        -0.00961  -0.00213   0.00011  -0.00164
   5 2   C  1S         -0.32979   0.23990  -0.18487  -0.13574
   6        1PX        -0.20872  -0.01819   0.20412   0.18821
   7        1PY        -0.23358   0.18042  -0.09107   0.18279
   8        1PZ         0.01283   0.00461  -0.00102   0.00603
   9 3   O  1S         -0.06009  -0.01509   0.13210  -0.00336
  10        1PX        -0.05743  -0.08946   0.27008   0.85338
  11        1PY        -0.21083  -0.03791   0.82988  -0.28011
  12        1PZ        -0.08043  -0.01268   0.02704  -0.01672
  13 4   C  1S         -0.12816  -0.30971  -0.19903   0.13763
  14        1PX         0.06925  -0.08527  -0.21576   0.05762
  15        1PY        -0.18974  -0.24091   0.02315  -0.26294
  16        1PZ         0.01654   0.00401   0.00377  -0.00728
  17 5   C  1S          0.32208   0.60954   0.13959   0.05134
  18        1PX        -0.25297   0.05802  -0.05070  -0.06372
  19        1PY         0.12399  -0.20704  -0.02569  -0.02895
  20        1PZ         0.00480   0.01648   0.00431   0.00396
  21 6   H  1S         -0.34854  -0.19630  -0.06662  -0.00948
  22 7   H  1S          0.05833   0.04410  -0.02009   0.00258
  23 8   H  1S          0.15030  -0.03393  -0.03647  -0.00157
  24 9   H  1S         -0.22738   0.06689  -0.05409   0.00832
     Density Matrix:
                           1         2         3         4         5
   1 1   C  1S          0.94753
   2        1PX         0.05694   1.08108
   3        1PY         0.10289   0.05031   1.01086
   4        1PZ         0.00094   0.00161   0.00246   1.11218
   5 2   C  1S          0.35506   0.07700  -0.54128   0.00198   1.19767
   6        1PX         0.04197   0.12713  -0.07983  -0.00370  -0.22524
   7        1PY         0.47039   0.05632  -0.54204   0.00345  -0.17544
   8        1PZ         0.00352   0.00155   0.00087   0.33574  -0.01229
   9 3   O  1S          0.01956   0.00770  -0.03496  -0.00014   0.00890
  10        1PX         0.02424   0.00226  -0.03489  -0.00211   0.37135
  11        1PY        -0.00469   0.01638  -0.07431   0.00630   0.13389
  12        1PZ        -0.00265   0.00037  -0.00017  -0.10475   0.00105
  13 4   C  1S         -0.01519  -0.01261   0.03416  -0.00456  -0.01028
  14        1PX        -0.01565  -0.01366   0.00152   0.00759   0.00517
  15        1PY         0.05349  -0.02720  -0.00651   0.00609  -0.04447
  16        1PZ         0.00020  -0.00634  -0.00650  -0.29373  -0.00100
  17 5   C  1S          0.26524  -0.44682   0.19775  -0.01568  -0.01364
  18        1PX         0.49686  -0.56680   0.29088   0.00614   0.02759
  19        1PY        -0.06950   0.10415   0.07295   0.01972   0.02436
  20        1PZ         0.00897   0.00614   0.01130   0.88096   0.00349
  21 6   H  1S          0.00588  -0.01672   0.00414   0.00154   0.07814
  22 7   H  1S          0.09082  -0.09403   0.01785   0.00979   0.06391
  23 8   H  1S          0.07551  -0.00529  -0.10189   0.00099   0.53037
  24 9   H  1S          0.54208   0.64806   0.49446  -0.01949   0.05681
                           6         7         8         9        10
   6        1PX         1.51048
   7        1PY         0.09198   1.35662
   8        1PZ        -0.01222   0.00737   1.79333
   9 3   O  1S         -0.07444  -0.01910   0.00017   1.95420
  10        1PX        -0.45218  -0.25311  -0.00519  -0.07934   0.34765
  11        1PY        -0.26339   0.03875  -0.00966  -0.25892  -0.01376
  12        1PZ        -0.01276  -0.00335   0.41471  -0.00905  -0.00158
  13 4   C  1S         -0.02669  -0.03810  -0.00494   0.00934  -0.22920
  14        1PX        -0.00565  -0.00414  -0.00235   0.05246  -0.05079
  15        1PY         0.02055   0.01807   0.00297  -0.05912   0.31034
  16        1PZ         0.00003   0.00222   0.01496  -0.00125   0.01038
  17 5   C  1S          0.04332   0.02751   0.00387   0.02142  -0.02221
  18        1PX         0.00816   0.01223  -0.00533  -0.02634  -0.01242
  19        1PY        -0.00920  -0.01127  -0.00631  -0.02722  -0.00672
  20        1PZ         0.00625  -0.00273  -0.29057   0.00133   0.00102
  21 6   H  1S         -0.01517   0.06410  -0.00236   0.00759  -0.02452
  22 7   H  1S         -0.06364  -0.00892   0.00012   0.00503  -0.06636
  23 8   H  1S          0.60501  -0.49218   0.02541   0.00923   0.02462
  24 9   H  1S         -0.05165  -0.00658   0.00200   0.00662   0.04290
                          11        12        13        14        15
  11        1PY         0.31102
  12        1PZ         0.00580   0.20753
  13 4   C  1S          0.32488   0.01968   1.19104
  14        1PX         0.34273   0.00983   0.10659   1.35891
  15        1PY        -0.35452  -0.02534  -0.26057  -0.12372   1.47678
  16        1PZ        -0.02727   0.42177   0.01273  -0.01475  -0.00315
  17 5   C  1S          0.01120   0.00187   0.37205   0.19987   0.42321
  18        1PX        -0.05407  -0.00371  -0.36087  -0.01511  -0.35055
  19        1PY        -0.05747  -0.00055  -0.43447  -0.21317  -0.36480
  20        1PZ         0.00186  -0.09798   0.02302   0.01006   0.01451
  21 6   H  1S          0.04326   0.00418   0.06564   0.03839  -0.02668
  22 7   H  1S         -0.03800  -0.00646   0.49951  -0.79350  -0.13308
  23 8   H  1S         -0.06143   0.00553   0.05518   0.04544  -0.03670
  24 9   H  1S          0.02022   0.00448   0.08279   0.04398   0.04316
                          16        17        18        19        20
  16        1PZ         1.78434
  17 5   C  1S         -0.00385   0.93826
  18        1PX         0.00264   0.00359   1.03240
  19        1PY         0.00425   0.11173  -0.04631   1.08845
  20        1PZ         0.34398  -0.00866   0.00401   0.00313   1.10111
  21 6   H  1S          0.00061   0.54939  -0.28265   0.75893  -0.00423
  22 7   H  1S         -0.02696   0.06986  -0.02066  -0.08408   0.00511
  23 8   H  1S         -0.00259   0.07827   0.07407  -0.02778  -0.00454
  24 9   H  1S          0.00160   0.00437   0.00695  -0.00971  -0.00404
                          21        22        23        24
  21 6   H  1S          0.85157
  22 7   H  1S         -0.01546   0.75952
  23 8   H  1S          0.01156   0.01687   0.73587
  24 9   H  1S         -0.00708   0.00472  -0.01139   0.85163
    Full Mulliken population analysis:
                           1         2         3         4         5
   1 1   C  1S          0.94753
   2        1PX         0.00000   1.08108
   3        1PY         0.00000   0.00000   1.01086
   4        1PZ         0.00000   0.00000   0.00000   1.11218
   5 2   C  1S          0.00000   0.00000   0.00000   0.00000   1.19767
   6        1PX         0.00000   0.00000   0.00000   0.00000   0.00000
   7        1PY         0.00000   0.00000   0.00000   0.00000   0.00000
   8        1PZ         0.00000   0.00000   0.00000   0.00000   0.00000
   9 3   O  1S          0.00000   0.00000   0.00000   0.00000   0.00000
  10        1PX         0.00000   0.00000   0.00000   0.00000   0.00000
  11        1PY         0.00000   0.00000   0.00000   0.00000   0.00000
  12        1PZ         0.00000   0.00000   0.00000   0.00000   0.00000
  13 4   C  1S          0.00000   0.00000   0.00000   0.00000   0.00000
  14        1PX         0.00000   0.00000   0.00000   0.00000   0.00000
  15        1PY         0.00000   0.00000   0.00000   0.00000   0.00000
  16        1PZ         0.00000   0.00000   0.00000   0.00000   0.00000
  17 5   C  1S          0.00000   0.00000   0.00000   0.00000   0.00000
  18        1PX         0.00000   0.00000   0.00000   0.00000   0.00000
  19        1PY         0.00000   0.00000   0.00000   0.00000   0.00000
  20        1PZ         0.00000   0.00000   0.00000   0.00000   0.00000
  21 6   H  1S          0.00000   0.00000   0.00000   0.00000   0.00000
  22 7   H  1S          0.00000   0.00000   0.00000   0.00000   0.00000
  23 8   H  1S          0.00000   0.00000   0.00000   0.00000   0.00000
  24 9   H  1S          0.00000   0.00000   0.00000   0.00000   0.00000
                           6         7         8         9        10
   6        1PX         1.51048
   7        1PY         0.00000   1.35662
   8        1PZ         0.00000   0.00000   1.79333
   9 3   O  1S          0.00000   0.00000   0.00000   1.95420
  10        1PX         0.00000   0.00000   0.00000   0.00000   0.34765
  11        1PY         0.00000   0.00000   0.00000   0.00000   0.00000
  12        1PZ         0.00000   0.00000   0.00000   0.00000   0.00000
  13 4   C  1S          0.00000   0.00000   0.00000   0.00000   0.00000
  14        1PX         0.00000   0.00000   0.00000   0.00000   0.00000
  15        1PY         0.00000   0.00000   0.00000   0.00000   0.00000
  16        1PZ         0.00000   0.00000   0.00000   0.00000   0.00000
  17 5   C  1S          0.00000   0.00000   0.00000   0.00000   0.00000
  18        1PX         0.00000   0.00000   0.00000   0.00000   0.00000
  19        1PY         0.00000   0.00000   0.00000   0.00000   0.00000
  20        1PZ         0.00000   0.00000   0.00000   0.00000   0.00000
  21 6   H  1S          0.00000   0.00000   0.00000   0.00000   0.00000
  22 7   H  1S          0.00000   0.00000   0.00000   0.00000   0.00000
  23 8   H  1S          0.00000   0.00000   0.00000   0.00000   0.00000
  24 9   H  1S          0.00000   0.00000   0.00000   0.00000   0.00000
                          11        12        13        14        15
  11        1PY         0.31102
  12        1PZ         0.00000   0.20753
  13 4   C  1S          0.00000   0.00000   1.19104
  14        1PX         0.00000   0.00000   0.00000   1.35891
  15        1PY         0.00000   0.00000   0.00000   0.00000   1.47678
  16        1PZ         0.00000   0.00000   0.00000   0.00000   0.00000
  17 5   C  1S          0.00000   0.00000   0.00000   0.00000   0.00000
  18        1PX         0.00000   0.00000   0.00000   0.00000   0.00000
  19        1PY         0.00000   0.00000   0.00000   0.00000   0.00000
  20        1PZ         0.00000   0.00000   0.00000   0.00000   0.00000
  21 6   H  1S          0.00000   0.00000   0.00000   0.00000   0.00000
  22 7   H  1S          0.00000   0.00000   0.00000   0.00000   0.00000
  23 8   H  1S          0.00000   0.00000   0.00000   0.00000   0.00000
  24 9   H  1S          0.00000   0.00000   0.00000   0.00000   0.00000
                          16        17        18        19        20
  16        1PZ         1.78434
  17 5   C  1S          0.00000   0.93826
  18        1PX         0.00000   0.00000   1.03240
  19        1PY         0.00000   0.00000   0.00000   1.08845
  20        1PZ         0.00000   0.00000   0.00000   0.00000   1.10111
  21 6   H  1S          0.00000   0.00000   0.00000   0.00000   0.00000
  22 7   H  1S          0.00000   0.00000   0.00000   0.00000   0.00000
  23 8   H  1S          0.00000   0.00000   0.00000   0.00000   0.00000
  24 9   H  1S          0.00000   0.00000   0.00000   0.00000   0.00000
                          21        22        23        24
  21 6   H  1S          0.85157
  22 7   H  1S          0.00000   0.75952
  23 8   H  1S          0.00000   0.00000   0.73587
  24 9   H  1S          0.00000   0.00000   0.00000   0.85163
     Gross orbital populations:
                           1
   1 1   C  1S          0.94753
   2        1PX         1.08108
   3        1PY         1.01086
   4        1PZ         1.11218
   5 2   C  1S          1.19767
   6        1PX         1.51048
   7        1PY         1.35662
   8        1PZ         1.79333
   9 3   O  1S          1.95420
  10        1PX         0.34765
  11        1PY         0.31102
  12        1PZ         0.20753
  13 4   C  1S          1.19104
  14        1PX         1.35891
  15        1PY         1.47678
  16        1PZ         1.78434
  17 5   C  1S          0.93826
  18        1PX         1.03240
  19        1PY         1.08845
  20        1PZ         1.10111
  21 6   H  1S          0.85157
  22 7   H  1S          0.75952
  23 8   H  1S          0.73587
  24 9   H  1S          0.85163
          Condensed to atoms (all electrons):
               1          2          3          4          5          6
     1  C    4.151645   0.000000   0.000000   0.000000   0.000000   0.000000
     2  C    0.000000   5.858100   0.000000   0.000000   0.000000   0.000000
     3  O    0.000000   0.000000   2.820395   0.000000   0.000000   0.000000
     4  C    0.000000   0.000000   0.000000   5.811067   0.000000   0.000000
     5  C    0.000000   0.000000   0.000000   0.000000   4.160211   0.000000
     6  H    0.000000   0.000000   0.000000   0.000000   0.000000   0.851568
     7  H    0.000000   0.000000   0.000000   0.000000   0.000000   0.000000
     8  H    0.000000   0.000000   0.000000   0.000000   0.000000   0.000000
     9  H    0.000000   0.000000   0.000000   0.000000   0.000000   0.000000
               7          8          9
     1  C    0.000000   0.000000   0.000000
     2  C    0.000000   0.000000   0.000000
     3  O    0.000000   0.000000   0.000000
     4  C    0.000000   0.000000   0.000000
     5  C    0.000000   0.000000   0.000000
     6  H    0.000000   0.000000   0.000000
     7  H    0.759517   0.000000   0.000000
     8  H    0.000000   0.735871   0.000000
     9  H    0.000000   0.000000   0.851626
 Mulliken charges:
               1
     1  C   -0.151645
     2  C   -1.858100
     3  O    3.179605
     4  C   -1.811067
     5  C   -0.160211
     6  H    0.148432
     7  H    0.240483
     8  H    0.264129
     9  H    0.148374
 Sum of Mulliken charges =   0.00000
 Mulliken charges with hydrogens summed into heavy atoms:
               1
     1  C   -0.003271
     2  C   -1.593971
     3  O    3.179605
     4  C   -1.570584
     5  C   -0.011779
 Charge=              0.0000 electrons
 Dipole moment (field-independent basis, Debye):
    X=             -3.6180    Y=            -11.3215    Z=             -0.4523  Tot=             11.8942
 N-N= 1.042935892247D+02 E-N=-1.696937224854D+02  KE=-1.534675356262D+01
 Orbital energies and kinetic energies (alpha):
                                 1                 2
   1         O                -1.934003         -1.353095
   2         O                -1.200686         -1.072247
   3         O                -0.931828         -0.896762
   4         O                -0.803562         -0.572422
   5         O                -0.779409         -0.666252
   6         O                -0.694857         -0.587007
   7         O                -0.658492         -0.534377
   8         O                -0.533026         -0.325092
   9         O                -0.520623         -0.348080
  10         O                -0.440884         -0.419045
  11         O                -0.436606         -0.328430
  12         O                -0.397638         -0.337729
  13         O                -0.266194         -0.232839
  14         V                 0.130712         -0.149038
  15         V                 0.159129         -0.199976
  16         V                 0.192780         -0.181108
  17         V                 0.279273         -0.150960
  18         V                 0.290824         -0.127996
  19         V                 0.311280          0.094392
  20         V                 0.312789          0.289732
  21         V                 0.329809         -0.064664
  22         V                 0.345793         -0.073710
  23         V                 0.404323          0.474685
  24         V                 0.430512          0.554014
 Total kinetic energy from orbitals=-1.534675356262D+01
 Leave Link  601 at Tue Dec 15 17:09:20 2015, MaxMem=    33554432 cpu:         0.0
 (Enter /home/Applications/g09/g09/l701.exe)
 Compute integral first derivatives.
 ... and contract with generalized density number  6.
 Leave Link  701 at Tue Dec 15 17:09:20 2015, MaxMem=    33554432 cpu:         0.0
 (Enter /home/Applications/g09/g09/l702.exe)
 L702 exits ... SP integral derivatives will be done elsewhere.
 Leave Link  702 at Tue Dec 15 17:09:20 2015, MaxMem=    33554432 cpu:         0.0
 (Enter /home/Applications/g09/g09/l703.exe)
 Compute integral first derivatives, UseDBF=F ICtDFT=           0.
 Integral derivatives from FoFJK, PRISM(SPDF).
 Calling FoFJK, ICntrl=  10005127 FMM=F ISym2X=0 I1Cent= 0 IOpClX= 0 NMat=1 NMatS=1 NMatT=0.
 FoFJK:  IHMeth= 8 ICntrl=10005127 DoSepK=F KAlg= 0 I1Cent=   0 FoldK=F
 IRaf=         0 NMat=   1 IRICut=       1 DoRegI=T DoRafI=F ISym2E= 0.
 FoFCou: FMM=F IPFlag=           0 FMFlag=      100000 FMFlg1=         800
         NFxFlg=           0 DoJE=F BraDBF=F KetDBF=F FulRan=T
         wScrn=  0.000000 ICntrl=10005127 IOpCl=  0 I1Cent=           0 NGrid=           0
         NMat0=    1 NMatS0=      1 NMatT0=    0 NMatD0=    1 NMtDS0=    0 NMtDT0=    0
 Symmetry not used in FoFCou.
 Leave Link  703 at Tue Dec 15 17:09:20 2015, MaxMem=    33554432 cpu:         0.0
 (Enter /home/Applications/g09/g09/l716.exe)
 Dipole        =-1.51949263D+00-4.84504828D+00-1.77062191D-01
 ***** Axes restored to original set *****
 -------------------------------------------------------------------
 Center     Atomic                   Forces (Hartrees/Bohr)
 Number     Number              X              Y              Z
 -------------------------------------------------------------------
      1        6           0.191856831   -0.020435917   -0.002502655
      2        6          -0.283216332   -0.082805866   -0.007718071
      3        8           0.111352172   -0.036541805    0.008551641
      4        6          -0.362336970    0.174402594   -0.006383826
      5        6           0.210458176   -0.033087613    0.003440357
      6        1           0.088719598    0.061550291   -0.000636151
      7        1           0.015244916    0.037537806    0.003105345
      8        1          -0.010970222   -0.071050631    0.000763806
      9        1           0.038891830   -0.029568860    0.001379554
 -------------------------------------------------------------------
 Cartesian Forces:  Max     0.362336970 RMS     0.116457269
 Z-matrix is all fixed cartesians, so copy forces.
 Force constants in Cartesian coordinates: 
                1             2             3             4             5 
      1  0.957376D+00
      2 -0.181245D-01  0.740358D+00
      3  0.260434D-02  0.784794D-02  0.202857D+00
      4 -0.562518D+00 -0.104771D+00 -0.101857D-01  0.971660D+00
      5 -0.835123D-01 -0.216188D+00 -0.288854D-02  0.332323D-01  0.872471D+00
      6 -0.104354D-01 -0.216728D-02 -0.106113D+00  0.910374D-02 -0.992930D-02
      7 -0.740883D-02  0.291109D-01 -0.320940D-03 -0.276842D+00  0.151259D+00
      8 -0.570283D-02  0.224217D-01  0.281601D-03  0.195617D+00 -0.339499D+00
      9 -0.638075D-03  0.134499D-02  0.478885D-02 -0.304008D-02  0.127409D-02
     10  0.932263D-02 -0.994681D-04 -0.467589D-03  0.219442D-01  0.169148D-01
     11  0.357639D-01 -0.380275D-03 -0.253570D-02 -0.193742D-01 -0.149355D-01
     12 -0.168309D-03 -0.494439D-05 -0.173903D-03  0.328345D-03  0.249265D-03
     13 -0.159067D+00  0.971981D-02  0.673557D-03  0.884070D-02 -0.347227D-01
     14 -0.140998D-01 -0.364264D+00  0.944055D-03 -0.109535D-03  0.376118D-03
     15  0.764469D-04  0.910695D-03 -0.756197D-01  0.452438D-03 -0.123783D-02
     16  0.171389D-01 -0.186854D-03  0.126782D-03  0.000000D+00  0.000000D+00
     17 -0.242078D-01  0.265289D-03 -0.583407D-03  0.000000D+00  0.000000D+00
     18  0.478783D-03 -0.565739D-04  0.152004D-01 -0.595010D-04 -0.102344D-04
     19  0.644714D-05 -0.131860D-05  0.369452D-03  0.187486D-04  0.911404D-05
     20  0.142763D-04 -0.291985D-05  0.818100D-03 -0.335638D-05 -0.163160D-05
     21  0.148137D-03 -0.302976D-04  0.848896D-02 -0.198410D-03 -0.964507D-04
     22  0.700930D-02 -0.275898D-01  0.939618D-03 -0.158565D+00 -0.100927D+00
     23 -0.323145D-02  0.126376D-01  0.649959D-03 -0.985166D-01 -0.326073D+00
     24 -0.135083D-03 -0.171763D-02  0.296870D-01  0.450751D-02  0.111451D-01
     25 -0.261860D+00  0.111942D+00  0.626044D-02 -0.453937D-02  0.177462D-01
     26  0.113100D+00 -0.194848D+00 -0.453401D-02 -0.607517D-02  0.238502D-01
     27  0.806918D-02 -0.612689D-02 -0.791156D-01 -0.908387D-03  0.149389D-02
                6             7             8             9            10 
      6  0.195080D+00
      7 -0.530061D-02  0.566385D+00
      8  0.457584D-02  0.178616D-01  0.644203D+00
      9 -0.467451D-01  0.231644D-01  0.130651D-01  0.589614D-01
     10  0.186453D-02 -0.314940D+00 -0.214637D+00 -0.212514D-01  0.110281D+01
     11 -0.176763D-02 -0.170253D+00 -0.335097D+00 -0.183895D-01 -0.264469D-01
     12 -0.674339D-03 -0.164656D-01 -0.173948D-01 -0.517267D-01  0.149736D-01
     13  0.189153D-03 -0.754420D-02  0.661456D-02  0.659802D-03 -0.662505D+00
     14  0.242232D-03 -0.287399D-01  0.252566D-01  0.141022D-02  0.132530D+00
     15 -0.118022D-03 -0.238584D-02  0.142575D-02  0.682872D-02  0.140345D-01
     16 -0.533927D-04  0.000000D+00 -0.572737D-05  0.852474D-04 -0.490625D-02
     17 -0.103008D-04  0.000000D+00  0.263095D-04 -0.391596D-03  0.688258D-02
     18  0.322013D-02  0.872117D-05 -0.684954D-03  0.101950D-01  0.163960D-02
     19 -0.386131D-03  0.185605D-01 -0.165046D-01  0.201226D-02 -0.151723D+00
     20  0.691252D-04  0.107786D-01 -0.960480D-02  0.147092D-02  0.848619D-01
     21  0.408629D-02  0.130853D-02 -0.144523D-02  0.438138D-02 -0.106442D-01
     22  0.402059D-02  0.217892D-01  0.167567D-01 -0.952511D-03 -0.375663D-05
     23  0.897276D-02 -0.100250D-01 -0.770675D-02  0.643279D-03 -0.569372D-05
     24 -0.761052D-01  0.138099D-03  0.183613D-03  0.561708D-02 -0.203574D-03
     25  0.997539D-03  0.000000D+00  0.000000D+00 -0.395932D-04  0.181504D-05
     26  0.145485D-04  0.814874D-05  0.000000D+00 -0.427581D-03  0.000000D+00
     27  0.273692D-01 -0.146735D-03 -0.693892D-05  0.769948D-02  0.545419D-04
               11            12            13            14            15 
     11  0.809893D+00
     12  0.113540D-01  0.230513D+00
     13  0.108652D+00  0.104336D-01  0.112083D+01
     14 -0.238596D+00 -0.433067D-02  0.271845D-01  0.787982D+00
     15 -0.784995D-02 -0.134388D+00 -0.568111D-02  0.835720D-02  0.240188D+00
     16 -0.187716D-01 -0.513581D-03 -0.323856D+00 -0.142096D+00 -0.426548D-02
     17  0.263989D-01 -0.213479D-03 -0.143774D+00 -0.225082D+00 -0.271660D-02
     18  0.379972D-02  0.352739D-01 -0.591735D-02 -0.490841D-02 -0.973843D-01
     19  0.904319D-01 -0.876943D-02  0.662201D-02  0.255112D-01 -0.179053D-02
     20 -0.247281D+00  0.102350D-01  0.383261D-02  0.145692D-01  0.174279D-02
     21  0.154991D-01 -0.861416D-01  0.284817D-03 -0.164863D-02  0.388913D-01
     22 -0.182616D-05  0.773684D-04  0.421329D-05  0.000000D+00 -0.228019D-03
     23 -0.276782D-05  0.117263D-03 -0.668549D-05 -0.114993D-05  0.361812D-03
     24 -0.989608D-04  0.419264D-02 -0.130159D-03 -0.223878D-04  0.704407D-02
     25  0.000000D+00  0.104011D-03  0.166715D-01 -0.180625D-03 -0.212384D-03
     26  0.000000D+00 -0.116932D-04  0.224990D-01 -0.241371D-03 -0.993861D-03
     27 -0.111551D-04  0.312551D-02 -0.512283D-03 -0.436238D-04  0.145583D-01
               16            17            18            19            20 
     16  0.311625D+00
     17  0.161073D+00  0.198335D+00
     18  0.467026D-02  0.331403D-02  0.534523D-01
     19 -0.555519D-05  0.255185D-04 -0.664363D-03  0.126520D+00
     20 -0.123012D-04  0.565072D-04 -0.147114D-02 -0.994717D-01  0.242264D+00
     21 -0.127643D-03  0.586344D-03 -0.152652D-01  0.922874D-02 -0.128648D-01
     22  0.000000D+00  0.000000D+00  0.000000D+00  0.000000D+00  0.000000D+00
     23  0.000000D+00  0.000000D+00  0.000000D+00  0.000000D+00  0.000000D+00
     24  0.000000D+00  0.000000D+00  0.000000D+00  0.000000D+00  0.000000D+00
     25  0.258907D-05  0.000000D+00 -0.156148D-03  0.000000D+00  0.000000D+00
     26  0.000000D+00  0.000000D+00  0.175547D-04  0.000000D+00  0.000000D+00
     27  0.778016D-04  0.150100D-04 -0.469224D-02  0.000000D+00  0.000000D+00
               21            22            23            24            25 
     21  0.455589D-01
     22  0.000000D+00  0.129768D+00
     23  0.000000D+00  0.111782D+00  0.321113D+00
     24  0.000000D+00 -0.423718D-02 -0.101419D-01  0.413077D-01
     25  0.000000D+00 -0.195477D-05  0.310176D-05  0.603877D-04  0.249724D+00
     26  0.000000D+00 -0.211102D-04  0.334969D-04  0.652148D-03 -0.129511D+00
     27  0.000000D+00  0.380133D-03 -0.603182D-03 -0.117433D-01 -0.701425D-02
               26            27 
     26  0.171205D+00
     27  0.528289D-02  0.427986D-01
 Leave Link  716 at Tue Dec 15 17:09:20 2015, MaxMem=    33554432 cpu:         0.0
 (Enter /home/Applications/g09/g09/l103.exe)

 GradGradGradGradGradGradGradGradGradGradGradGradGradGradGradGradGradGrad
 Berny optimization.
 Search for a local minimum.
 Step number   1 out of a maximum of    2
 All quantities printed in internal units (Hartrees-Bohrs-Radians)
 Second derivative matrix not updated -- first step.
 ITU=  0
     Eigenvalues ---    0.02016   0.02962   0.07111   0.07266   0.08063
     Eigenvalues ---    0.09729   0.13153   0.14050   0.15590   0.24184
     Eigenvalues ---    0.28391   0.33370   0.42244   0.44245   0.63188
     Eigenvalues ---    0.83846   1.07124   1.32202   1.34169   1.64600
     Eigenvalues ---    1.90552
 Quadratic step=1.382D+00 exceeds max=3.000D-01 adjusted using Lamda=-9.440D-01.
 Angle between NR and scaled steps=  33.25 degrees.
 Angle between quadratic step and forces=  21.96 degrees.
 Linear search not attempted -- first point.
 TrRot= -0.004675 -0.000804  0.000069  0.000309  0.000058  0.000309
 MatCor failed.
 Variable       Old X    -DE/DX   Delta X   Delta X   Delta X     New X
                                 (Linear)    (Quad)   (Total)
    X1        1.76852   0.19186   0.00000   0.07922   0.07541   1.84394
    Y1       -1.36375  -0.02044   0.00000  -0.03263  -0.03229  -1.39603
    Z1        0.04167  -0.00250   0.00000  -0.00351  -0.00355   0.03812
    X2       -0.67318  -0.28322   0.00000  -0.11887  -0.12228  -0.79545
    Y2       -1.98567  -0.08281   0.00000  -0.06165  -0.06295  -2.04862
    Z2       -0.00543  -0.00772   0.00000  -0.00446  -0.00435  -0.00978
    X3       -2.26816   0.11135   0.00000   0.04518   0.04046  -2.22770
    Y3        0.08671  -0.03654   0.00000  -0.01753  -0.01971   0.06700
    Z3       -0.03396   0.00855   0.00000   0.00542   0.00562  -0.02833
    X4       -0.56344  -0.36234   0.00000  -0.14464  -0.15062  -0.71406
    Y4        2.01943   0.17440   0.00000   0.10202   0.10077   2.12020
    Z4        0.09444  -0.00638   0.00000  -0.00469  -0.00458   0.08985
    X5        1.79862   0.21046   0.00000   0.07663   0.07108   1.86970
    Y5        1.40325  -0.03309   0.00000   0.01277   0.01313   1.41638
    Z5        0.05102   0.00344   0.00000   0.00520   0.00516   0.05618
    X6        3.38876   0.08872   0.00000   0.08807   0.08180   3.47056
    Y6        2.52965   0.06155   0.00000   0.05285   0.05420   2.58385
    Z6        0.08099  -0.00064   0.00000  -0.00010  -0.00024   0.08075
    X7       -1.63197   0.01524   0.00000  -0.00672  -0.01384  -1.64581
    Y7        3.87548   0.03754   0.00000   0.06272   0.06090   3.93638
    Z7       -0.03793   0.00311   0.00000  -0.00008   0.00008  -0.03785
    X8       -1.51781  -0.01097   0.00000  -0.02654  -0.02880  -1.54661
    Y8       -3.82055  -0.07105   0.00000  -0.07728  -0.07904  -3.89959
    Z8        0.06148   0.00076   0.00000   0.00081   0.00097   0.06245
    X9        3.42489   0.03889   0.00000   0.04982   0.04677   3.47166
    Y9       -2.59246  -0.02957   0.00000  -0.03637  -0.03502  -2.62748
    Z9       -0.01805   0.00138   0.00000   0.00101   0.00088  -0.01717
         Item               Value     Threshold  Converged?
 Maximum Force            0.362337     0.000450     NO 
 RMS     Force            0.116457     0.000300     NO 
 Maximum Displacement     0.150618     0.001800     NO 
 RMS     Displacement     0.057693     0.001200     NO 
 Predicted change in Energy=-1.267625D-01
 GradGradGradGradGradGradGradGradGradGradGradGradGradGradGradGradGradGrad

 Leave Link  103 at Tue Dec 15 17:09:20 2015, MaxMem=    33554432 cpu:         0.0
 (Enter /home/Applications/g09/g09/l9999.exe)
 1\1\GINC-DUSTIN-DESKTOP\Force\RAM1-FC\STO-3G\C4H4O1\DUSTIN\15-Dec-2015
 \0\\#P AM1(Input,print) CIS(Singlets,NStates=15) pop(full) force\\AM1-
 Reparam Input\\0,1\C,0.935861,-0.721664,0.022049\C,-0.35623,-1.050773,
 -0.002872\O,-1.200259,0.045884,-0.017969\C,-0.29816,1.068634,0.049973\
 C,0.951788,0.742569,0.026997\H,1.793254,1.338631,0.042856\H,-0.863602,
 2.050815,-0.020073\H,-0.803191,-2.021749,0.032533\H,1.812372,-1.371869
 ,-0.009552\\Version=ES64L-G09RevD.01\State=1-A\HF=2.1755435\RMSD=8.615
 e-09\RMSF=1.165e-01\Dipole=-5.0714769,0.1884048,-0.2435713\PG=C01 [X(C
 4H4O1)]\\@


 A HARD FALL SHOULD MEAN A HIGH BOUNCE 
 IF ONE IS MADE OF THE RIGHT MATERIAL.

                -- THE CHEMIST ANALYST, MARCH 1950
 Job cpu time:       0 days  0 hours  0 minutes  0.7 seconds.
 File lengths (MBytes):  RWF=      7 Int=      0 D2E=      0 Chk=      2 Scr=      1
 Normal termination of Gaussian 09 at Tue Dec 15 17:09:20 2015.
