 Entering Gaussian System, Link 0=g09
 Input=FuranAM1_46.com
 Output=FuranAM1_46.log
 Initial command:
 /home/Applications/g09/g09/l1.exe "/home/Applications/g09/scratch/Gau-5921.inp" -scrdir="/home/Applications/g09/scratch/"
 Entering Link 1 = /home/Applications/g09/g09/l1.exe PID=      5923.
  
 Copyright (c) 1988,1990,1992,1993,1995,1998,2003,2009,2013,
            Gaussian, Inc.  All Rights Reserved.
  
 This is part of the Gaussian(R) 09 program.  It is based on
 the Gaussian(R) 03 system (copyright 2003, Gaussian, Inc.),
 the Gaussian(R) 98 system (copyright 1998, Gaussian, Inc.),
 the Gaussian(R) 94 system (copyright 1995, Gaussian, Inc.),
 the Gaussian 92(TM) system (copyright 1992, Gaussian, Inc.),
 the Gaussian 90(TM) system (copyright 1990, Gaussian, Inc.),
 the Gaussian 88(TM) system (copyright 1988, Gaussian, Inc.),
 the Gaussian 86(TM) system (copyright 1986, Carnegie Mellon
 University), and the Gaussian 82(TM) system (copyright 1983,
 Carnegie Mellon University). Gaussian is a federally registered
 trademark of Gaussian, Inc.
  
 This software contains proprietary and confidential information,
 including trade secrets, belonging to Gaussian, Inc.
  
 This software is provided under written license and may be
 used, copied, transmitted, or stored only in accord with that
 written license.
  
 The following legend is applicable only to US Government
 contracts under FAR:
  
                    RESTRICTED RIGHTS LEGEND
  
 Use, reproduction and disclosure by the US Government is
 subject to restrictions as set forth in subparagraphs (a)
 and (c) of the Commercial Computer Software - Restricted
 Rights clause in FAR 52.227-19.
  
 Gaussian, Inc.
 340 Quinnipiac St., Bldg. 40, Wallingford CT 06492
  
  
 ---------------------------------------------------------------
 Warning -- This program may not be used in any manner that
 competes with the business of Gaussian, Inc. or will provide
 assistance to any competitor of Gaussian, Inc.  The licensee
 of this program is prohibited from giving any competitor of
 Gaussian, Inc. access to this program.  By using this program,
 the user acknowledges that Gaussian, Inc. is engaged in the
 business of creating and licensing software in the field of
 computational chemistry and represents and warrants to the
 licensee that it is not a competitor of Gaussian, Inc. and that
 it will not use this program in any manner prohibited above.
 ---------------------------------------------------------------
  

 Cite this work as:
 Gaussian 09, Revision D.01,
 M. J. Frisch, G. W. Trucks, H. B. Schlegel, G. E. Scuseria, 
 M. A. Robb, J. R. Cheeseman, G. Scalmani, V. Barone, B. Mennucci, 
 G. A. Petersson, H. Nakatsuji, M. Caricato, X. Li, H. P. Hratchian, 
 A. F. Izmaylov, J. Bloino, G. Zheng, J. L. Sonnenberg, M. Hada, 
 M. Ehara, K. Toyota, R. Fukuda, J. Hasegawa, M. Ishida, T. Nakajima, 
 Y. Honda, O. Kitao, H. Nakai, T. Vreven, J. A. Montgomery, Jr., 
 J. E. Peralta, F. Ogliaro, M. Bearpark, J. J. Heyd, E. Brothers, 
 K. N. Kudin, V. N. Staroverov, T. Keith, R. Kobayashi, J. Normand, 
 K. Raghavachari, A. Rendell, J. C. Burant, S. S. Iyengar, J. Tomasi, 
 M. Cossi, N. Rega, J. M. Millam, M. Klene, J. E. Knox, J. B. Cross, 
 V. Bakken, C. Adamo, J. Jaramillo, R. Gomperts, R. E. Stratmann, 
 O. Yazyev, A. J. Austin, R. Cammi, C. Pomelli, J. W. Ochterski, 
 R. L. Martin, K. Morokuma, V. G. Zakrzewski, G. A. Voth, 
 P. Salvador, J. J. Dannenberg, S. Dapprich, A. D. Daniels, 
 O. Farkas, J. B. Foresman, J. V. Ortiz, J. Cioslowski, 
 and D. J. Fox, Gaussian, Inc., Wallingford CT, 2013.
 
 ******************************************
 Gaussian 09:  ES64L-G09RevD.01 24-Apr-2013
                15-Dec-2015 
 ******************************************
 ------------------------------------------------------------
 #P AM1(Input,print) CIS(Singlets,NStates=15) pop(full) force
 ------------------------------------------------------------
 1/10=7,30=1,38=1/1,3;
 2/12=2,17=6,18=5,40=1/2;
 3/5=2,16=1,25=1,41=700000,71=1,135=100,136=1/1,2,8,3;
 4/35=1/1;
 5/5=2,35=1,38=5/2;
 8/6=1,10=1,108=15/1;
 9/15=2,41=15,42=1,48=1,49=10/14;
 10/5=4/2;
 6/7=3,18=1/1;
 7/12=6,13=5,29=1/1,2,3,16;
 1/10=7,30=1/3;
 99//99;
 Leave Link    1 at Tue Dec 15 16:19:42 2015, MaxMem=           0 cpu:         0.0
 (Enter /home/Applications/g09/g09/l101.exe)
 -----------------
 AM1-Reparam Input
 -----------------
 Symbolic Z-matrix:
 Charge =  0 Multiplicity = 1
 6                     0.93586  -0.72166   0.02205 
 6                    -0.35623  -1.05077  -0.00287 
 8                    -1.20026   0.04588  -0.01797 
 6                    -0.29816   1.06863   0.04997 
 6                     0.95179   0.74257   0.027 
 1                     1.79325   1.33863   0.04286 
 1                    -0.8636    2.05082  -0.02007 
 1                    -0.80319  -2.02175   0.03253 
 1                     1.81237  -1.37187  -0.00955 
 
 NAtoms=      9 NQM=        9 NQMF=       0 NMMI=      0 NMMIF=      0
                NMic=       0 NMicF=      0.
                    Isotopes and Nuclear Properties:
 (Nuclear quadrupole moments (NQMom) in fm**2, nuclear magnetic moments (NMagM)
  in nuclear magnetons)

  Atom         1           2           3           4           5           6           7           8           9
 IAtWgt=          12          12          16          12          12           1           1           1           1
 AtmWgt=  12.0000000  12.0000000  15.9949146  12.0000000  12.0000000   1.0078250   1.0078250   1.0078250   1.0078250
 NucSpn=           0           0           0           0           0           1           1           1           1
 AtZEff=   0.0000000   0.0000000   0.0000000   0.0000000   0.0000000   0.0000000   0.0000000   0.0000000   0.0000000
 NQMom=    0.0000000   0.0000000   0.0000000   0.0000000   0.0000000   0.0000000   0.0000000   0.0000000   0.0000000
 NMagM=    0.0000000   0.0000000   0.0000000   0.0000000   0.0000000   2.7928460   2.7928460   2.7928460   2.7928460
 AtZNuc=   6.0000000   6.0000000   8.0000000   6.0000000   6.0000000   1.0000000   1.0000000   1.0000000   1.0000000
 Leave Link  101 at Tue Dec 15 16:19:42 2015, MaxMem=    33554432 cpu:         0.0
 (Enter /home/Applications/g09/g09/l103.exe)

 GradGradGradGradGradGradGradGradGradGradGradGradGradGradGradGradGradGrad
 Berny optimization.
 Initialization pass.
 Trust Radius=3.00D-01 FncErr=1.00D-07 GrdErr=1.00D-07
 Number of steps in this run=      2 maximum allowed number of steps=      2.
 GradGradGradGradGradGradGradGradGradGradGradGradGradGradGradGradGradGrad

 Leave Link  103 at Tue Dec 15 16:19:42 2015, MaxMem=    33554432 cpu:         0.0
 (Enter /home/Applications/g09/g09/l202.exe)
                          Input orientation:                          
 ---------------------------------------------------------------------
 Center     Atomic      Atomic             Coordinates (Angstroms)
 Number     Number       Type             X           Y           Z
 ---------------------------------------------------------------------
      1          6           0        0.935861   -0.721664    0.022049
      2          6           0       -0.356230   -1.050773   -0.002872
      3          8           0       -1.200259    0.045884   -0.017969
      4          6           0       -0.298160    1.068634    0.049973
      5          6           0        0.951788    0.742569    0.026997
      6          1           0        1.793254    1.338631    0.042856
      7          1           0       -0.863602    2.050815   -0.020073
      8          1           0       -0.803191   -2.021749    0.032533
      9          1           0        1.812372   -1.371869   -0.009552
 ---------------------------------------------------------------------
                    Distance matrix (angstroms):
                    1          2          3          4          5
     1  C    0.000000
     2  C    1.333579   0.000000
     3  O    2.270185   1.383933   0.000000
     4  C    2.174570   2.120861   1.365436   0.000000
     5  C    1.464328   2.219883   2.262454   1.291982   0.000000
     6  H    2.231675   3.214284   3.261290   2.108782   1.031313
     7  H    3.305523   3.142860   2.033000   1.135478   2.238161
     8  H    2.171321   1.069496   2.106020   3.131426   3.274360
     9  H    1.091804   2.192255   3.329571   3.227064   2.283153
                    6          7          8          9
     6  H    0.000000
     7  H    2.751372   0.000000
     8  H    4.246621   4.073352   0.000000
     9  H    2.711074   4.344619   2.695419   0.000000
 Stoichiometry    C4H4O
 Framework group  C1[X(C4H4O)]
 Deg. of freedom    21
 Full point group                 C1      NOp   1
 Largest Abelian subgroup         C1      NOp   1
 Largest concise Abelian subgroup C1      NOp   1
                         Standard orientation:                         
 ---------------------------------------------------------------------
 Center     Atomic      Atomic             Coordinates (Angstroms)
 Number     Number       Type             X           Y           Z
 ---------------------------------------------------------------------
      1          6           0        0.961004    0.714901    0.003316
      2          6           0        0.937369   -0.618462   -0.000946
      3          8           0       -0.343133   -1.143220   -0.015483
      4          6           0       -1.091747   -0.002208    0.030209
      5          6           0       -0.447050    1.116828   -0.006390
      6          1           0       -0.799831    2.085926   -0.007749
      7          1           0       -2.187945   -0.289368   -0.041894
      8          1           0        1.755621   -1.305255    0.050051
      9          1           0        1.819766    1.388099   -0.033679
 ---------------------------------------------------------------------
 Rotational constants (GHZ):      9.7334289      9.2036073      4.7323564
 Leave Link  202 at Tue Dec 15 16:19:42 2015, MaxMem=    33554432 cpu:         0.0
 (Enter /home/Applications/g09/g09/l301.exe)

 Semi-emprical parameters in input format:
 Method=8 CoreType=1 PeptideFC=0.0114510000 RIJScale=0.5291770000
 ****
 H       
 PQN=1 NValence=1 F0ss=0.4721550000 ZetaOverlap=1.1880780000 U=-0.4188110000
 Beta=-0.2268830000 CoreKO=1.0589200000 KON=0,0,0,1.0589200000 KON=1,0,1,1.0589200000
 KON=0,1,1,1.0589200000 KON=2,1,1,1.0589200000 EISol=-0.4188110042 EHeat=0.0830298228
 Alpha=1.5252600000
 GCore=0.0085280000,1.4001430000,2.2676710000
 GCore=0.0003530000,1.4001430000,3.4015070000
 GCore=-0.0012730000,0.5600570000,3.9684250000
 ****
 C       
 PQN=2,2 NValence=4 F0ss=0.4494440000 F0sp=0.4215150000 F0pp=0.3768030000 F2pp=0.1898720000
 G1sp=0.2679030000
 ZetaOverlap=1.8086650000,1.6851160000
 U=-1.9120180000,-1.4557970000
 Beta=-0.5775440000,-0.2836780000 DDN=0,1,0.8236740000 DDN=1,1,0.7268010000
 CoreKO=1.1124280000 KON=0,0,0,1.1124280000 KON=1,0,1,0.8219700000 KON=0,1,1,1.1124280000
 KON=2,1,1,0.7783930000 EISol=-4.4398989268 EHeat=0.2723305520 Alpha=1.4014060000
 DipHyp=1.6472532266
 GCore=0.0007890000,1.4001430000,3.0235620000
 GCore=0.0031890000,1.4001430000,3.4959930000
 GCore=-0.0013930000,1.4001430000,3.8739390000
 GCore=-0.0000880000,1.4001430000,5.0077740000
 ****
 O       
 PQN=2,2 NValence=6 F0ss=0.5666750000 F0sp=0.5321300000 F0pp=0.4958710000 F2pp=0.2358080000
 G1sp=0.4343770000
 ZetaOverlap=3.1080320000,2.5240390000
 U=-3.5951870000,-2.8760900000
 Beta=-1.0757550000,-1.0757550000 DDN=0,1,0.4988900000 DDN=1,1,0.4852320000
 CoreKO=0.8822960000 KON=0,0,0,0.8822960000 KON=1,0,1,0.5019540000 KON=0,1,1,0.8822960000
 KON=2,1,1,0.5515580000 EISol=-11.6164441184 EHeat=0.0949133088 Alpha=2.3576810000
 DipHyp=0.9977225968
 GCore=0.0195120000,1.4001430000,1.6023330000
 GCore=0.0056550000,1.9602000000,2.7307880000
 ****
 
 Standard basis: VSTO-6G (5D, 7F)
 Ernie: Thresh=  0.10000D-02 Tol=  0.10000D-05 Strict=F.
  NNHCO=     0 NNPyr=     0 NCTC=     0               EPep=         0.000000000
    EC=        68.897163127  ECS=         1.869742271   EG=         0.352074622
   EHC=         0.000000000  EAt=       -31.051283842  AtH=         1.516354808
 EPDDG=         0.000000000  ECC=        71.118980020 EAtT=        32.567638650
 There are    24 symmetry adapted cartesian basis functions of A   symmetry.
 There are    24 symmetry adapted basis functions of A   symmetry.
    24 basis functions,   144 primitive gaussians,    24 cartesian basis functions
    13 alpha electrons       13 beta electrons
       nuclear repulsion energy       103.6866186706 Hartrees.
 IExCor=    0 DFT=F Ex=HF Corr=None ExCW=0 ScaHFX=  1.000000
 ScaDFX=  1.000000  1.000000  1.000000  1.000000 ScalE2=  1.000000  1.000000
 IRadAn=      0 IRanWt=     -1 IRanGd=            0 ICorTp=0 IEmpDi=  4
 Integral buffers will be    131072 words long.
 Regular integral format.
 Two-electron integral symmetry is turned off.
 Leave Link  301 at Tue Dec 15 16:19:42 2015, MaxMem=    33554432 cpu:         0.0
 (Enter /home/Applications/g09/g09/l302.exe)
 Do NDO integrals.
 NPDir=0 NMtPBC=     1 NCelOv=     1 NCel=       1 NClECP=     1 NCelD=      1
         NCelK=      1 NCelE2=     1 NClLst=     1 CellRange=     0.0.
 One-electron integrals computed using PRISM.
 NBasis=    24 RedAO= F EigKep=  0.00D+00  NBF=    24
 NBsUse=    24 1.00D-04 EigRej=  0.00D+00 NBFU=    24
 Leave Link  302 at Tue Dec 15 16:19:42 2015, MaxMem=    33554432 cpu:         0.0
 (Enter /home/Applications/g09/g09/l308.exe)
 Leave Link  308 at Tue Dec 15 16:19:42 2015, MaxMem=    33554432 cpu:         0.0
 (Enter /home/Applications/g09/g09/l303.exe)
 DipDrv:  MaxL=1.
 Leave Link  303 at Tue Dec 15 16:19:42 2015, MaxMem=    33554432 cpu:         0.0
 (Enter /home/Applications/g09/g09/l401.exe)
 Simple Huckel Guess.
 JPrj=0 DoOrth=F DoCkMO=F.
 Leave Link  401 at Tue Dec 15 16:19:42 2015, MaxMem=    33554432 cpu:         0.0
 (Enter /home/Applications/g09/g09/l502.exe)
 Closed shell SCF:
 Using DIIS extrapolation, IDIIS=  1040.
 Overlap will be assumed to be unity.
 Two-electron integral symmetry not used.
 Keep J ints in memory in canonical form, NReq=888082.
 IVT=       79475 IEndB=       79475 NGot=    33554432 MDV=    33473473
 LenX=    33473473 LenY=    33472456
 Requested convergence on RMS density matrix=1.00D-08 within 128 cycles.
 Requested convergence on MAX density matrix=1.00D-06.
 Requested convergence on             energy=1.00D-06.
 No special actions if energy rises.
 FoFCou: FMM=F IPFlag=           0 FMFlag=           0 FMFlg1=           0
         NFxFlg=           0 DoJE=F BraDBF=F KetDBF=F FulRan=T
         wScrn=  0.000000 ICntrl=     600 IOpCl=  2 I1Cent=           0 NGrid=           0
         NMat0=    1 NMatS0=     54 NMatT0=    0 NMatD0=    1 NMtDS0=    0 NMtDT0=    0
 Symmetry not used in FoFCou.

 Cycle   1  Pass 1  IDiag  1:
 E= 0.353801985650037    
 DIIS: error= 6.21D-02 at cycle   1 NSaved=   1.
 NSaved= 1 IEnMin= 1 EnMin= 0.353801985650037     IErMin= 1 ErrMin= 6.21D-02
 ErrMax= 6.21D-02  0.00D+00 EMaxC= 1.00D-01 BMatC= 1.14D-01 BMatP= 1.14D-01
 IDIUse=3 WtCom= 3.79D-01 WtEn= 6.21D-01
 Coeff-Com:  0.100D+01
 Coeff-En:   0.100D+01
 Coeff:      0.100D+01
 GapD=    2.000 DampG=2.000 DampE=0.500 DampFc=1.0000 IDamp=-1.
 RMSDP=2.00D-02 MaxDP=1.63D-01              OVMax= 0.00D+00

 Cycle   2  Pass 1  IDiag  1:
 E= 0.631555087847602E-01 Delta-E=       -0.290646476865 Rises=F Damp=F
 DIIS: error= 2.03D-02 at cycle   2 NSaved=   2.
 NSaved= 2 IEnMin= 2 EnMin= 0.631555087847602E-01 IErMin= 2 ErrMin= 2.03D-02
 ErrMax= 2.03D-02  0.00D+00 EMaxC= 1.00D-01 BMatC= 9.82D-03 BMatP= 1.14D-01
 IDIUse=3 WtCom= 7.97D-01 WtEn= 2.03D-01
 Coeff-Com: -0.359D+00 0.136D+01
 Coeff-En:   0.000D+00 0.100D+01
 Coeff:     -0.286D+00 0.129D+01
 RMSDP=8.29D-03 MaxDP=7.44D-02 DE=-2.91D-01 OVMax= 0.00D+00

 Cycle   3  Pass 1  IDiag  1:
 E= 0.319949744654764E-01 Delta-E=       -0.031160534319 Rises=F Damp=F
 DIIS: error= 3.79D-03 at cycle   3 NSaved=   3.
 NSaved= 3 IEnMin= 3 EnMin= 0.319949744654764E-01 IErMin= 3 ErrMin= 3.79D-03
 ErrMax= 3.79D-03  0.00D+00 EMaxC= 1.00D-01 BMatC= 3.57D-04 BMatP= 9.82D-03
 IDIUse=3 WtCom= 9.62D-01 WtEn= 3.79D-02
 Coeff-Com:  0.144D+00-0.623D+00 0.148D+01
 Coeff-En:   0.000D+00 0.000D+00 0.100D+01
 Coeff:      0.138D+00-0.600D+00 0.146D+01
 RMSDP=2.42D-03 MaxDP=2.59D-02 DE=-3.12D-02 OVMax= 0.00D+00

 Cycle   4  Pass 1  IDiag  3:
 E= 0.301158538972004E-01 Delta-E=       -0.001879120568 Rises=F Damp=F
 DIIS: error= 1.04D-03 at cycle   4 NSaved=   4.
 NSaved= 4 IEnMin= 4 EnMin= 0.301158538972004E-01 IErMin= 4 ErrMin= 1.04D-03
 ErrMax= 1.04D-03  0.00D+00 EMaxC= 1.00D-01 BMatC= 2.44D-05 BMatP= 3.57D-04
 IDIUse=3 WtCom= 9.90D-01 WtEn= 1.04D-02
 Coeff-Com:  0.155D-01-0.625D-01-0.136D+00 0.118D+01
 Coeff-En:   0.000D+00 0.000D+00 0.000D+00 0.100D+01
 Coeff:      0.153D-01-0.619D-01-0.135D+00 0.118D+01
 Gap=     0.393 Goal=   None    Shift=    0.000
 RMSDP=7.20D-04 MaxDP=8.39D-03 DE=-1.88D-03 OVMax= 8.98D-03

 Cycle   5  Pass 1  IDiag  3:
 E= 0.299747659741598E-01 Delta-E=       -0.000141087923 Rises=F Damp=F
 DIIS: error= 1.96D-04 at cycle   5 NSaved=   5.
 NSaved= 5 IEnMin= 5 EnMin= 0.299747659741598E-01 IErMin= 5 ErrMin= 1.96D-04
 ErrMax= 1.96D-04  0.00D+00 EMaxC= 1.00D-01 BMatC= 1.65D-06 BMatP= 2.44D-05
 IDIUse=3 WtCom= 9.98D-01 WtEn= 1.96D-03
 Coeff-Com: -0.841D-02 0.360D-01-0.175D-02-0.448D+00 0.142D+01
 Coeff-En:   0.000D+00 0.000D+00 0.000D+00 0.000D+00 0.100D+01
 Coeff:     -0.839D-02 0.360D-01-0.174D-02-0.447D+00 0.142D+01
 Gap=     0.393 Goal=   None    Shift=    0.000
 RMSDP=2.30D-04 MaxDP=1.67D-03 DE=-1.41D-04 OVMax= 2.70D-03

 Cycle   6  Pass 1  IDiag  3:
 E= 0.299625789497497E-01 Delta-E=       -0.000012187024 Rises=F Damp=F
 DIIS: error= 9.34D-05 at cycle   6 NSaved=   6.
 NSaved= 6 IEnMin= 6 EnMin= 0.299625789497497E-01 IErMin= 6 ErrMin= 9.34D-05
 ErrMax= 9.34D-05  0.00D+00 EMaxC= 1.00D-01 BMatC= 1.66D-07 BMatP= 1.65D-06
 IDIUse=1 WtCom= 1.00D+00 WtEn= 0.00D+00
 Coeff-Com:  0.247D-02-0.100D-01 0.817D-02 0.113D+00-0.631D+00 0.152D+01
 Coeff:      0.247D-02-0.100D-01 0.817D-02 0.113D+00-0.631D+00 0.152D+01
 Gap=     0.393 Goal=   None    Shift=    0.000
 RMSDP=8.97D-05 MaxDP=7.94D-04 DE=-1.22D-05 OVMax= 1.20D-03

 Cycle   7  Pass 1  IDiag  3:
 E= 0.299610913822193E-01 Delta-E=       -0.000001487568 Rises=F Damp=F
 DIIS: error= 3.00D-05 at cycle   7 NSaved=   7.
 NSaved= 7 IEnMin= 7 EnMin= 0.299610913822193E-01 IErMin= 7 ErrMin= 3.00D-05
 ErrMax= 3.00D-05  0.00D+00 EMaxC= 1.00D-01 BMatC= 1.31D-08 BMatP= 1.66D-07
 IDIUse=1 WtCom= 1.00D+00 WtEn= 0.00D+00
 Coeff-Com: -0.371D-03 0.974D-03-0.982D-03-0.211D-01 0.160D+00-0.659D+00
 Coeff-Com:  0.152D+01
 Coeff:     -0.371D-03 0.974D-03-0.982D-03-0.211D-01 0.160D+00-0.659D+00
 Coeff:      0.152D+01
 Gap=     0.393 Goal=   None    Shift=    0.000
 RMSDP=2.93D-05 MaxDP=2.86D-04 DE=-1.49D-06 OVMax= 3.58D-04

 Cycle   8  Pass 1  IDiag  3:
 E= 0.299609707897304E-01 Delta-E=       -0.000000120592 Rises=F Damp=F
 DIIS: error= 4.79D-06 at cycle   8 NSaved=   8.
 NSaved= 8 IEnMin= 8 EnMin= 0.299609707897304E-01 IErMin= 8 ErrMin= 4.79D-06
 ErrMax= 4.79D-06  0.00D+00 EMaxC= 1.00D-01 BMatC= 4.85D-10 BMatP= 1.31D-08
 IDIUse=1 WtCom= 1.00D+00 WtEn= 0.00D+00
 Coeff-Com:  0.179D-04 0.231D-03-0.793D-03 0.795D-02-0.538D-01 0.251D+00
 Coeff-Com: -0.722D+00 0.152D+01
 Coeff:      0.179D-04 0.231D-03-0.793D-03 0.795D-02-0.538D-01 0.251D+00
 Coeff:     -0.722D+00 0.152D+01
 Gap=     0.393 Goal=   None    Shift=    0.000
 RMSDP=4.82D-06 MaxDP=4.61D-05 DE=-1.21D-07 OVMax= 6.09D-05

 Cycle   9  Pass 1  IDiag  3:
 E= 0.299609671281473E-01 Delta-E=       -0.000000003662 Rises=F Damp=F
 DIIS: error= 5.93D-07 at cycle   9 NSaved=   9.
 NSaved= 9 IEnMin= 9 EnMin= 0.299609671281473E-01 IErMin= 9 ErrMin= 5.93D-07
 ErrMax= 5.93D-07  0.00D+00 EMaxC= 1.00D-01 BMatC= 1.76D-11 BMatP= 4.85D-10
 IDIUse=1 WtCom= 1.00D+00 WtEn= 0.00D+00
 Coeff-Com:  0.208D-04-0.204D-03 0.420D-03-0.214D-02 0.149D-01-0.792D-01
 Coeff-Com:  0.247D+00-0.629D+00 0.145D+01
 Coeff:      0.208D-04-0.204D-03 0.420D-03-0.214D-02 0.149D-01-0.792D-01
 Coeff:      0.247D+00-0.629D+00 0.145D+01
 Gap=     0.393 Goal=   None    Shift=    0.000
 RMSDP=7.43D-07 MaxDP=5.79D-06 DE=-3.66D-09 OVMax= 9.65D-06

 Cycle  10  Pass 1  IDiag  3:
 E= 0.299609670229586E-01 Delta-E=       -0.000000000105 Rises=F Damp=F
 DIIS: error= 1.26D-07 at cycle  10 NSaved=  10.
 NSaved=10 IEnMin=10 EnMin= 0.299609670229586E-01 IErMin=10 ErrMin= 1.26D-07
 ErrMax= 1.26D-07  0.00D+00 EMaxC= 1.00D-01 BMatC= 6.70D-13 BMatP= 1.76D-11
 IDIUse=1 WtCom= 1.00D+00 WtEn= 0.00D+00
 Coeff-Com: -0.108D-04 0.896D-04-0.180D-03 0.789D-03-0.516D-02 0.283D-01
 Coeff-Com: -0.893D-01 0.231D+00-0.631D+00 0.147D+01
 Coeff:     -0.108D-04 0.896D-04-0.180D-03 0.789D-03-0.516D-02 0.283D-01
 Coeff:     -0.893D-01 0.231D+00-0.631D+00 0.147D+01
 Gap=     0.393 Goal=   None    Shift=    0.000
 RMSDP=1.28D-07 MaxDP=7.14D-07 DE=-1.05D-10 OVMax= 1.19D-06

 Cycle  11  Pass 1  IDiag  3:
 E= 0.299609670193917E-01 Delta-E=       -0.000000000004 Rises=F Damp=F
 DIIS: error= 2.27D-08 at cycle  11 NSaved=  11.
 NSaved=11 IEnMin=11 EnMin= 0.299609670193917E-01 IErMin=11 ErrMin= 2.27D-08
 ErrMax= 2.27D-08  0.00D+00 EMaxC= 1.00D-01 BMatC= 2.66D-14 BMatP= 6.70D-13
 IDIUse=1 WtCom= 1.00D+00 WtEn= 0.00D+00
 Coeff-Com:  0.353D-05-0.293D-04 0.572D-04-0.244D-03 0.157D-02-0.882D-02
 Coeff-Com:  0.280D-01-0.716D-01 0.203D+00-0.586D+00 0.143D+01
 Coeff:      0.353D-05-0.293D-04 0.572D-04-0.244D-03 0.157D-02-0.882D-02
 Coeff:      0.280D-01-0.716D-01 0.203D+00-0.586D+00 0.143D+01
 Gap=     0.393 Goal=   None    Shift=    0.000
 RMSDP=2.63D-08 MaxDP=1.10D-07 DE=-3.57D-12 OVMax= 1.81D-07

 Cycle  12  Pass 1  IDiag  3:
 E= 0.299609670191501E-01 Delta-E=        0.000000000000 Rises=F Damp=F
 DIIS: error= 3.94D-09 at cycle  12 NSaved=  12.
 NSaved=12 IEnMin=12 EnMin= 0.299609670191501E-01 IErMin=12 ErrMin= 3.94D-09
 ErrMax= 3.94D-09  0.00D+00 EMaxC= 1.00D-01 BMatC= 1.53D-15 BMatP= 2.66D-14
 IDIUse=1 WtCom= 1.00D+00 WtEn= 0.00D+00
 Coeff-Com: -0.695D-06 0.595D-05-0.112D-04 0.490D-04-0.306D-03 0.177D-02
 Coeff-Com: -0.561D-02 0.139D-01-0.396D-01 0.125D+00-0.491D+00 0.140D+01
 Coeff:     -0.695D-06 0.595D-05-0.112D-04 0.490D-04-0.306D-03 0.177D-02
 Coeff:     -0.561D-02 0.139D-01-0.396D-01 0.125D+00-0.491D+00 0.140D+01
 Gap=     0.393 Goal=   None    Shift=    0.000
 RMSDP=7.00D-09 MaxDP=2.79D-08 DE=-2.42D-13 OVMax= 6.20D-08

 Cycle  13  Pass 2  IDiag  1:
 SCF Done:  E(RAM1) =  0.299609670192E-01 A.U. after   13 cycles
            NFock= 12  Conv=0.70D-08     -V/T= 1.0018
 KE=-1.657863549933D+01 PE=-1.713777113975D+02 EE= 8.429968919330D+01
 Leave Link  502 at Tue Dec 15 16:19:42 2015, MaxMem=    33554432 cpu:         0.0
 (Enter /home/Applications/g09/g09/l801.exe)
 Range of M.O.s used for correlation:     1    24
 NBasis=    24 NAE=    13 NBE=    13 NFC=     0 NFV=     0
 NROrb=     24 NOA=    13 NOB=    13 NVA=    11 NVB=    11
 Leave Link  801 at Tue Dec 15 16:19:42 2015, MaxMem=    33554432 cpu:         0.0
 (Enter /home/Applications/g09/g09/l914.exe)
 RHF ground state
 MDV=    33554432 DFT=F DoStab=F Mixed=F DoRPA=F DoScal=F NonHer=F
 Making orbital integer symmetry assigments:
 Orbital symmetries:
       Occupied  (A) (A) (A) (A) (A) (A) (A) (A) (A) (A) (A) (A)
                 (A)
       Virtual   (A) (A) (A) (A) (A) (A) (A) (A) (A) (A) (A)
    60 initial guesses have been made.
 Convergence on wavefunction:    0.000001000000000
 Davidson Disk Diagonalization:  ConvIn= 1.00D-06 SkipCon=T Conv= 1.00D-06.
 Max sub-space:   240 roots to seek:    60 dimension of matrix:          286
 Iteration     1 Dimension    60 NMult     0 NNew     60
 CISAX will form    60 AO SS matrices at one time.
 NMat=    60 NSing=    60 JSym2X= 0.
 FoFJK:  IHMeth= 8 ICntrl=       0 DoSepK=F KAlg= 0 I1Cent=   0 FoldK=F
 IRaf=         1 NMat= 120 IRICut=       1 DoRegI=T DoRafI=F ISym2E= 0.
 FoFCou: FMM=F IPFlag=           0 FMFlag=      100000 FMFlg1=           0
         NFxFlg=           0 DoJE=F BraDBF=F KetDBF=F FulRan=T
         wScrn=  0.000000 ICntrl=       0 IOpCl=  0 I1Cent=           0 NGrid=           0
         NMat0=  120 NMatS0=     60 NMatT0=    0 NMatD0=  120 NMtDS0=    0 NMtDT0=    0
 Symmetry not used in FoFCou.
 New state      3 was old state      4
 New state      4 was old state      8
 New state      5 was old state      7
 New state      7 was old state      5
 New state      8 was old state     14
 New state      9 was old state      3
 New state     10 was old state     11
 New state     11 was old state     15
 New state     12 was old state     10
 New state     13 was old state     19
 New state     14 was old state     12
 New state     15 was old state      9
 Excitation Energies [eV] at current iteration:
 Root      1 :     4.745206897078662
 Root      2 :     5.355403211418818
 Root      3 :     5.549887043904642
 Root      4 :     6.126252114243839
 Root      5 :     6.278781156792970
 Root      6 :     6.487662121668110
 Root      7 :     6.506592484228993
 Root      8 :     6.551973371257799
 Root      9 :     6.609632985985412
 Root     10 :     7.049060905909490
 Root     11 :     7.380890817116613
 Root     12 :     7.407784799090211
 Root     13 :     7.668498687479123
 Root     14 :     7.762411685439627
 Root     15 :     7.816860485554102
 Root     16 :     7.892430623468002
 Root     17 :     7.922639085613490
 Root     18 :     8.177961654963902
 Root     19 :     8.273917711701580
 Root     20 :     8.653325481774230
 Root     21 :     9.176666599090039
 Root     22 :     9.230612718357767
 Root     23 :     9.250536293295227
 Root     24 :     9.320090621521180
 Root     25 :     9.322450406749434
 Root     26 :     9.403234557175528
 Root     27 :     9.429541863355047
 Root     28 :     9.740304436354055
 Root     29 :     9.826010344444176
 Root     30 :     9.875651928368908
 Root     31 :    10.044523749432080
 Root     32 :    10.082401901701400
 Root     33 :    10.117846343999120
 Root     34 :    10.145659938434230
 Root     35 :    10.249970991273990
 Root     36 :    10.508224167036310
 Root     37 :    10.617630377989800
 Root     38 :    10.694992637008410
 Root     39 :    10.716774847176620
 Root     40 :    10.901897530110150
 Root     41 :    11.020170021217460
 Root     42 :    11.140818704123950
 Root     43 :    11.378251861185450
 Root     44 :    11.451432903401450
 Root     45 :    11.470997286674920
 Root     46 :    11.614599659608100
 Root     47 :    11.715581820302220
 Root     48 :    11.894898307503630
 Root     49 :    12.081827293197320
 Root     50 :    12.126692720246110
 Root     51 :    12.271666612291070
 Root     52 :    12.461811726993880
 Root     53 :    12.651859521351170
 Root     54 :    12.853525534091890
 Root     55 :    12.974622811993400
 Root     56 :    13.149519249857270
 Root     57 :    13.240804746438560
 Root     58 :    13.473542179438740
 Root     59 :    13.635221954212620
 Root     60 :    13.966534071766470
 Iteration     2 Dimension   120 NMult    60 NNew     60
 CISAX will form    60 AO SS matrices at one time.
 NMat=    60 NSing=    60 JSym2X= 0.
 Root      1 not converged, maximum delta is    0.030197375622043
 Root      2 not converged, maximum delta is    0.017205786489015
 Root      3 not converged, maximum delta is    0.031968510210984
 Root      4 not converged, maximum delta is    0.058302291745542
 Root      5 not converged, maximum delta is    0.060780139064810
 Root      6 not converged, maximum delta is    0.175073594719625
 Root      7 not converged, maximum delta is    0.220232486709191
 Root      8 not converged, maximum delta is    0.241380535703852
 Root      9 not converged, maximum delta is    0.145225633988060
 Root     10 not converged, maximum delta is    0.061458891262908
 Root     11 not converged, maximum delta is    0.049853499116070
 Root     12 not converged, maximum delta is    0.040361482335557
 Root     13 not converged, maximum delta is    0.190943294506806
 Root     14 not converged, maximum delta is    0.260432646373917
 Root     15 not converged, maximum delta is    0.100468900317972
 Excitation Energies [eV] at current iteration:
 Root      1 :     4.671930425020013   Change is   -0.073276472058649
 Root      2 :     5.337558339562974   Change is   -0.017844871855844
 Root      3 :     5.528203237486665   Change is   -0.021683806417977
 Root      4 :     6.042327862144163   Change is   -0.083924252099676
 Root      5 :     6.162433183081272   Change is   -0.116347973711698
 Root      6 :     6.347124162264122   Change is   -0.140537959403988
 Root      7 :     6.405237218509193   Change is   -0.101355265719800
 Root      8 :     6.459574929551564   Change is   -0.092398441706236
 Root      9 :     6.529715054242566   Change is   -0.079917931742846
 Root     10 :     6.913809191734793   Change is   -0.135251714174697
 Root     11 :     7.289726461134473   Change is   -0.091164355982141
 Root     12 :     7.331555260481340   Change is   -0.076229538608871
 Root     13 :     7.539597244255976   Change is   -0.128901443223147
 Root     14 :     7.629399127809030   Change is   -0.133012557630596
 Root     15 :     7.740369474474501   Change is   -0.076491011079601
 Root     16 :     7.757384583487093   Change is   -0.135046039980908
 Root     17 :     7.873691112228508   Change is   -0.048947973384982
 Root     18 :     8.025646971964040   Change is   -0.152314682999861
 Root     19 :     8.132486020448841   Change is   -0.141431691252739
 Root     20 :     8.496986265386228   Change is   -0.156339216388002
 Root     21 :     8.848248486754709   Change is   -0.474201919994724
 Root     22 :     8.991075193447935   Change is   -0.329015428073245
 Root     23 :     9.039623099028846   Change is   -0.210913194266381
 Root     24 :     9.057748246632208   Change is   -0.118918352457830
 Root     25 :     9.115320769960556   Change is   -0.314221093394490
 Root     26 :     9.172470415753507   Change is   -0.058142302604260
 Root     27 :     9.326014505157339   Change is   -0.077220052018190
 Root     28 :     9.364655307675498   Change is   -0.461355036768677
 Root     29 :     9.555019032941837   Change is   -0.320632895427072
 Root     30 :     9.586309578313811   Change is   -0.531536765685307
 Root     31 :     9.733123676384601   Change is   -0.007180759969455
 Root     32 :     9.783861969102219   Change is   -0.466109022171774
 Root     33 :     9.928110472404477   Change is   -0.689519905585321
 Root     34 :     9.961559298556617   Change is   -0.120842603144783
 Root     35 :     9.972660852818748   Change is   -0.071862896613334
 Root     36 :    10.022788920316780   Change is   -0.122871018117446
 Root     37 :    10.033166313115380   Change is   -0.475057853920924
 Root     38 :    10.224715342832590   Change is   -0.470277294175816
 Root     39 :    10.367250333661100   Change is   -0.652919687556360
 Root     40 :    10.562342327566700   Change is   -0.578476376557257
 Root     41 :    10.609160016222990   Change is   -0.107614830953633
 Root     42 :    10.724356484418330   Change is   -0.177541045691819
 Root     43 :    10.786190616380030   Change is   -0.592061244805416
 Root     44 :    11.085172752946360   Change is   -0.385824533728563
 Root     45 :    11.143737822220140   Change is   -0.307695081181315
 Root     46 :    11.275078182837350   Change is   -0.339521476770750
 Root     47 :    11.368663440647100   Change is   -0.346918379655117
 Root     48 :    11.567657062251890   Change is   -0.514170230945425
 Root     49 :    11.653743662125370   Change is   -0.241154645378259
 Root     50 :    11.771696859072230   Change is   -0.499969753218837
 Root     51 :    11.920310247331230   Change is   -0.541501479662646
 Root     52 :    11.992991808759140   Change is   -0.133700911486965
 Root     53 :    12.310331711749160   Change is   -0.341527809602008
 Root     54 :    12.496123832722900   Change is   -0.357401701368991
 Root     55 :    12.537504843322130   Change is   -0.612014406535139
 Root     56 :    12.564995361718340   Change is   -0.409627450275057
 Root     57 :    12.666016331950120   Change is   -0.807525847488613
 Root     58 :    12.867932027263750   Change is   -0.372872719174810
 Root     59 :    12.946300027497730   Change is   -0.688921926714893
 Root     60 :    13.095039074837790
 Iteration     3 Dimension   135 NMult   120 NNew     15
 CISAX will form    15 AO SS matrices at one time.
 NMat=    15 NSing=    15 JSym2X= 0.
 Root      1 not converged, maximum delta is    0.002044566051224
 Root      2 not converged, maximum delta is    0.000334406944555
 Root      3 not converged, maximum delta is    0.000112951699455
 Root      4 not converged, maximum delta is    0.000105917964713
 Root      5 not converged, maximum delta is    0.000210273007374
 Root      6 not converged, maximum delta is    0.000456476861514
 Root      7 not converged, maximum delta is    0.001036450306543
 Root      8 not converged, maximum delta is    0.000279643768968
 Root      9 not converged, maximum delta is    0.000974256661574
 Root     10 not converged, maximum delta is    0.000205871814739
 Root     11 not converged, maximum delta is    0.000280686503208
 Root     12 not converged, maximum delta is    0.000302217419862
 Root     13 not converged, maximum delta is    0.000369968537993
 Root     14 not converged, maximum delta is    0.000423116596350
 Root     15 not converged, maximum delta is    0.000227655803960
 Excitation Energies [eV] at current iteration:
 Root      1 :     4.671566438517662   Change is   -0.000363986502351
 Root      2 :     5.337529655461462   Change is   -0.000028684101512
 Root      3 :     5.528197831461690   Change is   -0.000005406024975
 Root      4 :     6.042324628674352   Change is   -0.000003233469811
 Root      5 :     6.162426812580202   Change is   -0.000006370501070
 Root      6 :     6.347101114982826   Change is   -0.000023047281295
 Root      7 :     6.404935922101338   Change is   -0.000301296407855
 Root      8 :     6.459569320389833   Change is   -0.000005609161730
 Root      9 :     6.529486350632546   Change is   -0.000228703610020
 Root     10 :     6.913796079305052   Change is   -0.000013112429742
 Root     11 :     7.289704337875296   Change is   -0.000022123259177
 Root     12 :     7.331541066034738   Change is   -0.000014194446602
 Root     13 :     7.539565143834265   Change is   -0.000032100421711
 Root     14 :     7.629366488977594   Change is   -0.000032638831437
 Root     15 :     7.740359338343056   Change is   -0.000010136131444
 Iteration     4 Dimension   143 NMult   135 NNew      8
 CISAX will form     8 AO SS matrices at one time.
 NMat=     8 NSing=     8 JSym2X= 0.
 Root      1 not converged, maximum delta is    0.000078201218191
 Root      2 not converged, maximum delta is    0.000010664039528
 Root      3 not converged, maximum delta is    0.000003261939300
 Root      4 not converged, maximum delta is    0.000008502470709
 Root      5 not converged, maximum delta is    0.000006021192501
 Root      6 not converged, maximum delta is    0.000015200318586
 Root      7 not converged, maximum delta is    0.000061534095119
 Root      8 not converged, maximum delta is    0.000010138641134
 Root      9 not converged, maximum delta is    0.000073360960011
 Root     10 not converged, maximum delta is    0.000009632299176
 Root     11 not converged, maximum delta is    0.000013330736274
 Root     12 not converged, maximum delta is    0.000007840204052
 Root     13 not converged, maximum delta is    0.000020443506576
 Root     14 not converged, maximum delta is    0.000013464553390
 Root     15 not converged, maximum delta is    0.000009970743128
 Excitation Energies [eV] at current iteration:
 Root      1 :     4.671565034350394   Change is   -0.000001404167268
 Root      2 :     5.337529616426519   Change is   -0.000000039034944
 Root      3 :     5.528197827304758   Change is   -0.000000004156933
 Root      4 :     6.042324614721405   Change is   -0.000000013952947
 Root      5 :     6.162426801643721   Change is   -0.000000010936481
 Root      6 :     6.347101064652360   Change is   -0.000000050330466
 Root      7 :     6.404934442297177   Change is   -0.000001479804160
 Root      8 :     6.459569300113134   Change is   -0.000000020276700
 Root      9 :     6.529485105693131   Change is   -0.000001244939416
 Root     10 :     6.913796047909115   Change is   -0.000000031395937
 Root     11 :     7.289704296225314   Change is   -0.000000041649982
 Root     12 :     7.331541047047993   Change is   -0.000000018986745
 Root     13 :     7.539565059893816   Change is   -0.000000083940450
 Root     14 :     7.629366410060779   Change is   -0.000000078916814
 Root     15 :     7.740359306258943   Change is   -0.000000032084113
 Convergence achieved on expansion vectors.
 ***********************************************************************
 Excited states from <AA,BB:AA,BB> singles matrix:
 ***********************************************************************
 
 1PDM for each excited state written to RWF  633
 Ground to excited state transition densities written to RWF  633
 Ground to excited state transition electric dipole moments (Au):
       state          X           Y           Z        Dip. S.      Osc.
         1        -0.6892      0.3228      0.0762      0.5850      0.0670
         2         0.0652      0.1664     -0.0195      0.0323      0.0042
         3         0.0049     -0.0300      0.0402      0.0025      0.0003
         4         0.0068     -0.0724      0.1335      0.0231      0.0034
         5         0.0982     -0.0167     -0.0106      0.0100      0.0015
         6        -0.1121     -0.2169      0.0672      0.0641      0.0100
         7         0.7728      1.1267     -0.0054      1.8667      0.2929
         8         0.0830     -0.1281      0.0534      0.0261      0.0041
         9         0.3203     -1.0629      0.0127      1.2325      0.1972
        10         0.0675      0.0529      0.0238      0.0079      0.0013
        11         0.0033     -0.0434      0.0095      0.0020      0.0004
        12        -0.0597     -0.0463     -0.1074      0.0173      0.0031
        13         0.0104     -0.0460     -0.0498      0.0047      0.0009
        14         0.0385     -0.0014      0.0301      0.0024      0.0004
        15        -0.0286     -0.0571      0.0590      0.0075      0.0014
 Ground to excited state transition velocity dipole moments (Au):
       state          X           Y           Z        Dip. S.      Osc.
         1         0.0406     -0.0280     -0.0049      0.0025      0.0095
         2         0.0027     -0.0015      0.0078      0.0001      0.0002
         3         0.0011      0.0008     -0.0075      0.0001      0.0002
         4        -0.0028      0.0170     -0.1305      0.0173      0.0520
         5        -0.0198      0.0017      0.0166      0.0007      0.0020
         6         0.0228      0.0479     -0.0698      0.0077      0.0220
         7        -0.1498     -0.2330     -0.0103      0.0769      0.2177
         8        -0.0175      0.0255     -0.1371      0.0198      0.0555
         9        -0.0579      0.2217      0.0210      0.0530      0.1472
        10        -0.0147     -0.0148     -0.0152      0.0007      0.0017
        11        -0.0025      0.0075      0.0167      0.0003      0.0008
        12         0.0091      0.0121     -0.0738      0.0057      0.0140
        13        -0.0048      0.0120      0.0072      0.0002      0.0005
        14        -0.0061      0.0075      0.0108      0.0002      0.0005
        15         0.0071      0.0184      0.0259      0.0011      0.0025
 Ground to excited state transition magnetic dipole moments (Au):
       state          X           Y           Z
         1        -0.0004     -0.0208     -0.7642
         2         0.0625      0.1436      0.0006
         3         0.1579      0.6235     -0.0282
         4         0.3105     -0.1582     -0.0134
         5         0.0035     -0.0949      0.0238
         6        -0.0404     -0.0613     -0.0076
         7        -0.0690     -0.0227      0.0188
         8        -0.1718      0.0216     -0.0268
         9         0.0330     -0.0396     -0.0393
        10         0.1705      0.7194     -0.0243
        11         0.7086      0.7257      0.0054
        12        -0.9814      0.5027     -0.0379
        13        -0.6201     -0.2633     -0.0206
        14         0.5309     -0.5396     -0.0297
        15        -0.7677      0.6154      0.0033
 Ground to excited state transition velocity quadrupole moments (Au):
       state          XX          YY          ZZ          XY          XZ          YZ
         1        -0.2343      0.2466      0.0013     -0.4216      0.0049     -0.0107
         2         0.0584     -0.1244      0.0797     -0.0566      0.0240     -0.0098
         3        -0.0297      0.0400     -0.0054      0.0092      0.1197     -0.0145
         4        -0.0217      0.0025      0.0106     -0.0270      0.0412      0.3138
         5        -0.0344      0.0139      0.0065     -0.0422      0.0669     -0.0679
         6        -0.0556      0.0291     -0.0155      0.0669      0.1828      0.0036
         7         0.1701     -0.0386     -0.0336     -0.3960      0.0347      0.0206
         8        -0.0625      0.0499      0.0147     -0.0692     -0.0746     -0.0923
         9        -0.4432      0.3702      0.0170     -0.2385      0.0034     -0.0311
        10        -0.0037      0.0147     -0.0229     -0.0485     -0.2345      0.0020
        11        -0.0481     -0.0134      0.0049     -0.0022      0.1941     -0.0835
        12        -0.0554      0.0169      0.0031     -0.0198      0.0315      0.0146
        13        -0.0194      0.0142      0.0121     -0.0128      0.1345     -0.1528
        14        -0.0208      0.0082      0.0116     -0.0120     -0.0253      0.0518
        15        -0.0162      0.0173      0.0012      0.0140     -0.0038      0.0589
 <0|del|b> * <b|rxdel|0> + <0|del|b> * <b|delr+rdel|0>
 Rotatory Strengths (R) in cgs (10**-40 erg-esu-cm/Gauss)
       state          XX          YY          ZZ    R(velocity)    E-M Angle
         1        13.4306      2.5247      1.7743      5.9099       83.48
         2        -1.1152      1.0657     -0.1011     -0.0502       90.00
         3         0.9314      0.7598      1.3389      1.0100       79.73
         4         2.9885     -5.5939     -3.1528     -1.9194       92.26
         5        -0.9180      3.7055     -2.2853      0.1674       86.37
         6       -23.9887      6.6048      7.3002     -3.3612      120.94
         7        25.9167      4.5029     15.9689     15.4628       42.10
         8        23.2607     -1.7659      0.0631      7.1860       72.92
         9       -22.6521      6.0177    -17.3139    -11.3161      140.59
        10       -18.0890     -4.0334    -13.4160    -11.8461      132.04
        11         5.3160     -1.9031      6.4520      3.2883       78.47
        12        13.0426     -9.7823     -3.4265     -0.0554       90.00
        13        -6.4044      4.6578      0.8866     -0.2867       91.93
        14        -5.4457     -4.6994     -9.0258     -6.3903      133.94
        15        14.7410     -6.5730      6.7457      4.9712       79.21
 1/2[<0|r|b>*<b|rxdel|0> + (<0|rxdel|b>*<b|r|0>)*]
 Rotatory Strengths (R) in cgs (10**-40 erg-esu-cm/Gauss)
       state          XX          YY          ZZ     R(length)
         1        -0.1932      4.7466     41.1724     15.2419
         2        -2.8802    -16.8948      0.0082     -6.5890
         3        -0.5512     13.2174      0.8022      4.4895
         4        -1.5025     -8.1011      1.2620     -2.7805
         5        -0.2443     -1.1222      0.1777     -0.3963
         6        -3.1994     -9.4044      0.3632     -4.0802
         7        37.7252     18.0874      0.0718     18.6281
         8        10.0808      1.9551      1.0135      4.3498
         9        -7.4640    -29.7807      0.3536    -12.2970
        10        -8.1377    -26.9358      0.4091    -11.5548
        11        -1.6757     22.2596     -0.0364      6.8491
        12       -41.4618     16.4732     -2.8784     -9.2890
        13         4.5514     -8.5556     -0.7249     -1.5764
        14       -14.4517     -0.5261      0.6322     -4.7818
        15       -15.5125     24.8284     -0.1375      3.0595
  1/2[<0|del|b>*<b|r|0> + (<0|r|b>*<b|del|0>)*] (Au)
       state          X           Y           Z        Dip. S.   Osc.(frdel)
         1        -0.0280     -0.0090     -0.0004      0.0374      0.0249
         2         0.0002     -0.0003     -0.0002      0.0002      0.0002
         3         0.0000      0.0000     -0.0003      0.0003      0.0002
         4         0.0000     -0.0012     -0.0174      0.0187      0.0124
         5        -0.0019      0.0000     -0.0002      0.0022      0.0014
         6        -0.0026     -0.0104     -0.0047      0.0176      0.0118
         7        -0.1158     -0.2626      0.0001      0.3783      0.2522
         8        -0.0015     -0.0033     -0.0073      0.0120      0.0080
         9        -0.0185     -0.2357      0.0003      0.2540      0.1693
        10        -0.0010     -0.0008     -0.0004      0.0021      0.0014
        11         0.0000     -0.0003      0.0002      0.0002      0.0001
        12        -0.0005     -0.0006      0.0079     -0.0068     -0.0045
        13         0.0000     -0.0006     -0.0004      0.0010      0.0006
        14        -0.0002      0.0000      0.0003     -0.0001     -0.0001
        15        -0.0002     -0.0011      0.0015     -0.0003     -0.0002

 Excitation energies and oscillator strengths:
 
 Excited State   1:      Singlet-A      4.6716 eV  265.40 nm  f=0.0670  <S**2>=0.000
      12 -> 15         0.20124
      13 -> 14         0.67082
 This state for optimization and/or second-order correction.
 Total Energy, E(CIS) =  0.201637830581    
 Copying the excited state density for this state as the 1-particle RhoCI density.
 
 Excited State   2:      Singlet-A      5.3375 eV  232.29 nm  f=0.0042  <S**2>=0.000
      12 -> 14        -0.42664
      13 -> 15         0.54622
      13 -> 16         0.11173
 
 Excited State   3:      Singlet-A      5.5282 eV  224.28 nm  f=0.0003  <S**2>=0.000
      13 -> 16         0.66381
      13 -> 21        -0.10682
      13 -> 22         0.10819
 
 Excited State   4:      Singlet-A      6.0423 eV  205.19 nm  f=0.0034  <S**2>=0.000
       7 -> 16        -0.10086
      12 -> 16         0.41694
      12 -> 21        -0.21503
      13 -> 17         0.22323
      13 -> 18         0.37697
      13 -> 19         0.11964
      13 -> 21        -0.10752
      13 -> 23         0.12514
 
 Excited State   5:      Singlet-A      6.1624 eV  201.19 nm  f=0.0015  <S**2>=0.000
       7 -> 16        -0.15795
      12 -> 15         0.10022
      12 -> 16         0.46443
      12 -> 19        -0.12126
      12 -> 22         0.10682
      13 -> 17        -0.21568
      13 -> 18        -0.27185
      13 -> 19        -0.12401
      13 -> 21         0.17063
      13 -> 23        -0.12528
 
 Excited State   6:      Singlet-A      6.3471 eV  195.34 nm  f=0.0100  <S**2>=0.000
      12 -> 17        -0.12002
      12 -> 18        -0.28320
      12 -> 23        -0.11805
      12 -> 24        -0.12033
      13 -> 17         0.15694
      13 -> 18         0.18345
      13 -> 19        -0.25261
      13 -> 20         0.11582
      13 -> 21         0.42235
 
 Excited State   7:      Singlet-A      6.4049 eV  193.58 nm  f=0.2929  <S**2>=0.000
      12 -> 14         0.45480
      12 -> 15         0.30675
      13 -> 15         0.36460
 
 Excited State   8:      Singlet-A      6.4596 eV  191.94 nm  f=0.0041  <S**2>=0.000
      11 -> 14        -0.15280
      12 -> 15         0.10477
      12 -> 19        -0.13512
      13 -> 17         0.54358
      13 -> 18        -0.18870
      13 -> 19        -0.11426
      13 -> 23        -0.18469
      13 -> 24        -0.13450
 
 Excited State   9:      Singlet-A      6.5295 eV  189.88 nm  f=0.1972  <S**2>=0.000
      12 -> 14        -0.23176
      12 -> 15         0.56756
      12 -> 16        -0.10617
      13 -> 14        -0.17125
      13 -> 15        -0.19291
 
 Excited State  10:      Singlet-A      6.9138 eV  179.33 nm  f=0.0013  <S**2>=0.000
      12 -> 17         0.54094
      12 -> 18         0.17215
      12 -> 20         0.12586
      12 -> 24        -0.10957
      13 -> 18         0.10424
      13 -> 19        -0.30514
 
 Excited State  11:      Singlet-A      7.2897 eV  170.08 nm  f=0.0004  <S**2>=0.000
      10 -> 14         0.47203
      10 -> 15         0.14460
      11 -> 15        -0.43366
 
 Excited State  12:      Singlet-A      7.3315 eV  169.11 nm  f=0.0031  <S**2>=0.000
       9 -> 14         0.13735
      10 -> 15        -0.18102
      11 -> 14         0.59757
      11 -> 15        -0.18411
      13 -> 17         0.12904
 
 Excited State  13:      Singlet-A      7.5396 eV  164.44 nm  f=0.0009  <S**2>=0.000
      10 -> 14        -0.15534
      11 -> 14        -0.14001
      12 -> 17        -0.13495
      12 -> 18         0.39564
      12 -> 20        -0.12546
      12 -> 21         0.15412
      12 -> 23         0.15089
      12 -> 24        -0.11246
      13 -> 18         0.13949
      13 -> 20        -0.18873
      13 -> 21         0.25573
      13 -> 22        -0.14163
      13 -> 24        -0.10379
 
 Excited State  14:      Singlet-A      7.6294 eV  162.51 nm  f=0.0004  <S**2>=0.000
       9 -> 14        -0.18609
      10 -> 14         0.17738
      10 -> 15         0.11441
      12 -> 18         0.11268
      12 -> 20         0.23970
      13 -> 16         0.11770
      13 -> 19         0.37912
      13 -> 21         0.30962
      13 -> 22        -0.13567
      13 -> 23         0.11178
 
 Excited State  15:      Singlet-A      7.7404 eV  160.18 nm  f=0.0014  <S**2>=0.000
       8 -> 15         0.10693
       9 -> 14         0.39759
      10 -> 14        -0.10385
      10 -> 15        -0.17692
      11 -> 14        -0.20244
      11 -> 15        -0.28113
      12 -> 20         0.12460
      12 -> 23        -0.10657
      13 -> 18        -0.11100
      13 -> 19         0.19482
      13 -> 20         0.14562
      13 -> 22        -0.13047
      13 -> 23        -0.11031
 SavETr:  write IOETrn=   770 NScale= 10 NData=  16 NLR=1 NState=   15 LETran=     280.
 The selected state is a singlet
 CISAX will form     1 AO SS matrices at one time.
 NMat=     1 NSing=     1 JSym2X= 0.
 Leave Link  914 at Tue Dec 15 16:19:42 2015, MaxMem=    33554432 cpu:         0.1
 (Enter /home/Applications/g09/g09/l1002.exe)
 Minotr:  Closed shell wavefunction.
          Computing CIS/TD-HF/TD-KS derivatives.
          Using Z-Vector for PSCF gradient.
          Skipping F1 and S1 gradient terms here.
          IDoAtm=111111111
          Direct CPHF calculation.
          Differentiating once with respect to electric field.
                with respect to dipole field.
          Differentiating once with respect to nuclear coordinates.
          Electric field/nuclear overlap derivatives assumed to be zero.
          Requested convergence is 1.0D-10 RMS, and 1.0D-09 maximum.
          NewPWx=T KeepS1=F KeepF1=F KeepIn=T MapXYZ=F SortEE=F KeepMc=T.
          MDV=      33495423 using IRadAn=       0.
 Keep J ints in memory in canonical form, NReq=871704.
 FoFCou: FMM=F IPFlag=           0 FMFlag=           0 FMFlg1=           0
         NFxFlg=           0 DoJE=F BraDBF=F KetDBF=F FulRan=T
         wScrn=  0.000000 ICntrl=     600 IOpCl=  2 I1Cent=           0 NGrid=           0
         NMat0=    1 NMatS0=     54 NMatT0=    0 NMatD0=    1 NMtDS0=    0 NMtDT0=    0
 Symmetry not used in FoFCou.
          Solving linear equations separately, MaxMat=       0.
          There are     1 degrees of freedom in the 1st order CPHF.  IDoFFX=0 NUNeed=     1.
 LinEq1:  Iter=  0 NonCon=     1 RMS=1.02D-02 Max=7.44D-02 NDo=     1
 AX will form     1 AO Fock derivatives at one time.
 LinEq1:  Iter=  1 NonCon=     1 RMS=1.89D-03 Max=1.32D-02 NDo=     1
 LinEq1:  Iter=  2 NonCon=     1 RMS=2.91D-04 Max=2.23D-03 NDo=     1
 LinEq1:  Iter=  3 NonCon=     1 RMS=3.73D-05 Max=1.88D-04 NDo=     1
 LinEq1:  Iter=  4 NonCon=     1 RMS=3.54D-06 Max=1.52D-05 NDo=     1
 LinEq1:  Iter=  5 NonCon=     1 RMS=3.66D-07 Max=1.78D-06 NDo=     1
 LinEq1:  Iter=  6 NonCon=     1 RMS=4.32D-08 Max=1.50D-07 NDo=     1
 LinEq1:  Iter=  7 NonCon=     1 RMS=5.38D-09 Max=2.34D-08 NDo=     1
 LinEq1:  Iter=  8 NonCon=     1 RMS=6.27D-10 Max=2.01D-09 NDo=     1
 LinEq1:  Iter=  9 NonCon=     0 RMS=9.28D-11 Max=3.42D-10 NDo=     1
 Linear equations converged to 1.000D-10 1.000D-09 after     9 iterations.
 End of Minotr F.D. properties file   721 does not exist.
 End of Minotr F.D. properties file   722 does not exist.
 End of Minotr F.D. properties file   788 does not exist.
 Leave Link 1002 at Tue Dec 15 16:19:42 2015, MaxMem=    33554432 cpu:         0.0
 (Enter /home/Applications/g09/g09/l601.exe)
 Copying SCF densities to generalized density rwf, IOpCl= 0 IROHF=0.

 **********************************************************************

            Population analysis using the SCF density.

 **********************************************************************

 Orbital symmetries:
       Occupied  (A) (A) (A) (A) (A) (A) (A) (A) (A) (A) (A) (A)
                 (A)
       Virtual   (A) (A) (A) (A) (A) (A) (A) (A) (A) (A) (A)
 The electronic state is 1-A.
 Alpha  occ. eigenvalues --   -1.57096  -1.25034  -1.10373  -0.82485  -0.81002
 Alpha  occ. eigenvalues --   -0.68570  -0.60177  -0.55664  -0.52231  -0.50892
 Alpha  occ. eigenvalues --   -0.48625  -0.39887  -0.35812
 Alpha virt. eigenvalues --    0.03454   0.06510   0.10482   0.12901   0.14351
 Alpha virt. eigenvalues --    0.15768   0.17542   0.18508   0.18924   0.20508
 Alpha virt. eigenvalues --    0.22120
     Molecular Orbital Coefficients:
                           1         2         3         4         5
                           O         O         O         O         O
     Eigenvalues --    -1.57096  -1.25034  -1.10373  -0.82485  -0.81002
   1 1   C  1S          0.29014  -0.42903   0.33870  -0.29577  -0.32031
   2        1PX        -0.09854   0.09292   0.11274  -0.17371   0.06421
   3        1PY        -0.09060   0.00834  -0.17266   0.06245  -0.32174
   4        1PZ        -0.00069   0.00133  -0.00142   0.00203   0.00683
   5 2   C  1S          0.36822  -0.09992   0.52505   0.09782   0.38598
   6        1PX        -0.17159  -0.11704   0.04401  -0.17758   0.08481
   7        1PY         0.04480  -0.20718   0.05167  -0.32556  -0.09592
   8        1PZ         0.00003  -0.00170   0.00146  -0.00276   0.00882
   9 3   O  1S          0.61073   0.61790  -0.01944   0.06576  -0.30259
  10        1PX         0.05362  -0.00004   0.27569   0.49104   0.11749
  11        1PY         0.19605  -0.00715  -0.07811  -0.19321   0.17938
  12        1PZ         0.00554   0.00257  -0.00082  -0.00698   0.00904
  13 4   C  1S          0.39045  -0.13731  -0.48689  -0.19991   0.35495
  14        1PX         0.17145  -0.01985   0.01688   0.04734  -0.09507
  15        1PY        -0.05720  -0.26528  -0.04944   0.36669   0.06656
  16        1PZ        -0.00872  -0.00054   0.00973   0.00750  -0.00149
  17 5   C  1S          0.30170  -0.46830  -0.30042   0.34687  -0.20303
  18        1PX         0.03045  -0.05392   0.19040  -0.12904  -0.28221
  19        1PY        -0.13297   0.06135   0.07693   0.11756  -0.22970
  20        1PZ         0.00201  -0.00370  -0.00310   0.00376   0.00494
  21 6   H  1S          0.06944  -0.15691  -0.12099   0.24032  -0.16180
  22 7   H  1S          0.08203  -0.02181  -0.18282  -0.15523   0.19290
  23 8   H  1S          0.08029  -0.02440   0.20945   0.08353   0.24683
  24 9   H  1S          0.06080  -0.13211   0.12549  -0.17933  -0.22185
                           6         7         8         9        10
                           O         O         O         O         O
     Eigenvalues --    -0.68570  -0.60177  -0.55664  -0.52231  -0.50892
   1 1   C  1S         -0.05787  -0.00556   0.18511  -0.00016   0.03018
   2        1PX        -0.27252  -0.00987   0.18241   0.14768  -0.08600
   3        1PY        -0.10059   0.01131   0.19004   0.28791  -0.41407
   4        1PZ         0.00278   0.23136   0.00773  -0.01521   0.01185
   5 2   C  1S         -0.11304   0.00062  -0.14176   0.04769   0.04460
   6        1PX        -0.37079   0.01968  -0.28334  -0.25371  -0.25900
   7        1PY         0.16275  -0.01720  -0.04133  -0.21997   0.43349
   8        1PZ        -0.00426   0.37615   0.00892  -0.00662   0.00516
   9 3   O  1S         -0.18153  -0.00512   0.03713  -0.21126   0.04070
  10        1PX         0.17222  -0.02340   0.38354   0.25405   0.09083
  11        1PY         0.41800  -0.00671  -0.22750   0.51726  -0.12304
  12        1PZ         0.01035   0.76096   0.03860   0.01816   0.02883
  13 4   C  1S         -0.09751   0.00554   0.15573   0.06647  -0.05903
  14        1PX         0.37564   0.02870  -0.24300  -0.12843  -0.37027
  15        1PY        -0.02063  -0.02587   0.28993  -0.30281  -0.04314
  16        1PZ         0.00556   0.39994   0.03314  -0.00962   0.01826
  17 5   C  1S         -0.07519   0.01005  -0.17014  -0.05295  -0.02762
  18        1PX         0.18186   0.01273  -0.04143   0.03429  -0.08397
  19        1PY        -0.25230   0.01925  -0.32757   0.37213   0.28866
  20        1PZ         0.00459   0.24600   0.02651  -0.01900   0.00555
  21 6   H  1S         -0.22476   0.01513  -0.32222   0.23644   0.22100
  22 7   H  1S         -0.26327  -0.02535   0.20674   0.19303   0.25623
  23 8   H  1S         -0.29329   0.02859  -0.22328   0.00028  -0.36265
  24 9   H  1S         -0.19682  -0.00794   0.29807   0.23292  -0.23929
                          11        12        13        14        15
                           O         O         O         V         V
     Eigenvalues --    -0.48625  -0.39887  -0.35812   0.03454   0.06510
   1 1   C  1S          0.03561   0.00734   0.00821  -0.00457  -0.00937
   2        1PX        -0.53252  -0.00066   0.00951  -0.00780  -0.00920
   3        1PY         0.15008   0.01176   0.00221  -0.00717  -0.00574
   4        1PZ        -0.00088   0.53049   0.44753  -0.40889  -0.54374
   5 2   C  1S          0.03796  -0.00125  -0.01063  -0.00964  -0.01397
   6        1PX         0.01079  -0.00400  -0.01576  -0.01955   0.00172
   7        1PY        -0.21179  -0.00317   0.00544   0.01095   0.01948
   8        1PZ         0.00305   0.14544   0.60199   0.59139   0.35094
   9 3   O  1S         -0.05886   0.00056   0.00294   0.00132   0.01315
  10        1PX         0.00876   0.00088   0.00633   0.00033  -0.00351
  11        1PY        -0.14715   0.02654   0.00503   0.00178   0.03067
  12        1PZ        -0.00466  -0.54376  -0.02426  -0.34603   0.03531
  13 4   C  1S          0.02974   0.00861  -0.02369   0.02572  -0.04500
  14        1PX        -0.28995  -0.00693  -0.00260  -0.01460   0.00125
  15        1PY        -0.18594  -0.00293   0.01273  -0.00166   0.03364
  16        1PZ        -0.01109   0.22687  -0.55265   0.52128  -0.45100
  17 5   C  1S          0.01949  -0.01166   0.00424  -0.00566   0.00160
  18        1PX         0.53455   0.01061  -0.01337   0.00310  -0.00065
  19        1PY        -0.05643   0.02207  -0.01277   0.00468   0.00302
  20        1PZ        -0.01286   0.59024  -0.35980  -0.29817   0.60737
  21 6   H  1S         -0.18162   0.00713  -0.00461   0.00225  -0.00630
  22 7   H  1S          0.30665   0.00455   0.01053  -0.02626   0.04464
  23 8   H  1S          0.15709   0.00537   0.00061   0.01583   0.02161
  24 9   H  1S         -0.24530  -0.00250   0.00324   0.00869   0.00861
                          16        17        18        19        20
                           V         V         V         V         V
     Eigenvalues --     0.10482   0.12901   0.14351   0.15768   0.17542
   1 1   C  1S          0.08228  -0.19235   0.30015   0.11851  -0.39976
   2        1PX         0.05270   0.33940   0.22504  -0.17895   0.00650
   3        1PY         0.01042  -0.20668  -0.08468  -0.25881  -0.34140
   4        1PZ         0.02220  -0.00176  -0.01981   0.01021   0.01895
   5 2   C  1S         -0.32054   0.02954  -0.29210  -0.33314  -0.15097
   6        1PX         0.29765   0.20860   0.16240  -0.33105   0.00468
   7        1PY         0.23865  -0.11422  -0.08225  -0.02553   0.21244
   8        1PZ        -0.02346   0.01860   0.00782  -0.02109  -0.01384
   9 3   O  1S          0.21809  -0.03479  -0.00029  -0.07334   0.03950
  10        1PX         0.19482   0.15247   0.32983   0.00087   0.12844
  11        1PY         0.46342  -0.13578  -0.09590  -0.16282   0.02508
  12        1PZ         0.01507  -0.01628   0.00049  -0.00556   0.00895
  13 4   C  1S         -0.27909  -0.09815   0.41774  -0.12245   0.19227
  14        1PX        -0.08343   0.44203   0.05495   0.23096  -0.21219
  15        1PY         0.32804  -0.10973  -0.02604  -0.16482   0.04282
  16        1PZ         0.05420   0.02300  -0.04335   0.01062  -0.02205
  17 5   C  1S          0.06817   0.16180  -0.25513  -0.16879   0.12344
  18        1PX        -0.00530   0.35494   0.22867  -0.16830   0.41955
  19        1PY         0.02159  -0.09328   0.09135  -0.23453   0.08493
  20        1PZ        -0.04003  -0.00876   0.01367  -0.00259   0.00371
  21 6   H  1S         -0.12832   0.08041   0.24570   0.32896  -0.04849
  22 7   H  1S          0.32038   0.48585  -0.27537   0.23925  -0.26885
  23 8   H  1S          0.30060  -0.28578   0.07413   0.47429   0.22028
  24 9   H  1S         -0.16998   0.03777  -0.40928   0.18815   0.47998
                          21        22        23        24
                           V         V         V         V
     Eigenvalues --     0.18508   0.18924   0.20508   0.22120
   1 1   C  1S         -0.21058  -0.01618   0.14185   0.12024
   2        1PX        -0.13548  -0.36963  -0.39030   0.07746
   3        1PY         0.41279  -0.03894  -0.22601  -0.27297
   4        1PZ         0.00622   0.00358   0.00102   0.00469
   5 2   C  1S          0.19186   0.06080  -0.13379   0.00990
   6        1PX        -0.05146   0.41154   0.23616  -0.26446
   7        1PY         0.44853  -0.12084  -0.16012  -0.40381
   8        1PZ        -0.00587   0.00976   0.00498  -0.00806
   9 3   O  1S         -0.00733   0.09331  -0.00662   0.01146
  10        1PX        -0.01183   0.07868   0.18500  -0.43465
  11        1PY        -0.14727   0.18922  -0.06791   0.14737
  12        1PZ         0.00070   0.00591  -0.00466   0.00957
  13 4   C  1S          0.19430  -0.04002   0.16250   0.00579
  14        1PX         0.34516  -0.13561   0.27964   0.01636
  15        1PY         0.30038   0.12993  -0.02256   0.55990
  16        1PZ        -0.00521   0.00504  -0.00761   0.00829
  17 5   C  1S         -0.35818  -0.30854  -0.06628  -0.17754
  18        1PX         0.13432  -0.00757  -0.26497   0.25187
  19        1PY         0.21908  -0.30493   0.49433   0.20973
  20        1PZ        -0.01706  -0.00427  -0.00628  -0.01608
  21 6   H  1S          0.14023   0.47266  -0.37639   0.03113
  22 7   H  1S          0.16627  -0.03572   0.08470   0.07390
  23 8   H  1S          0.11987  -0.32770  -0.11545  -0.03846
  24 9   H  1S          0.02950   0.25664   0.22778   0.00247
     Density Matrix:
                           1         2         3         4         5
   1 1   C  1S          1.22599
   2        1PX         0.05725   0.97173
   3        1PY         0.06017   0.03783   0.93775
   4        1PZ         0.00768  -0.00081  -0.00027   1.07145
   5 2   C  1S          0.31572   0.01850  -0.51513  -0.01043   1.23698
   6        1PX         0.00408   0.15073  -0.02399  -0.01389   0.09200
   7        1PY         0.47005   0.04780  -0.60645   0.00775  -0.03269
   8        1PZ         0.01061   0.00541   0.00511   0.86771  -0.00604
   9 3   O  1S         -0.00082   0.03431  -0.01321   0.00489   0.09462
  10        1PX        -0.01938  -0.00719   0.06516  -0.00019   0.40092
  11        1PY        -0.08377   0.05262   0.03727   0.01157   0.16148
  12        1PZ        -0.00356   0.00183  -0.00528  -0.24564   0.00180
  13 4   C  1S         -0.02741   0.01028   0.01683  -0.00660   0.02031
  14        1PX        -0.01600  -0.02176   0.00806  -0.00386   0.00061
  15        1PY        -0.00417   0.06576  -0.05472   0.01112  -0.04260
  16        1PZ         0.00025  -0.00280  -0.00045  -0.06761   0.00511
  17 5   C  1S          0.24352  -0.41364   0.16389  -0.00822  -0.02941
  18        1PX         0.44643  -0.62400   0.29120  -0.00352  -0.00270
  19        1PY        -0.07896   0.12233   0.04648   0.00751   0.02340
  20        1PZ         0.00558  -0.00063   0.00555   0.41926  -0.00085
  21 6   H  1S         -0.03862   0.05542  -0.01745   0.00116   0.04831
  22 7   H  1S          0.05549  -0.07678   0.02651   0.00626   0.05652
  23 8   H  1S         -0.05778   0.00253   0.08687   0.00845   0.60005
  24 9   H  1S          0.58310   0.61302   0.47512  -0.01680  -0.06123
                           6         7         8         9        10
   6        1PX         0.86758
   7        1PY        -0.07856   0.94494
   8        1PZ        -0.00349  -0.00238   1.05059
   9 3   O  1S         -0.23251  -0.09689  -0.00291   1.87036
  10        1PX        -0.67056  -0.32046  -0.00655  -0.08654   1.16805
  11        1PY        -0.35703  -0.01308  -0.00388  -0.28006   0.03814
  12        1PZ        -0.01729  -0.00168   0.38590  -0.01062   0.00608
  13 4   C  1S         -0.03106  -0.03450  -0.01311   0.09546  -0.23060
  14        1PX         0.02546   0.01242   0.00320   0.15152  -0.14415
  15        1PY        -0.01998  -0.00690   0.00270  -0.21215   0.39408
  16        1PZ         0.00468  -0.00154  -0.29776  -0.00959   0.01170
  17 5   C  1S          0.01614  -0.01642   0.00265   0.00235  -0.02873
  18        1PX        -0.05601  -0.06943  -0.00731  -0.03658  -0.04314
  19        1PY        -0.00853  -0.00740  -0.00516   0.00480  -0.00903
  20        1PZ         0.00377  -0.00021  -0.07571   0.00183   0.00138
  21 6   H  1S          0.00104   0.05067  -0.00188   0.02211  -0.02949
  22 7   H  1S         -0.09863  -0.03292   0.00663  -0.04234   0.02010
  23 8   H  1S          0.54497  -0.52188   0.02412  -0.03713  -0.07246
  24 9   H  1S          0.02428  -0.06192  -0.00497   0.02146   0.07931
                          11        12        13        14        15
  11        1PY         1.29140
  12        1PZ        -0.02697   1.75653
  13 4   C  1S          0.35803   0.02257   1.23506
  14        1PX         0.47988   0.01644  -0.10274   0.96011
  15        1PY        -0.52550  -0.03244   0.02413   0.07095   0.85686
  16        1PZ        -0.02885   0.39200   0.01948   0.00450  -0.00311
  17 5   C  1S         -0.07482   0.00228   0.33269   0.23301   0.40232
  18        1PX         0.00154  -0.00309  -0.29671  -0.03875  -0.37079
  19        1PY         0.07659  -0.00099  -0.44526  -0.29674  -0.37958
  20        1PZ         0.00060  -0.24811   0.04096   0.00676   0.01110
  21 6   H  1S          0.09996   0.00288  -0.05730  -0.05107  -0.03125
  22 7   H  1S         -0.07685  -0.00785   0.57576  -0.74555  -0.18865
  23 8   H  1S         -0.04501  -0.00431   0.04750   0.06367  -0.06900
  24 9   H  1S          0.06771   0.00465   0.05133   0.02200   0.04195
                          16        17        18        19        20
  16        1PZ         1.03749
  17 5   C  1S         -0.01927   1.20184
  18        1PX         0.01560  -0.01196   0.93118
  19        1PY         0.02585   0.08253  -0.03271   0.98182
  20        1PZ         0.86488  -0.01324   0.00748   0.01269   1.07941
  21 6   H  1S          0.00482   0.59319  -0.26508   0.72408   0.00056
  22 7   H  1S         -0.02810  -0.06018   0.05324   0.07561  -0.01615
  23 8   H  1S         -0.00694   0.04985   0.06792  -0.01716  -0.00036
  24 9   H  1S         -0.00177  -0.04221  -0.06548   0.01310  -0.00348
                          21        22        23        24
  21 6   H  1S          0.84078
  22 7   H  1S          0.00291   0.82342
  23 8   H  1S         -0.01215  -0.02172   0.82344
  24 9   H  1S         -0.00531  -0.01588   0.00779   0.83524
    Full Mulliken population analysis:
                           1         2         3         4         5
   1 1   C  1S          1.22599
   2        1PX         0.00000   0.97173
   3        1PY         0.00000   0.00000   0.93775
   4        1PZ         0.00000   0.00000   0.00000   1.07145
   5 2   C  1S          0.00000   0.00000   0.00000   0.00000   1.23698
   6        1PX         0.00000   0.00000   0.00000   0.00000   0.00000
   7        1PY         0.00000   0.00000   0.00000   0.00000   0.00000
   8        1PZ         0.00000   0.00000   0.00000   0.00000   0.00000
   9 3   O  1S          0.00000   0.00000   0.00000   0.00000   0.00000
  10        1PX         0.00000   0.00000   0.00000   0.00000   0.00000
  11        1PY         0.00000   0.00000   0.00000   0.00000   0.00000
  12        1PZ         0.00000   0.00000   0.00000   0.00000   0.00000
  13 4   C  1S          0.00000   0.00000   0.00000   0.00000   0.00000
  14        1PX         0.00000   0.00000   0.00000   0.00000   0.00000
  15        1PY         0.00000   0.00000   0.00000   0.00000   0.00000
  16        1PZ         0.00000   0.00000   0.00000   0.00000   0.00000
  17 5   C  1S          0.00000   0.00000   0.00000   0.00000   0.00000
  18        1PX         0.00000   0.00000   0.00000   0.00000   0.00000
  19        1PY         0.00000   0.00000   0.00000   0.00000   0.00000
  20        1PZ         0.00000   0.00000   0.00000   0.00000   0.00000
  21 6   H  1S          0.00000   0.00000   0.00000   0.00000   0.00000
  22 7   H  1S          0.00000   0.00000   0.00000   0.00000   0.00000
  23 8   H  1S          0.00000   0.00000   0.00000   0.00000   0.00000
  24 9   H  1S          0.00000   0.00000   0.00000   0.00000   0.00000
                           6         7         8         9        10
   6        1PX         0.86758
   7        1PY         0.00000   0.94494
   8        1PZ         0.00000   0.00000   1.05059
   9 3   O  1S          0.00000   0.00000   0.00000   1.87036
  10        1PX         0.00000   0.00000   0.00000   0.00000   1.16805
  11        1PY         0.00000   0.00000   0.00000   0.00000   0.00000
  12        1PZ         0.00000   0.00000   0.00000   0.00000   0.00000
  13 4   C  1S          0.00000   0.00000   0.00000   0.00000   0.00000
  14        1PX         0.00000   0.00000   0.00000   0.00000   0.00000
  15        1PY         0.00000   0.00000   0.00000   0.00000   0.00000
  16        1PZ         0.00000   0.00000   0.00000   0.00000   0.00000
  17 5   C  1S          0.00000   0.00000   0.00000   0.00000   0.00000
  18        1PX         0.00000   0.00000   0.00000   0.00000   0.00000
  19        1PY         0.00000   0.00000   0.00000   0.00000   0.00000
  20        1PZ         0.00000   0.00000   0.00000   0.00000   0.00000
  21 6   H  1S          0.00000   0.00000   0.00000   0.00000   0.00000
  22 7   H  1S          0.00000   0.00000   0.00000   0.00000   0.00000
  23 8   H  1S          0.00000   0.00000   0.00000   0.00000   0.00000
  24 9   H  1S          0.00000   0.00000   0.00000   0.00000   0.00000
                          11        12        13        14        15
  11        1PY         1.29140
  12        1PZ         0.00000   1.75653
  13 4   C  1S          0.00000   0.00000   1.23506
  14        1PX         0.00000   0.00000   0.00000   0.96011
  15        1PY         0.00000   0.00000   0.00000   0.00000   0.85686
  16        1PZ         0.00000   0.00000   0.00000   0.00000   0.00000
  17 5   C  1S          0.00000   0.00000   0.00000   0.00000   0.00000
  18        1PX         0.00000   0.00000   0.00000   0.00000   0.00000
  19        1PY         0.00000   0.00000   0.00000   0.00000   0.00000
  20        1PZ         0.00000   0.00000   0.00000   0.00000   0.00000
  21 6   H  1S          0.00000   0.00000   0.00000   0.00000   0.00000
  22 7   H  1S          0.00000   0.00000   0.00000   0.00000   0.00000
  23 8   H  1S          0.00000   0.00000   0.00000   0.00000   0.00000
  24 9   H  1S          0.00000   0.00000   0.00000   0.00000   0.00000
                          16        17        18        19        20
  16        1PZ         1.03749
  17 5   C  1S          0.00000   1.20184
  18        1PX         0.00000   0.00000   0.93118
  19        1PY         0.00000   0.00000   0.00000   0.98182
  20        1PZ         0.00000   0.00000   0.00000   0.00000   1.07941
  21 6   H  1S          0.00000   0.00000   0.00000   0.00000   0.00000
  22 7   H  1S          0.00000   0.00000   0.00000   0.00000   0.00000
  23 8   H  1S          0.00000   0.00000   0.00000   0.00000   0.00000
  24 9   H  1S          0.00000   0.00000   0.00000   0.00000   0.00000
                          21        22        23        24
  21 6   H  1S          0.84078
  22 7   H  1S          0.00000   0.82342
  23 8   H  1S          0.00000   0.00000   0.82344
  24 9   H  1S          0.00000   0.00000   0.00000   0.83524
     Gross orbital populations:
                           1
   1 1   C  1S          1.22599
   2        1PX         0.97173
   3        1PY         0.93775
   4        1PZ         1.07145
   5 2   C  1S          1.23698
   6        1PX         0.86758
   7        1PY         0.94494
   8        1PZ         1.05059
   9 3   O  1S          1.87036
  10        1PX         1.16805
  11        1PY         1.29140
  12        1PZ         1.75653
  13 4   C  1S          1.23506
  14        1PX         0.96011
  15        1PY         0.85686
  16        1PZ         1.03749
  17 5   C  1S          1.20184
  18        1PX         0.93118
  19        1PY         0.98182
  20        1PZ         1.07941
  21 6   H  1S          0.84078
  22 7   H  1S          0.82342
  23 8   H  1S          0.82344
  24 9   H  1S          0.83524
          Condensed to atoms (all electrons):
               1          2          3          4          5          6
     1  C    4.206923   0.000000   0.000000   0.000000   0.000000   0.000000
     2  C    0.000000   4.100080   0.000000   0.000000   0.000000   0.000000
     3  O    0.000000   0.000000   6.086340   0.000000   0.000000   0.000000
     4  C    0.000000   0.000000   0.000000   4.089519   0.000000   0.000000
     5  C    0.000000   0.000000   0.000000   0.000000   4.194255   0.000000
     6  H    0.000000   0.000000   0.000000   0.000000   0.000000   0.840778
     7  H    0.000000   0.000000   0.000000   0.000000   0.000000   0.000000
     8  H    0.000000   0.000000   0.000000   0.000000   0.000000   0.000000
     9  H    0.000000   0.000000   0.000000   0.000000   0.000000   0.000000
               7          8          9
     1  C    0.000000   0.000000   0.000000
     2  C    0.000000   0.000000   0.000000
     3  O    0.000000   0.000000   0.000000
     4  C    0.000000   0.000000   0.000000
     5  C    0.000000   0.000000   0.000000
     6  H    0.000000   0.000000   0.000000
     7  H    0.823423   0.000000   0.000000
     8  H    0.000000   0.823440   0.000000
     9  H    0.000000   0.000000   0.835242
 Mulliken charges:
               1
     1  C   -0.206923
     2  C   -0.100080
     3  O   -0.086340
     4  C   -0.089519
     5  C   -0.194255
     6  H    0.159222
     7  H    0.176577
     8  H    0.176560
     9  H    0.164758
 Sum of Mulliken charges =   0.00000
 Mulliken charges with hydrogens summed into heavy atoms:
               1
     1  C   -0.042165
     2  C    0.076480
     3  O   -0.086340
     4  C    0.087058
     5  C   -0.035033
 Charge=              0.0000 electrons
 Dipole moment (field-independent basis, Debye):
    X=              0.1595    Y=              0.5098    Z=             -0.0352  Tot=              0.5353
 N-N= 1.036866186706D+02 E-N=-1.713777113179D+02  KE=-1.657863549933D+01
 Orbital energies and kinetic energies (alpha):
                                 1                 2
   1         O                -1.570959         -1.324490
   2         O                -1.250338         -1.054537
   3         O                -1.103734         -0.962399
   4         O                -0.824853         -0.702334
   5         O                -0.810020         -0.722039
   6         O                -0.685697         -0.604574
   7         O                -0.601766         -0.488374
   8         O                -0.556645         -0.497386
   9         O                -0.522309         -0.427968
  10         O                -0.508918         -0.432382
  11         O                -0.486255         -0.414102
  12         O                -0.398868         -0.341263
  13         O                -0.358122         -0.317470
  14         V                 0.034539         -0.193661
  15         V                 0.065098         -0.188551
  16         V                 0.104817         -0.193183
  17         V                 0.129006         -0.194601
  18         V                 0.143515         -0.208928
  19         V                 0.157683         -0.200438
  20         V                 0.175418         -0.191209
  21         V                 0.185085         -0.116941
  22         V                 0.189239         -0.175034
  23         V                 0.205083         -0.127357
  24         V                 0.221201         -0.050787
 Total kinetic energy from orbitals=-1.657863549933D+01
 Leave Link  601 at Tue Dec 15 16:19:42 2015, MaxMem=    33554432 cpu:         0.0
 (Enter /home/Applications/g09/g09/l701.exe)
 Compute integral first derivatives.
 ... and contract with generalized density number  6.
 Leave Link  701 at Tue Dec 15 16:19:42 2015, MaxMem=    33554432 cpu:         0.0
 (Enter /home/Applications/g09/g09/l702.exe)
 L702 exits ... SP integral derivatives will be done elsewhere.
 Leave Link  702 at Tue Dec 15 16:19:42 2015, MaxMem=    33554432 cpu:         0.0
 (Enter /home/Applications/g09/g09/l703.exe)
 Compute integral first derivatives, UseDBF=F ICtDFT=           0.
 Integral derivatives from FoFJK, PRISM(SPDF).
 Calling FoFJK, ICntrl=  10005127 FMM=F ISym2X=0 I1Cent= 0 IOpClX= 0 NMat=1 NMatS=1 NMatT=0.
 FoFJK:  IHMeth= 8 ICntrl=10005127 DoSepK=F KAlg= 0 I1Cent=   0 FoldK=F
 IRaf=         0 NMat=   1 IRICut=       1 DoRegI=T DoRafI=F ISym2E= 0.
 FoFCou: FMM=F IPFlag=           0 FMFlag=      100000 FMFlg1=         800
         NFxFlg=           0 DoJE=F BraDBF=F KetDBF=F FulRan=T
         wScrn=  0.000000 ICntrl=10005127 IOpCl=  0 I1Cent=           0 NGrid=           0
         NMat0=    1 NMatS0=      1 NMatT0=    0 NMatD0=    1 NMtDS0=    0 NMtDT0=    0
 Symmetry not used in FoFCou.
 Leave Link  703 at Tue Dec 15 16:19:42 2015, MaxMem=    33554432 cpu:         0.0
 (Enter /home/Applications/g09/g09/l716.exe)
 Dipole        = 7.51960027D-02 2.97934101D-01-2.04380701D-02
 ***** Axes restored to original set *****
 -------------------------------------------------------------------
 Center     Atomic                   Forces (Hartrees/Bohr)
 Number     Number              X              Y              Z
 -------------------------------------------------------------------
      1        6           0.130402414    0.055103869   -0.005377950
      2        6          -0.091301895   -0.075892288    0.002733328
      3        8          -0.049140861   -0.022820467   -0.000404343
      4        6          -0.165964246    0.143890722   -0.008015309
      5        6           0.137634263   -0.101417865    0.005058898
      6        1           0.038826011    0.025545888    0.000134602
      7        1           0.015739868   -0.015622305    0.005389536
      8        1          -0.013624679   -0.011397172   -0.000852260
      9        1          -0.002570875    0.002609619    0.001333499
 -------------------------------------------------------------------
 Cartesian Forces:  Max     0.165964246 RMS     0.066021519
 Z-matrix is all fixed cartesians, so copy forces.
 Force constants in Cartesian coordinates: 
                1             2             3             4             5 
      1  0.957376D+00
      2 -0.181245D-01  0.740358D+00
      3  0.260434D-02  0.784794D-02  0.202857D+00
      4 -0.562518D+00 -0.104771D+00 -0.101857D-01  0.971660D+00
      5 -0.835123D-01 -0.216188D+00 -0.288854D-02  0.332323D-01  0.872471D+00
      6 -0.104354D-01 -0.216728D-02 -0.106113D+00  0.910374D-02 -0.992930D-02
      7 -0.740883D-02  0.291109D-01 -0.320940D-03 -0.276842D+00  0.151259D+00
      8 -0.570283D-02  0.224217D-01  0.281601D-03  0.195617D+00 -0.339499D+00
      9 -0.638075D-03  0.134499D-02  0.478885D-02 -0.304008D-02  0.127409D-02
     10  0.932263D-02 -0.994681D-04 -0.467589D-03  0.219442D-01  0.169148D-01
     11  0.357639D-01 -0.380275D-03 -0.253570D-02 -0.193742D-01 -0.149355D-01
     12 -0.168309D-03 -0.494439D-05 -0.173903D-03  0.328345D-03  0.249265D-03
     13 -0.159067D+00  0.971981D-02  0.673557D-03  0.884070D-02 -0.347227D-01
     14 -0.140998D-01 -0.364264D+00  0.944055D-03 -0.109535D-03  0.376118D-03
     15  0.764469D-04  0.910695D-03 -0.756197D-01  0.452438D-03 -0.123783D-02
     16  0.171389D-01 -0.186854D-03  0.126782D-03  0.000000D+00  0.000000D+00
     17 -0.242078D-01  0.265289D-03 -0.583407D-03  0.000000D+00  0.000000D+00
     18  0.478783D-03 -0.565739D-04  0.152004D-01 -0.595010D-04 -0.102344D-04
     19  0.644714D-05 -0.131860D-05  0.369452D-03  0.187486D-04  0.911404D-05
     20  0.142763D-04 -0.291985D-05  0.818100D-03 -0.335638D-05 -0.163160D-05
     21  0.148137D-03 -0.302976D-04  0.848896D-02 -0.198410D-03 -0.964507D-04
     22  0.700930D-02 -0.275898D-01  0.939618D-03 -0.158565D+00 -0.100927D+00
     23 -0.323145D-02  0.126376D-01  0.649959D-03 -0.985166D-01 -0.326073D+00
     24 -0.135083D-03 -0.171763D-02  0.296870D-01  0.450751D-02  0.111451D-01
     25 -0.261860D+00  0.111942D+00  0.626044D-02 -0.453937D-02  0.177462D-01
     26  0.113100D+00 -0.194848D+00 -0.453401D-02 -0.607517D-02  0.238502D-01
     27  0.806918D-02 -0.612689D-02 -0.791156D-01 -0.908387D-03  0.149389D-02
                6             7             8             9            10 
      6  0.195080D+00
      7 -0.530061D-02  0.566385D+00
      8  0.457584D-02  0.178616D-01  0.644203D+00
      9 -0.467451D-01  0.231644D-01  0.130651D-01  0.589614D-01
     10  0.186453D-02 -0.314940D+00 -0.214637D+00 -0.212514D-01  0.110281D+01
     11 -0.176763D-02 -0.170253D+00 -0.335097D+00 -0.183895D-01 -0.264469D-01
     12 -0.674339D-03 -0.164656D-01 -0.173948D-01 -0.517267D-01  0.149736D-01
     13  0.189153D-03 -0.754420D-02  0.661456D-02  0.659802D-03 -0.662505D+00
     14  0.242232D-03 -0.287399D-01  0.252566D-01  0.141022D-02  0.132530D+00
     15 -0.118022D-03 -0.238584D-02  0.142575D-02  0.682872D-02  0.140345D-01
     16 -0.533927D-04  0.000000D+00 -0.572737D-05  0.852474D-04 -0.490625D-02
     17 -0.103008D-04  0.000000D+00  0.263095D-04 -0.391596D-03  0.688258D-02
     18  0.322013D-02  0.872117D-05 -0.684954D-03  0.101950D-01  0.163960D-02
     19 -0.386131D-03  0.185605D-01 -0.165046D-01  0.201226D-02 -0.151723D+00
     20  0.691252D-04  0.107786D-01 -0.960480D-02  0.147092D-02  0.848619D-01
     21  0.408629D-02  0.130853D-02 -0.144523D-02  0.438138D-02 -0.106442D-01
     22  0.402059D-02  0.217892D-01  0.167567D-01 -0.952511D-03 -0.375663D-05
     23  0.897276D-02 -0.100250D-01 -0.770675D-02  0.643279D-03 -0.569372D-05
     24 -0.761052D-01  0.138099D-03  0.183613D-03  0.561708D-02 -0.203574D-03
     25  0.997539D-03  0.000000D+00  0.000000D+00 -0.395932D-04  0.181504D-05
     26  0.145485D-04  0.814874D-05  0.000000D+00 -0.427581D-03  0.000000D+00
     27  0.273692D-01 -0.146735D-03 -0.693892D-05  0.769948D-02  0.545419D-04
               11            12            13            14            15 
     11  0.809893D+00
     12  0.113540D-01  0.230513D+00
     13  0.108652D+00  0.104336D-01  0.112083D+01
     14 -0.238596D+00 -0.433067D-02  0.271845D-01  0.787982D+00
     15 -0.784995D-02 -0.134388D+00 -0.568111D-02  0.835720D-02  0.240188D+00
     16 -0.187716D-01 -0.513581D-03 -0.323856D+00 -0.142096D+00 -0.426548D-02
     17  0.263989D-01 -0.213479D-03 -0.143774D+00 -0.225082D+00 -0.271660D-02
     18  0.379972D-02  0.352739D-01 -0.591735D-02 -0.490841D-02 -0.973843D-01
     19  0.904319D-01 -0.876943D-02  0.662201D-02  0.255112D-01 -0.179053D-02
     20 -0.247281D+00  0.102350D-01  0.383261D-02  0.145692D-01  0.174279D-02
     21  0.154991D-01 -0.861416D-01  0.284817D-03 -0.164863D-02  0.388913D-01
     22 -0.182616D-05  0.773684D-04  0.421329D-05  0.000000D+00 -0.228019D-03
     23 -0.276782D-05  0.117263D-03 -0.668549D-05 -0.114993D-05  0.361812D-03
     24 -0.989608D-04  0.419264D-02 -0.130159D-03 -0.223878D-04  0.704407D-02
     25  0.000000D+00  0.104011D-03  0.166715D-01 -0.180625D-03 -0.212384D-03
     26  0.000000D+00 -0.116932D-04  0.224990D-01 -0.241371D-03 -0.993861D-03
     27 -0.111551D-04  0.312551D-02 -0.512283D-03 -0.436238D-04  0.145583D-01
               16            17            18            19            20 
     16  0.311625D+00
     17  0.161073D+00  0.198335D+00
     18  0.467026D-02  0.331403D-02  0.534523D-01
     19 -0.555519D-05  0.255185D-04 -0.664363D-03  0.126520D+00
     20 -0.123012D-04  0.565072D-04 -0.147114D-02 -0.994717D-01  0.242264D+00
     21 -0.127643D-03  0.586344D-03 -0.152652D-01  0.922874D-02 -0.128648D-01
     22  0.000000D+00  0.000000D+00  0.000000D+00  0.000000D+00  0.000000D+00
     23  0.000000D+00  0.000000D+00  0.000000D+00  0.000000D+00  0.000000D+00
     24  0.000000D+00  0.000000D+00  0.000000D+00  0.000000D+00  0.000000D+00
     25  0.258907D-05  0.000000D+00 -0.156148D-03  0.000000D+00  0.000000D+00
     26  0.000000D+00  0.000000D+00  0.175547D-04  0.000000D+00  0.000000D+00
     27  0.778016D-04  0.150100D-04 -0.469224D-02  0.000000D+00  0.000000D+00
               21            22            23            24            25 
     21  0.455589D-01
     22  0.000000D+00  0.129768D+00
     23  0.000000D+00  0.111782D+00  0.321113D+00
     24  0.000000D+00 -0.423718D-02 -0.101419D-01  0.413077D-01
     25  0.000000D+00 -0.195477D-05  0.310176D-05  0.603877D-04  0.249724D+00
     26  0.000000D+00 -0.211102D-04  0.334969D-04  0.652148D-03 -0.129511D+00
     27  0.000000D+00  0.380133D-03 -0.603182D-03 -0.117433D-01 -0.701425D-02
               26            27 
     26  0.171205D+00
     27  0.528289D-02  0.427986D-01
 Leave Link  716 at Tue Dec 15 16:19:42 2015, MaxMem=    33554432 cpu:         0.0
 (Enter /home/Applications/g09/g09/l103.exe)

 GradGradGradGradGradGradGradGradGradGradGradGradGradGradGradGradGradGrad
 Berny optimization.
 Search for a local minimum.
 Step number   1 out of a maximum of    2
 All quantities printed in internal units (Hartrees-Bohrs-Radians)
 Second derivative matrix not updated -- first step.
 ITU=  0
     Eigenvalues ---    0.02016   0.02962   0.07111   0.07266   0.08063
     Eigenvalues ---    0.09729   0.13153   0.14050   0.15590   0.24184
     Eigenvalues ---    0.28391   0.33370   0.42244   0.44245   0.63188
     Eigenvalues ---    0.83846   1.07124   1.32202   1.34169   1.64600
     Eigenvalues ---    1.90552
 Quadratic step=5.124D-01 exceeds max=3.000D-01 adjusted using Lamda=-1.810D-01.
 Angle between NR and scaled steps=  21.77 degrees.
 Angle between quadratic step and forces=  34.23 degrees.
 Linear search not attempted -- first point.
 TrRot= -0.008052 -0.001903 -0.000630  1.232105  0.000564 -1.230463
 Variable       Old X    -DE/DX   Delta X   Delta X   Delta X     New X
                                 (Linear)    (Quad)   (Total)
    X1        1.76852   0.13040   0.00000   0.10589   0.10005   1.86857
    Y1       -1.36375   0.05510   0.00000   0.01884   0.02003  -1.34372
    Z1        0.04167  -0.00538   0.00000  -0.01317  -0.01344   0.02823
    X2       -0.67318  -0.09130   0.00000  -0.05046  -0.05513  -0.72831
    Y2       -1.98567  -0.07589   0.00000  -0.07420  -0.07729  -2.06296
    Z2       -0.00543   0.00273   0.00000   0.00790   0.00850   0.00308
    X3       -2.26816  -0.04914   0.00000  -0.08281  -0.09097  -2.35913
    Y3        0.08671  -0.02282   0.00000  -0.02162  -0.02740   0.05931
    Z3       -0.03396  -0.00040   0.00000   0.00355   0.00333  -0.03063
    X4       -0.56344  -0.16596   0.00000  -0.09998  -0.11152  -0.67496
    Y4        2.01943   0.14389   0.00000   0.11202   0.10907   2.12849
    Z4        0.09444  -0.00802   0.00000  -0.02026  -0.02190   0.07254
    X5        1.79862   0.13763   0.00000   0.09190   0.08161   1.88023
    Y5        1.40325  -0.10142   0.00000  -0.03609  -0.03485   1.36840
    Z5        0.05102   0.00506   0.00000   0.01391   0.01220   0.06321
    X6        3.38876   0.03883   0.00000   0.12231   0.11007   3.49883
    Y6        2.52965   0.02555   0.00000   0.02796   0.03187   2.56152
    Z6        0.08099   0.00013   0.00000   0.00964   0.00699   0.08798
    X7       -1.63197   0.01574   0.00000  -0.00437  -0.01887  -1.65084
    Y7        3.87548  -0.01562   0.00000   0.05159   0.04698   3.92246
    Z7       -0.03793   0.00539   0.00000   0.00672   0.00431  -0.03362
    X8       -1.51781  -0.01362   0.00000  -0.06308  -0.06473  -1.58254
    Y8       -3.82055  -0.01140   0.00000  -0.06761  -0.07207  -3.89263
    Z8        0.06148  -0.00085   0.00000  -0.00012   0.00161   0.06309
    X9        3.42489  -0.00257   0.00000   0.05330   0.04950   3.47439
    Y9       -2.59246   0.00261   0.00000  -0.00013   0.00367  -2.58879
    Z9       -0.01805   0.00133   0.00000  -0.00170  -0.00160  -0.01965
         Item               Value     Threshold  Converged?
 Maximum Force            0.165964     0.000450     NO 
 RMS     Force            0.066022     0.000300     NO 
 Maximum Displacement     0.111521     0.001800     NO 
 RMS     Displacement     0.057467     0.001200     NO 
 Predicted change in Energy=-5.070312D-02
 GradGradGradGradGradGradGradGradGradGradGradGradGradGradGradGradGradGrad

 Leave Link  103 at Tue Dec 15 16:19:42 2015, MaxMem=    33554432 cpu:         0.0
 (Enter /home/Applications/g09/g09/l9999.exe)
 1\1\GINC-DUSTIN-DESKTOP\Force\RAM1-FC\STO-3G\C4H4O1\DUSTIN\15-Dec-2015
 \0\\#P AM1(Input,print) CIS(Singlets,NStates=15) pop(full) force\\AM1-
 Reparam Input\\0,1\C,0.935861,-0.721664,0.022049\C,-0.35623,-1.050773,
 -0.002872\O,-1.200259,0.045884,-0.017969\C,-0.29816,1.068634,0.049973\
 C,0.951788,0.742569,0.026997\H,1.793254,1.338631,0.042856\H,-0.863602,
 2.050815,-0.020073\H,-0.803191,-2.021749,0.032533\H,1.812372,-1.371869
 ,-0.009552\\Version=ES64L-G09RevD.01\State=1-A\HF=0.029961\RMSD=6.996e
 -09\RMSF=6.602e-02\Dipole=0.3074628,0.006317,-0.0162353\PG=C01 [X(C4H4
 O1)]\\@


 WE LEARN WISDOM FROM FAILURE MUCH MORE THAN FROM SUCCESS.
 WE DISCOVER WHAT WILL DO BY FINDING OUT WHAT WILL NOT DO...
 AND HE WHO NEVER MADE A MISTAKE NEVER MADE A DISCOVERY
 Job cpu time:       0 days  0 hours  0 minutes  0.4 seconds.
 File lengths (MBytes):  RWF=      7 Int=      0 D2E=      0 Chk=      2 Scr=      1
 Normal termination of Gaussian 09 at Tue Dec 15 16:19:42 2015.
