 Entering Gaussian System, Link 0=g09
 Input=FuranAM1_2P10.com
 Output=FuranAM1_2P10.log
 Initial command:
 /home/Applications/g09/g09/l1.exe "/home/Applications/g09/scratch/Gau-9323.inp" -scrdir="/home/Applications/g09/scratch/"
 Entering Link 1 = /home/Applications/g09/g09/l1.exe PID=      9329.
  
 Copyright (c) 1988,1990,1992,1993,1995,1998,2003,2009,2013,
            Gaussian, Inc.  All Rights Reserved.
  
 This is part of the Gaussian(R) 09 program.  It is based on
 the Gaussian(R) 03 system (copyright 2003, Gaussian, Inc.),
 the Gaussian(R) 98 system (copyright 1998, Gaussian, Inc.),
 the Gaussian(R) 94 system (copyright 1995, Gaussian, Inc.),
 the Gaussian 92(TM) system (copyright 1992, Gaussian, Inc.),
 the Gaussian 90(TM) system (copyright 1990, Gaussian, Inc.),
 the Gaussian 88(TM) system (copyright 1988, Gaussian, Inc.),
 the Gaussian 86(TM) system (copyright 1986, Carnegie Mellon
 University), and the Gaussian 82(TM) system (copyright 1983,
 Carnegie Mellon University). Gaussian is a federally registered
 trademark of Gaussian, Inc.
  
 This software contains proprietary and confidential information,
 including trade secrets, belonging to Gaussian, Inc.
  
 This software is provided under written license and may be
 used, copied, transmitted, or stored only in accord with that
 written license.
  
 The following legend is applicable only to US Government
 contracts under FAR:
  
                    RESTRICTED RIGHTS LEGEND
  
 Use, reproduction and disclosure by the US Government is
 subject to restrictions as set forth in subparagraphs (a)
 and (c) of the Commercial Computer Software - Restricted
 Rights clause in FAR 52.227-19.
  
 Gaussian, Inc.
 340 Quinnipiac St., Bldg. 40, Wallingford CT 06492
  
  
 ---------------------------------------------------------------
 Warning -- This program may not be used in any manner that
 competes with the business of Gaussian, Inc. or will provide
 assistance to any competitor of Gaussian, Inc.  The licensee
 of this program is prohibited from giving any competitor of
 Gaussian, Inc. access to this program.  By using this program,
 the user acknowledges that Gaussian, Inc. is engaged in the
 business of creating and licensing software in the field of
 computational chemistry and represents and warrants to the
 licensee that it is not a competitor of Gaussian, Inc. and that
 it will not use this program in any manner prohibited above.
 ---------------------------------------------------------------
  

 Cite this work as:
 Gaussian 09, Revision D.01,
 M. J. Frisch, G. W. Trucks, H. B. Schlegel, G. E. Scuseria, 
 M. A. Robb, J. R. Cheeseman, G. Scalmani, V. Barone, B. Mennucci, 
 G. A. Petersson, H. Nakatsuji, M. Caricato, X. Li, H. P. Hratchian, 
 A. F. Izmaylov, J. Bloino, G. Zheng, J. L. Sonnenberg, M. Hada, 
 M. Ehara, K. Toyota, R. Fukuda, J. Hasegawa, M. Ishida, T. Nakajima, 
 Y. Honda, O. Kitao, H. Nakai, T. Vreven, J. A. Montgomery, Jr., 
 J. E. Peralta, F. Ogliaro, M. Bearpark, J. J. Heyd, E. Brothers, 
 K. N. Kudin, V. N. Staroverov, T. Keith, R. Kobayashi, J. Normand, 
 K. Raghavachari, A. Rendell, J. C. Burant, S. S. Iyengar, J. Tomasi, 
 M. Cossi, N. Rega, J. M. Millam, M. Klene, J. E. Knox, J. B. Cross, 
 V. Bakken, C. Adamo, J. Jaramillo, R. Gomperts, R. E. Stratmann, 
 O. Yazyev, A. J. Austin, R. Cammi, C. Pomelli, J. W. Ochterski, 
 R. L. Martin, K. Morokuma, V. G. Zakrzewski, G. A. Voth, 
 P. Salvador, J. J. Dannenberg, S. Dapprich, A. D. Daniels, 
 O. Farkas, J. B. Foresman, J. V. Ortiz, J. Cioslowski, 
 and D. J. Fox, Gaussian, Inc., Wallingford CT, 2013.
 
 ******************************************
 Gaussian 09:  ES64L-G09RevD.01 24-Apr-2013
                15-Dec-2015 
 ******************************************
 ------------------------------------------------------------
 #P AM1(Input,print) CIS(Singlets,NStates=15) pop(full) force
 ------------------------------------------------------------
 1/10=7,30=1,38=1/1,3;
 2/12=2,17=6,18=5,40=1/2;
 3/5=2,16=1,25=1,41=700000,71=1,135=100,136=1/1,2,8,3;
 4/35=1/1;
 5/5=2,35=1,38=5/2;
 8/6=1,10=1,108=15/1;
 9/15=2,41=15,42=1,48=1,49=10/14;
 10/5=4/2;
 6/7=3,18=1/1;
 7/12=6,13=5,29=1/1,2,3,16;
 1/10=7,30=1/3;
 99//99;
 Leave Link    1 at Tue Dec 15 17:07:31 2015, MaxMem=           0 cpu:         0.0
 (Enter /home/Applications/g09/g09/l101.exe)
 -----------------
 AM1-Reparam Input
 -----------------
 Symbolic Z-matrix:
 Charge =  0 Multiplicity = 1
 6                     0.94389  -0.76532   0.01849 
 6                    -0.30231  -1.09772  -0.03034 
 8                    -1.1549    0.00895   0.03155 
 6                    -0.3173    1.06085  -0.04324 
 6                     1.00015   0.75153   0.01559 
 1                     1.78839   1.35864   0.02685 
 1                    -0.88794   2.02988   0.0025 
 1                    -0.83504  -2.06511  -0.03807 
 1                     1.79203  -1.35099   0.03093 
 
 NAtoms=      9 NQM=        9 NQMF=       0 NMMI=      0 NMMIF=      0
                NMic=       0 NMicF=      0.
                    Isotopes and Nuclear Properties:
 (Nuclear quadrupole moments (NQMom) in fm**2, nuclear magnetic moments (NMagM)
  in nuclear magnetons)

  Atom         1           2           3           4           5           6           7           8           9
 IAtWgt=          12          12          16          12          12           1           1           1           1
 AtmWgt=  12.0000000  12.0000000  15.9949146  12.0000000  12.0000000   1.0078250   1.0078250   1.0078250   1.0078250
 NucSpn=           0           0           0           0           0           1           1           1           1
 AtZEff=   0.0000000   0.0000000   0.0000000   0.0000000   0.0000000   0.0000000   0.0000000   0.0000000   0.0000000
 NQMom=    0.0000000   0.0000000   0.0000000   0.0000000   0.0000000   0.0000000   0.0000000   0.0000000   0.0000000
 NMagM=    0.0000000   0.0000000   0.0000000   0.0000000   0.0000000   2.7928460   2.7928460   2.7928460   2.7928460
 AtZNuc=   6.0000000   6.0000000   8.0000000   6.0000000   6.0000000   1.0000000   1.0000000   1.0000000   1.0000000
 Leave Link  101 at Tue Dec 15 17:07:31 2015, MaxMem=    33554432 cpu:         0.0
 (Enter /home/Applications/g09/g09/l103.exe)

 GradGradGradGradGradGradGradGradGradGradGradGradGradGradGradGradGradGrad
 Berny optimization.
 Initialization pass.
 Trust Radius=3.00D-01 FncErr=1.00D-07 GrdErr=1.00D-07
 Number of steps in this run=      2 maximum allowed number of steps=      2.
 GradGradGradGradGradGradGradGradGradGradGradGradGradGradGradGradGradGrad

 Leave Link  103 at Tue Dec 15 17:07:31 2015, MaxMem=    33554432 cpu:         0.0
 (Enter /home/Applications/g09/g09/l202.exe)
                          Input orientation:                          
 ---------------------------------------------------------------------
 Center     Atomic      Atomic             Coordinates (Angstroms)
 Number     Number       Type             X           Y           Z
 ---------------------------------------------------------------------
      1          6           0        0.943886   -0.765315    0.018494
      2          6           0       -0.302310   -1.097716   -0.030342
      3          8           0       -1.154895    0.008947    0.031549
      4          6           0       -0.317297    1.060845   -0.043242
      5          6           0        1.000148    0.751532    0.015586
      6          1           0        1.788390    1.358641    0.026853
      7          1           0       -0.887941    2.029883    0.002497
      8          1           0       -0.835035   -2.065114   -0.038071
      9          1           0        1.792029   -1.350993    0.030925
 ---------------------------------------------------------------------
                    Distance matrix (angstroms):
                    1          2          3          4          5
     1  C    0.000000
     2  C    1.290690   0.000000
     3  O    2.237082   1.398369   0.000000
     4  C    2.220192   2.158652   1.346720   0.000000
     5  C    1.517893   2.262349   2.279451   1.354547   0.000000
     6  H    2.285705   3.226141   3.237997   2.127795   0.995004
     7  H    3.342002   3.182125   2.038698   1.125505   2.280183
     8  H    2.203914   1.104407   2.099735   3.168548   3.362182
     9  H    1.030786   2.110488   3.245581   3.204952   2.246758
                    6          7          8          9
     6  H    0.000000
     7  H    2.759331   0.000000
     8  H    4.313777   4.095540   0.000000
     9  H    2.709640   4.314321   2.723269   0.000000
 Stoichiometry    C4H4O
 Framework group  C1[X(C4H4O)]
 Deg. of freedom    21
 Full point group                 C1      NOp   1
 Largest Abelian subgroup         C1      NOp   1
 Largest concise Abelian subgroup C1      NOp   1
                         Standard orientation:                         
 ---------------------------------------------------------------------
 Center     Atomic      Atomic             Coordinates (Angstroms)
 Number     Number       Type             X           Y           Z
 ---------------------------------------------------------------------
      1          6           0       -0.758455    0.927988   -0.011958
      2          6           0       -1.090365   -0.318593    0.029877
      3          8           0        0.016607   -1.170386   -0.037171
      4          6           0        1.068205   -0.332823    0.042094
      5          6           0        0.758371    0.984817   -0.009150
      6          1           0        1.365174    1.773344   -0.016099
      7          1           0        2.037449   -0.902824   -0.007160
      8          1           0       -2.057556   -0.851726    0.034843
      9          1           0       -1.344462    1.775963   -0.019400
 ---------------------------------------------------------------------
 Rotational constants (GHZ):      9.3641234      9.2985799      4.6706591
 Leave Link  202 at Tue Dec 15 17:07:31 2015, MaxMem=    33554432 cpu:         0.0
 (Enter /home/Applications/g09/g09/l301.exe)

 Semi-emprical parameters in input format:
 Method=8 CoreType=1 PeptideFC=0.0106250000 RIJScale=0.5404210000
 ****
 H       
 PQN=1 NValence=1 F0ss=0.4721550000 ZetaOverlap=1.0856700000 U=-0.3858490000
 Beta=-0.2268830000 CoreKO=1.0354420000 KON=0,0,0,1.0458670000 KON=1,0,1,1.0589200000
 KON=0,1,1,1.1438880000 KON=2,1,1,1.0589200000 EISol=-0.4188110042 EHeat=0.0830298228
 Alpha=1.4046640000
 GCore=0.0085280000,1.5127750000,2.2676710000
 GCore=0.0003530000,1.4368830000,3.4779940000
 GCore=-0.0013010000,0.5600570000,3.5861320000
 ****
 C       
 PQN=2,2 NValence=4 F0ss=0.4494440000 F0sp=0.4261420000 F0pp=0.3497590000 F2pp=0.1878900000
 G1sp=0.2701540000
 ZetaOverlap=1.8086650000,1.3781170000
 U=-1.6741410000,-1.4557970000
 Beta=-0.5453250000,-0.2836780000 DDN=0,1,0.7474020000 DDN=1,1,0.7964360000
 CoreKO=1.1124280000 KON=0,0,0,1.1124280000 KON=1,0,1,0.8159680000 KON=0,1,1,1.1124280000
 KON=2,1,1,0.8516400000 EISol=-4.4398989268 EHeat=0.2723305520 Alpha=1.3653470000
 DipHyp=1.4947180026
 GCore=0.0007890000,1.3361580000,2.6678360000
 GCore=0.0031890000,1.4001430000,3.2045450000
 GCore=-0.0015090000,1.3827320000,3.8739390000
 GCore=-0.0001030000,1.2700780000,4.6088130000
 ****
 O       
 PQN=2,2 NValence=6 F0ss=0.6666250000 F0sp=0.5321300000 F0pp=0.4958710000 F2pp=0.2358080000
 G1sp=0.4343770000
 ZetaOverlap=2.7336680000,2.5240390000
 U=-3.5951870000,-1.8323600000
 Beta=-1.1573400000,-1.2481890000 DDN=0,1,0.4953610000 DDN=1,1,0.5211070000
 CoreKO=0.8515990000 KON=0,0,0,0.8822960000 KON=1,0,1,0.5019540000 KON=0,1,1,0.8671530000
 KON=2,1,1,0.5515580000 EISol=-11.6164441184 EHeat=0.0949133088 Alpha=2.4031680000
 DipHyp=0.9906650029
 GCore=0.0204720000,1.2640290000,1.6023330000
 GCore=0.0052790000,1.9602000000,2.5761670000
 ****
 
 Standard basis: VSTO-6G (5D, 7F)
 Ernie: Thresh=  0.10000D-02 Tol=  0.10000D-05 Strict=F.
  NNHCO=     0 NNPyr=     0 NCTC=     0               EPep=         0.000000000
    EC=        68.862887250  ECS=         2.092921789   EG=         0.382310141
   EHC=         0.000000000  EAt=       -31.051283842  AtH=         1.516354808
 EPDDG=         0.000000000  ECC=        71.338119181 EAtT=        32.567638650
 There are    24 symmetry adapted cartesian basis functions of A   symmetry.
 There are    24 symmetry adapted basis functions of A   symmetry.
    24 basis functions,   144 primitive gaussians,    24 cartesian basis functions
    13 alpha electrons       13 beta electrons
       nuclear repulsion energy       103.9057578311 Hartrees.
 IExCor=    0 DFT=F Ex=HF Corr=None ExCW=0 ScaHFX=  1.000000
 ScaDFX=  1.000000  1.000000  1.000000  1.000000 ScalE2=  1.000000  1.000000
 IRadAn=      0 IRanWt=     -1 IRanGd=            0 ICorTp=0 IEmpDi=  4
 Integral buffers will be    131072 words long.
 Regular integral format.
 Two-electron integral symmetry is turned off.
 Leave Link  301 at Tue Dec 15 17:07:31 2015, MaxMem=    33554432 cpu:         0.0
 (Enter /home/Applications/g09/g09/l302.exe)
 Do NDO integrals.
 NPDir=0 NMtPBC=     1 NCelOv=     1 NCel=       1 NClECP=     1 NCelD=      1
         NCelK=      1 NCelE2=     1 NClLst=     1 CellRange=     0.0.
 One-electron integrals computed using PRISM.
 NBasis=    24 RedAO= F EigKep=  0.00D+00  NBF=    24
 NBsUse=    24 1.00D-04 EigRej=  0.00D+00 NBFU=    24
 Leave Link  302 at Tue Dec 15 17:07:31 2015, MaxMem=    33554432 cpu:         0.0
 (Enter /home/Applications/g09/g09/l308.exe)
 Leave Link  308 at Tue Dec 15 17:07:31 2015, MaxMem=    33554432 cpu:         0.0
 (Enter /home/Applications/g09/g09/l303.exe)
 DipDrv:  MaxL=1.
 Leave Link  303 at Tue Dec 15 17:07:31 2015, MaxMem=    33554432 cpu:         0.0
 (Enter /home/Applications/g09/g09/l401.exe)
 Simple Huckel Guess.
 JPrj=0 DoOrth=F DoCkMO=F.
 Leave Link  401 at Tue Dec 15 17:07:31 2015, MaxMem=    33554432 cpu:         0.0
 (Enter /home/Applications/g09/g09/l502.exe)
 Closed shell SCF:
 Using DIIS extrapolation, IDIIS=  1040.
 Overlap will be assumed to be unity.
 Two-electron integral symmetry not used.
 Keep J ints in memory in canonical form, NReq=888082.
 IVT=       79475 IEndB=       79475 NGot=    33554432 MDV=    33473473
 LenX=    33473473 LenY=    33472456
 Requested convergence on RMS density matrix=1.00D-08 within 128 cycles.
 Requested convergence on MAX density matrix=1.00D-06.
 Requested convergence on             energy=1.00D-06.
 No special actions if energy rises.
 FoFCou: FMM=F IPFlag=           0 FMFlag=           0 FMFlg1=           0
         NFxFlg=           0 DoJE=F BraDBF=F KetDBF=F FulRan=T
         wScrn=  0.000000 ICntrl=     600 IOpCl=  2 I1Cent=           0 NGrid=           0
         NMat0=    1 NMatS0=     54 NMatT0=    0 NMatD0=    1 NMtDS0=    0 NMtDT0=    0
 Symmetry not used in FoFCou.

 Cycle   1  Pass 1  IDiag  1:
 E=  5.78811203509690    
 DIIS: error= 1.32D-01 at cycle   1 NSaved=   1.
 NSaved= 1 IEnMin= 1 EnMin=  5.78811203509690     IErMin= 1 ErrMin= 1.32D-01
 ErrMax= 1.32D-01  0.00D+00 EMaxC= 1.00D-01 BMatC= 6.63D-01 BMatP= 6.63D-01
 IDIUse=3 WtCom= 0.00D+00 WtEn= 1.00D+00
 Coeff-Com:  0.100D+01
 Coeff-En:   0.100D+01
 Coeff:      0.100D+01
 GapD=    2.000 DampG=2.000 DampE=0.250 DampFc=0.5000 IDamp=-1.
 Damping current iteration by 5.00D-01
 RMSDP=7.25D-02 MaxDP=7.82D-01              OVMax= 0.00D+00

 Cycle   2  Pass 1  IDiag  1:
 E=  4.37483897177532     Delta-E=       -1.413273063322 Rises=F Damp=T
 DIIS: error= 7.35D-02 at cycle   2 NSaved=   2.
 NSaved= 2 IEnMin= 2 EnMin=  4.37483897177532     IErMin= 2 ErrMin= 7.35D-02
 ErrMax= 7.35D-02  0.00D+00 EMaxC= 1.00D-01 BMatC= 2.11D-01 BMatP= 6.63D-01
 IDIUse=3 WtCom= 2.65D-01 WtEn= 7.35D-01
 Coeff-Com: -0.111D+01 0.211D+01
 Coeff-En:   0.000D+00 0.100D+01
 Coeff:     -0.293D+00 0.129D+01
 RMSDP=4.00D-02 MaxDP=3.96D-01 DE=-1.41D+00 OVMax= 0.00D+00

 Cycle   3  Pass 1  IDiag  1:
 E=  2.70784347902442     Delta-E=       -1.666995492751 Rises=F Damp=F
 DIIS: error= 1.46D-02 at cycle   3 NSaved=   3.
 NSaved= 3 IEnMin= 3 EnMin=  2.70784347902442     IErMin= 3 ErrMin= 1.46D-02
 ErrMax= 1.46D-02  0.00D+00 EMaxC= 1.00D-01 BMatC= 1.13D-02 BMatP= 2.11D-01
 IDIUse=3 WtCom= 8.54D-01 WtEn= 1.46D-01
 Coeff-Com:  0.258D+00-0.593D+00 0.133D+01
 Coeff-En:   0.000D+00 0.000D+00 0.100D+01
 Coeff:      0.220D+00-0.506D+00 0.129D+01
 RMSDP=9.78D-03 MaxDP=5.42D-02 DE=-1.67D+00 OVMax= 0.00D+00

 Cycle   4  Pass 1  IDiag  3:
 E=  2.66610826102219     Delta-E=       -0.041735218002 Rises=F Damp=F
 DIIS: error= 4.04D-03 at cycle   4 NSaved=   4.
 NSaved= 4 IEnMin= 4 EnMin=  2.66610826102219     IErMin= 4 ErrMin= 4.04D-03
 ErrMax= 4.04D-03  0.00D+00 EMaxC= 1.00D-01 BMatC= 7.91D-04 BMatP= 1.13D-02
 IDIUse=3 WtCom= 9.60D-01 WtEn= 4.04D-02
 Coeff-Com: -0.171D-01 0.260D-01-0.289D+00 0.128D+01
 Coeff-En:   0.000D+00 0.000D+00 0.000D+00 0.100D+01
 Coeff:     -0.164D-01 0.250D-01-0.278D+00 0.127D+01
 Gap=     0.363 Goal=   None    Shift=    0.000
 RMSDP=3.32D-03 MaxDP=1.73D-02 DE=-4.17D-02 OVMax= 3.99D-02

 Cycle   5  Pass 1  IDiag  3:
 E=  2.66258225699914     Delta-E=       -0.003526004023 Rises=F Damp=F
 DIIS: error= 9.59D-04 at cycle   5 NSaved=   5.
 NSaved= 5 IEnMin= 5 EnMin=  2.66258225699914     IErMin= 5 ErrMin= 9.59D-04
 ErrMax= 9.59D-04  0.00D+00 EMaxC= 1.00D-01 BMatC= 3.48D-05 BMatP= 7.91D-04
 IDIUse=3 WtCom= 9.90D-01 WtEn= 9.59D-03
 Coeff-Com:  0.968D-02-0.158D-01 0.115D+00-0.602D+00 0.149D+01
 Coeff-En:   0.000D+00 0.000D+00 0.000D+00 0.000D+00 0.100D+01
 Coeff:      0.959D-02-0.157D-01 0.114D+00-0.597D+00 0.149D+01
 Gap=     0.362 Goal=   None    Shift=    0.000
 RMSDP=8.20D-04 MaxDP=4.09D-03 DE=-3.53D-03 OVMax= 8.88D-03

 Cycle   6  Pass 1  IDiag  3:
 E=  2.66240701309161     Delta-E=       -0.000175243908 Rises=F Damp=F
 DIIS: error= 1.74D-04 at cycle   6 NSaved=   6.
 NSaved= 6 IEnMin= 6 EnMin=  2.66240701309161     IErMin= 6 ErrMin= 1.74D-04
 ErrMax= 1.74D-04  0.00D+00 EMaxC= 1.00D-01 BMatC= 9.27D-07 BMatP= 3.48D-05
 IDIUse=3 WtCom= 9.98D-01 WtEn= 1.74D-03
 Coeff-Com: -0.145D-02 0.283D-02-0.318D-01 0.169D+00-0.510D+00 0.137D+01
 Coeff-En:   0.000D+00 0.000D+00 0.000D+00 0.000D+00 0.000D+00 0.100D+01
 Coeff:     -0.145D-02 0.283D-02-0.318D-01 0.169D+00-0.509D+00 0.137D+01
 Gap=     0.363 Goal=   None    Shift=    0.000
 RMSDP=1.24D-04 MaxDP=6.80D-04 DE=-1.75D-04 OVMax= 9.60D-04

 Cycle   7  Pass 1  IDiag  3:
 E=  2.66240268992800     Delta-E=       -0.000004323164 Rises=F Damp=F
 DIIS: error= 3.64D-05 at cycle   7 NSaved=   7.
 NSaved= 7 IEnMin= 7 EnMin=  2.66240268992800     IErMin= 7 ErrMin= 3.64D-05
 ErrMax= 3.64D-05  0.00D+00 EMaxC= 1.00D-01 BMatC= 3.83D-08 BMatP= 9.27D-07
 IDIUse=1 WtCom= 1.00D+00 WtEn= 0.00D+00
 Coeff-Com:  0.133D-03-0.344D-03 0.739D-02-0.418D-01 0.143D+00-0.535D+00
 Coeff-Com:  0.143D+01
 Coeff:      0.133D-03-0.344D-03 0.739D-02-0.418D-01 0.143D+00-0.535D+00
 Coeff:      0.143D+01
 Gap=     0.363 Goal=   None    Shift=    0.000
 RMSDP=2.41D-05 MaxDP=1.94D-04 DE=-4.32D-06 OVMax= 1.77D-04

 Cycle   8  Pass 1  IDiag  3:
 E=  2.66240251952182     Delta-E=       -0.000000170406 Rises=F Damp=F
 DIIS: error= 6.26D-06 at cycle   8 NSaved=   8.
 NSaved= 8 IEnMin= 8 EnMin=  2.66240251952182     IErMin= 8 ErrMin= 6.26D-06
 ErrMax= 6.26D-06  0.00D+00 EMaxC= 1.00D-01 BMatC= 1.04D-09 BMatP= 3.83D-08
 IDIUse=1 WtCom= 1.00D+00 WtEn= 0.00D+00
 Coeff-Com:  0.360D-05-0.223D-05-0.419D-03 0.352D-02-0.181D-01 0.990D-01
 Coeff-Com: -0.397D+00 0.131D+01
 Coeff:      0.360D-05-0.223D-05-0.419D-03 0.352D-02-0.181D-01 0.990D-01
 Coeff:     -0.397D+00 0.131D+01
 Gap=     0.363 Goal=   None    Shift=    0.000
 RMSDP=3.82D-06 MaxDP=3.28D-05 DE=-1.70D-07 OVMax= 2.57D-05

 Cycle   9  Pass 1  IDiag  3:
 E=  2.66240251515600     Delta-E=       -0.000000004366 Rises=F Damp=F
 DIIS: error= 8.40D-07 at cycle   9 NSaved=   9.
 NSaved= 9 IEnMin= 9 EnMin=  2.66240251515600     IErMin= 9 ErrMin= 8.40D-07
 ErrMax= 8.40D-07  0.00D+00 EMaxC= 1.00D-01 BMatC= 2.62D-11 BMatP= 1.04D-09
 IDIUse=1 WtCom= 1.00D+00 WtEn= 0.00D+00
 Coeff-Com:  0.118D-05-0.163D-05-0.228D-04-0.223D-03 0.285D-02-0.211D-01
 Coeff-Com:  0.964D-01-0.420D+00 0.134D+01
 Coeff:      0.118D-05-0.163D-05-0.228D-04-0.223D-03 0.285D-02-0.211D-01
 Coeff:      0.964D-01-0.420D+00 0.134D+01
 Gap=     0.363 Goal=   None    Shift=    0.000
 RMSDP=6.65D-07 MaxDP=5.01D-06 DE=-4.37D-09 OVMax= 4.94D-06

 Cycle  10  Pass 1  IDiag  3:
 E=  2.66240251502903     Delta-E=       -0.000000000127 Rises=F Damp=F
 DIIS: error= 2.28D-07 at cycle  10 NSaved=  10.
 NSaved=10 IEnMin=10 EnMin=  2.66240251502903     IErMin=10 ErrMin= 2.28D-07
 ErrMax= 2.28D-07  0.00D+00 EMaxC= 1.00D-01 BMatC= 1.17D-12 BMatP= 2.62D-11
 IDIUse=1 WtCom= 1.00D+00 WtEn= 0.00D+00
 Coeff-Com:  0.342D-06-0.819D-06 0.179D-04 0.221D-04-0.809D-03 0.673D-02
 Coeff-Com: -0.320D-01 0.148D+00-0.586D+00 0.146D+01
 Coeff:      0.342D-06-0.819D-06 0.179D-04 0.221D-04-0.809D-03 0.673D-02
 Coeff:     -0.320D-01 0.148D+00-0.586D+00 0.146D+01
 Gap=     0.363 Goal=   None    Shift=    0.000
 RMSDP=1.72D-07 MaxDP=1.21D-06 DE=-1.27D-10 OVMax= 1.51D-06

 Cycle  11  Pass 1  IDiag  3:
 E=  2.66240251502202     Delta-E=       -0.000000000007 Rises=F Damp=F
 DIIS: error= 4.89D-08 at cycle  11 NSaved=  11.
 NSaved=11 IEnMin=11 EnMin=  2.66240251502202     IErMin=11 ErrMin= 4.89D-08
 ErrMax= 4.89D-08  0.00D+00 EMaxC= 1.00D-01 BMatC= 6.16D-14 BMatP= 1.17D-12
 IDIUse=1 WtCom= 1.00D+00 WtEn= 0.00D+00
 Coeff-Com: -0.216D-06 0.419D-06-0.274D-05-0.197D-04 0.269D-03-0.205D-02
 Coeff-Com:  0.963D-02-0.450D-01 0.186D+00-0.612D+00 0.146D+01
 Coeff:     -0.216D-06 0.419D-06-0.274D-05-0.197D-04 0.269D-03-0.205D-02
 Coeff:      0.963D-02-0.450D-01 0.186D+00-0.612D+00 0.146D+01
 Gap=     0.363 Goal=   None    Shift=    0.000
 RMSDP=4.37D-08 MaxDP=3.08D-07 DE=-7.01D-12 OVMax= 3.59D-07

 Cycle  12  Pass 1  IDiag  3:
 E=  2.66240251502164     Delta-E=        0.000000000000 Rises=F Damp=F
 DIIS: error= 7.49D-09 at cycle  12 NSaved=  12.
 NSaved=12 IEnMin=12 EnMin=  2.66240251502164     IErMin=12 ErrMin= 7.49D-09
 ErrMax= 7.49D-09  0.00D+00 EMaxC= 1.00D-01 BMatC= 2.39D-15 BMatP= 6.16D-14
 IDIUse=1 WtCom= 1.00D+00 WtEn= 0.00D+00
 Coeff-Com:  0.480D-07-0.962D-07 0.533D-06 0.469D-05-0.599D-04 0.460D-03
 Coeff-Com: -0.222D-02 0.110D-01-0.467D-01 0.168D+00-0.559D+00 0.143D+01
 Coeff:      0.480D-07-0.962D-07 0.533D-06 0.469D-05-0.599D-04 0.460D-03
 Coeff:     -0.222D-02 0.110D-01-0.467D-01 0.168D+00-0.559D+00 0.143D+01
 Gap=     0.363 Goal=   None    Shift=    0.000
 RMSDP=8.88D-09 MaxDP=5.30D-08 DE=-3.84D-13 OVMax= 6.76D-08

 Cycle  13  Pass 2  IDiag  1:
 SCF Done:  E(RAM1) =   2.66240251502     A.U. after   13 cycles
            NFock= 12  Conv=0.89D-08     -V/T= 1.1855
 KE=-1.435210906373D+01 PE=-1.694241268762D+02 EE= 8.253288062389D+01
 Leave Link  502 at Tue Dec 15 17:07:31 2015, MaxMem=    33554432 cpu:         0.0
 (Enter /home/Applications/g09/g09/l801.exe)
 Range of M.O.s used for correlation:     1    24
 NBasis=    24 NAE=    13 NBE=    13 NFC=     0 NFV=     0
 NROrb=     24 NOA=    13 NOB=    13 NVA=    11 NVB=    11
 Leave Link  801 at Tue Dec 15 17:07:31 2015, MaxMem=    33554432 cpu:         0.0
 (Enter /home/Applications/g09/g09/l914.exe)
 RHF ground state
 MDV=    33554432 DFT=F DoStab=F Mixed=F DoRPA=F DoScal=F NonHer=F
 Making orbital integer symmetry assigments:
 Orbital symmetries:
       Occupied  (A) (A) (A) (A) (A) (A) (A) (A) (A) (A) (A) (A)
                 (A)
       Virtual   (A) (A) (A) (A) (A) (A) (A) (A) (A) (A) (A)
    60 initial guesses have been made.
 Convergence on wavefunction:    0.000001000000000
 Davidson Disk Diagonalization:  ConvIn= 1.00D-06 SkipCon=T Conv= 1.00D-06.
 Max sub-space:   240 roots to seek:    60 dimension of matrix:          286
 Iteration     1 Dimension    60 NMult     0 NNew     60
 CISAX will form    60 AO SS matrices at one time.
 NMat=    60 NSing=    60 JSym2X= 0.
 FoFJK:  IHMeth= 8 ICntrl=       0 DoSepK=F KAlg= 0 I1Cent=   0 FoldK=F
 IRaf=         1 NMat= 120 IRICut=       1 DoRegI=T DoRafI=F ISym2E= 0.
 FoFCou: FMM=F IPFlag=           0 FMFlag=      100000 FMFlg1=           0
         NFxFlg=           0 DoJE=F BraDBF=F KetDBF=F FulRan=T
         wScrn=  0.000000 ICntrl=       0 IOpCl=  0 I1Cent=           0 NGrid=           0
         NMat0=  120 NMatS0=     60 NMatT0=    0 NMatD0=  120 NMtDS0=    0 NMtDT0=    0
 Symmetry not used in FoFCou.
 New state      6 was old state      7
 New state      7 was old state      6
 New state      8 was old state      9
 New state      9 was old state      8
 New state     13 was old state     19
 New state     15 was old state     13
 Excitation Energies [eV] at current iteration:
 Root      1 :     4.758050473768502
 Root      2 :     5.392045427351966
 Root      3 :     6.064948452552936
 Root      4 :     6.123392819940022
 Root      5 :     7.251564076986613
 Root      6 :     7.704863499236535
 Root      7 :     8.416171157342356
 Root      8 :     8.833530503129255
 Root      9 :     8.936425508243033
 Root     10 :     9.121290196974348
 Root     11 :     9.651621345981518
 Root     12 :     9.712300644932363
 Root     13 :     9.959339807618361
 Root     14 :    10.222904469728030
 Root     15 :    10.359674143818130
 Root     16 :    10.379913270908630
 Root     17 :    10.723340261462160
 Root     18 :    10.760966924127820
 Root     19 :    11.402151509053510
 Root     20 :    11.516536440776320
 Root     21 :    11.765655074055870
 Root     22 :    11.813760503838110
 Root     23 :    12.141784104452130
 Root     24 :    12.541395390628450
 Root     25 :    12.737454697882340
 Root     26 :    12.760065046903820
 Root     27 :    13.011370717906150
 Root     28 :    13.139019541492080
 Root     29 :    13.392061497352250
 Root     30 :    13.533130529381750
 Root     31 :    13.844262062033760
 Root     32 :    13.947192622228430
 Root     33 :    14.167496322425120
 Root     34 :    14.254655396245010
 Root     35 :    14.287871735412400
 Root     36 :    14.514729608692450
 Root     37 :    14.586822452693920
 Root     38 :    14.958857936985500
 Root     39 :    15.294757140535970
 Root     40 :    15.361914313936890
 Root     41 :    15.766261669907020
 Root     42 :    15.835465748090900
 Root     43 :    15.990233322021270
 Root     44 :    16.156806539849000
 Root     45 :    16.254281045682610
 Root     46 :    16.317344571095500
 Root     47 :    16.394847628757880
 Root     48 :    16.660774358457880
 Root     49 :    16.722256806543430
 Root     50 :    16.870271160948260
 Root     51 :    17.036968419647510
 Root     52 :    17.040644513624170
 Root     53 :    17.066369883613450
 Root     54 :    17.405507593810010
 Root     55 :    17.643804085933780
 Root     56 :    17.826491603253270
 Root     57 :    17.922181676875180
 Root     58 :    18.579928104859210
 Root     59 :    18.884282422006400
 Root     60 :    19.024068243144530
 Iteration     2 Dimension   120 NMult    60 NNew     60
 CISAX will form    60 AO SS matrices at one time.
 NMat=    60 NSing=    60 JSym2X= 0.
 Root      1 not converged, maximum delta is    0.022215469155727
 Root      2 not converged, maximum delta is    0.016759571057632
 Root      3 not converged, maximum delta is    0.027987173615346
 Root      4 not converged, maximum delta is    0.026827299346448
 Root      5 not converged, maximum delta is    0.009594914940286
 Root      6 not converged, maximum delta is    0.021194303571155
 Root      7 not converged, maximum delta is    0.016436095137509
 New state      8 was old state      9
 Root      8 not converged, maximum delta is    0.054414082982102
 New state      9 was old state      8
 Root      9 not converged, maximum delta is    0.030751955401889
 Root     10 not converged, maximum delta is    0.027944181316447
 Root     11 not converged, maximum delta is    0.033198254547586
 Root     12 not converged, maximum delta is    0.042585843704030
 Root     13 not converged, maximum delta is    0.050916859698609
 Root     14 not converged, maximum delta is    0.210187286660763
 Root     15 not converged, maximum delta is    0.392773106843538
 Excitation Energies [eV] at current iteration:
 Root      1 :     4.670302982641019   Change is   -0.087747491127483
 Root      2 :     5.379420366375728   Change is   -0.012625060976238
 Root      3 :     6.037624007113392   Change is   -0.027324445439543
 Root      4 :     6.109716817264721   Change is   -0.013676002675300
 Root      5 :     7.247086225725724   Change is   -0.004477851260889
 Root      6 :     7.689405532559663   Change is   -0.015457966676872
 Root      7 :     8.396127378057972   Change is   -0.020043779284385
 Root      8 :     8.801201862108465   Change is   -0.135223646134568
 Root      9 :     8.809414421451754   Change is   -0.024116081677501
 Root     10 :     9.098067494149674   Change is   -0.023222702824675
 Root     11 :     9.579816685259285   Change is   -0.071804660722233
 Root     12 :     9.691294979727509   Change is   -0.021005665204853
 Root     13 :     9.782392398728250   Change is   -0.176947408890111
 Root     14 :    10.187905457629540   Change is   -0.034999012098487
 Root     15 :    10.212946078891730   Change is   -0.146728064926403
 Root     16 :    10.364844970062300   Change is   -0.015068300846334
 Root     17 :    10.588465522940320   Change is   -0.172501401187502
 Root     18 :    10.673104167845000   Change is   -0.050236093617158
 Root     19 :    11.236328349438470   Change is   -0.280208091337853
 Root     20 :    11.375918539053620   Change is   -0.026232969999889
 Root     21 :    11.648415452663210   Change is   -0.165345051174896
 Root     22 :    11.727256430914820   Change is   -0.038398643141049
 Root     23 :    11.973975116959320   Change is   -0.167808987492811
 Root     24 :    12.271782797189020   Change is   -0.269612593439424
 Root     25 :    12.524981424457790   Change is   -0.212473273424548
 Root     26 :    12.716032160901760   Change is   -0.044032886002059
 Root     27 :    12.874767726632440   Change is   -0.136602991273708
 Root     28 :    13.085400260944100   Change is   -0.053619280547975
 Root     29 :    13.218337538623050   Change is   -0.173723958729196
 Root     30 :    13.360123691439650   Change is   -0.173006837942100
 Root     31 :    13.613540605782920   Change is   -0.230721456250847
 Root     32 :    13.723866639918110   Change is   -0.223325982310320
 Root     33 :    13.885354936787410   Change is   -0.282141385637714
 Root     34 :    14.024567384355850   Change is   -0.263304351056549
 Root     35 :    14.168873301406610   Change is   -0.085782094838399
 Root     36 :    14.507031353449160   Change is   -0.007698255243288
 Root     37 :    14.513567875869410   Change is   -0.073254576824514
 Root     38 :    14.794292919860110   Change is   -0.164565017125390
 Root     39 :    15.154287594019080   Change is   -0.207626719917805
 Root     40 :    15.207570992550370   Change is   -0.087186147985595
 Root     41 :    15.255389114336830   Change is   -0.510872555570190
 Root     42 :    15.455025827362890   Change is   -0.799255218319719
 Root     43 :    15.678186209275320   Change is   -0.157279538815584
 Root     44 :    15.887528059210150   Change is   -0.102705262811111
 Root     45 :    15.992872137155950   Change is   -0.324472433939550
 Root     46 :    16.093329690131900   Change is   -0.063476849717102
 Root     47 :    16.385849139942670   Change is   -0.008998488815202
 Root     48 :    16.451065482590760   Change is   -0.209708875867117
 Root     49 :    16.462132457559670   Change is   -0.260124348983769
 Root     50 :    16.583709931167290   Change is   -0.286561229780964
 Root     51 :    16.667019590742590   Change is   -0.399350292870856
 Root     52 :    16.852789103972710   Change is   -0.184179315674797
 Root     53 :    16.903982701661840   Change is   -0.136661811962336
 Root     54 :    17.061298052863410   Change is   -0.344209540946604
 Root     55 :    17.302113694425120   Change is   -0.341690391508655
 Root     56 :    17.652427990072170   Change is   -0.174063613181097
 Root     57 :    17.775907170181350   Change is   -0.146274506693826
 Root     58 :    17.989725292671630   Change is   -0.590202812187581
 Root     59 :    18.295987403348410   Change is   -0.588295018657995
 Root     60 :    18.419433159204110   Change is   -0.604635083940421
 Iteration     3 Dimension   135 NMult   120 NNew     15
 CISAX will form    15 AO SS matrices at one time.
 NMat=    15 NSing=    15 JSym2X= 0.
 Root      1 not converged, maximum delta is    0.000623903416715
 Root      2 not converged, maximum delta is    0.000037711619531
 Root      3 not converged, maximum delta is    0.000041032222210
 Root      4 not converged, maximum delta is    0.000066477058116
 Root      5 not converged, maximum delta is    0.000037337446548
 Root      6 not converged, maximum delta is    0.000056741883483
 Root      7 not converged, maximum delta is    0.000914649552477
 Root      8 not converged, maximum delta is    0.001688935509817
 Root      9 not converged, maximum delta is    0.001631205764123
 Root     10 not converged, maximum delta is    0.000064666191858
 Root     11 not converged, maximum delta is    0.001556675926947
 Root     12 not converged, maximum delta is    0.000558780515190
 Root     13 not converged, maximum delta is    0.001357893591990
 Root     14 not converged, maximum delta is    0.003596831161130
 Root     15 not converged, maximum delta is    0.004185623747570
 Excitation Energies [eV] at current iteration:
 Root      1 :     4.670153459372744   Change is   -0.000149523268274
 Root      2 :     5.379419853076529   Change is   -0.000000513299199
 Root      3 :     6.037623102177859   Change is   -0.000000904935533
 Root      4 :     6.109715176661909   Change is   -0.000001640602812
 Root      5 :     7.247085579077512   Change is   -0.000000646648211
 Root      6 :     7.689404740712454   Change is   -0.000000791847209
 Root      7 :     8.396051295446416   Change is   -0.000076082611556
 Root      8 :     8.800758045680832   Change is   -0.000443816427634
 Root      9 :     8.809408984164754   Change is   -0.000005437287000
 Root     10 :     9.098065981984780   Change is   -0.000001512164895
 Root     11 :     9.579266021870755   Change is   -0.000550663388531
 Root     12 :     9.691273484881036   Change is   -0.000021494846473
 Root     13 :     9.781675988898519   Change is   -0.000716409829731
 Root     14 :    10.187785175400540   Change is   -0.000120282228998
 Root     15 :    10.212558623933270   Change is   -0.000387454958461
 Iteration     4 Dimension   143 NMult   135 NNew      8
 CISAX will form     8 AO SS matrices at one time.
 NMat=     8 NSing=     8 JSym2X= 0.
 Root      1 not converged, maximum delta is    0.000034239717709
 Root      2 not converged, maximum delta is    0.000001642079805
 Root      3 not converged, maximum delta is    0.000001754203937
 Root      4 not converged, maximum delta is    0.000003031355065
 Root      5 not converged, maximum delta is    0.000002564526665
 Root      6 not converged, maximum delta is    0.000001920921356
 Root      7 not converged, maximum delta is    0.000019261763457
 Root      8 not converged, maximum delta is    0.000057198986539
 Root      9 not converged, maximum delta is    0.000007527018735
 Root     10 not converged, maximum delta is    0.000003611503006
 Root     11 not converged, maximum delta is    0.000107661477056
 Root     12 not converged, maximum delta is    0.000017953641177
 Root     13 not converged, maximum delta is    0.000123278793354
 Root     14 not converged, maximum delta is    0.000027697127746
 Root     15 not converged, maximum delta is    0.000045489669438
 Excitation Energies [eV] at current iteration:
 Root      1 :     4.670153167503596   Change is   -0.000000291869149
 Root      2 :     5.379419852136106   Change is   -0.000000000940423
 Root      3 :     6.037623100808112   Change is   -0.000000001369747
 Root      4 :     6.109715174505203   Change is   -0.000000002156706
 Root      5 :     7.247085578369628   Change is   -0.000000000707885
 Root      6 :     7.689404739085801   Change is   -0.000000001626653
 Root      7 :     8.396051153268550   Change is   -0.000000142177867
 Root      8 :     8.800757400495730   Change is   -0.000000645185101
 Root      9 :     8.809408967203190   Change is   -0.000000016961565
 Root     10 :     9.098065979025453   Change is   -0.000000002959326
 Root     11 :     9.579264286679422   Change is   -0.000001735191333
 Root     12 :     9.691273440988235   Change is   -0.000000043892801
 Root     13 :     9.781674741646087   Change is   -0.000001247252432
 Root     14 :    10.187784908714170   Change is   -0.000000266686369
 Root     15 :    10.212557806786130   Change is   -0.000000817147140
 Convergence achieved on expansion vectors.
 ***********************************************************************
 Excited states from <AA,BB:AA,BB> singles matrix:
 ***********************************************************************
 
 1PDM for each excited state written to RWF  633
 Ground to excited state transition densities written to RWF  633
 Ground to excited state transition electric dipole moments (Au):
       state          X           Y           Z        Dip. S.      Osc.
         1         1.7816      0.1372      0.0022      3.1929      0.3653
         2        -0.0336      0.0047      0.0311      0.0021      0.0003
         3         0.0048      0.0094      0.1044      0.0110      0.0016
         4        -0.0548      0.0036      0.0009      0.0030      0.0005
         5         0.0107      0.0120     -0.0208      0.0007      0.0001
         6        -0.0029     -0.0040      0.1718      0.0296      0.0056
         7        -0.1108      0.7489     -0.0273      0.5739      0.1180
         8        -1.0944     -0.2082      0.0127      1.2412      0.2676
         9         0.0637      0.0512     -0.2181      0.0542      0.0117
        10         0.0579     -0.0298      0.0785      0.0104      0.0023
        11         0.2843      0.3200     -0.0030      0.1832      0.0430
        12         0.1016     -0.0186      0.0502      0.0132      0.0031
        13        -0.5135      0.3802      0.0187      0.4086      0.0979
        14         0.0722      0.0470     -0.0321      0.0084      0.0021
        15         0.2212      0.0587      0.0654      0.0567      0.0142
 Ground to excited state transition velocity dipole moments (Au):
       state          X           Y           Z        Dip. S.      Osc.
         1        -0.1695     -0.0176      0.0009      0.0290      0.1127
         2         0.0061     -0.0032     -0.0469      0.0022      0.0076
         3        -0.0033     -0.0077     -0.1712      0.0294      0.0883
         4         0.0065      0.0006      0.0479      0.0023      0.0069
         5         0.0027     -0.0011      0.0117      0.0001      0.0004
         6         0.0010      0.0042     -0.0221      0.0005      0.0012
         7         0.0224     -0.2544      0.0030      0.0652      0.1410
         8         0.2179      0.0467      0.0020      0.0497      0.1024
         9        -0.0150     -0.0052      0.0108      0.0004      0.0008
        10        -0.0108      0.0049     -0.0117      0.0003      0.0005
        11        -0.0452     -0.0263     -0.0144      0.0029      0.0056
        12        -0.0259      0.0078      0.1517      0.0237      0.0444
        13         0.0735     -0.0717      0.0240      0.0111      0.0206
        14        -0.0133     -0.0354     -0.0909      0.0097      0.0173
        15        -0.0058     -0.0534      0.0486      0.0052      0.0093
 Ground to excited state transition magnetic dipole moments (Au):
       state          X           Y           Z
         1        -0.0057     -0.0396      0.5268
         2        -0.0602      0.2230     -0.0100
         3        -0.1726     -0.3089     -0.0008
         4        -0.0814     -0.8722     -0.0124
         5         0.0920      0.6816     -0.0082
         6        -0.9180      0.2306     -0.0070
         7         0.0025      0.0368      0.0003
         8         0.0155     -0.0011     -0.3925
         9         0.5287      0.0208      0.0563
        10        -0.3035      0.1408      0.0519
        11         0.0120      0.0112      0.0163
        12        -0.0905     -0.3125     -0.0322
        13        -0.0163     -0.0593      0.0160
        14         0.0420     -0.2719     -0.0200
        15        -0.0911      0.1631      0.0914
 Ground to excited state transition velocity quadrupole moments (Au):
       state          XX          YY          ZZ          XY          XZ          YZ
         1         0.0121     -0.0307      0.0030     -0.2440     -0.0079      0.0017
         2        -0.0007     -0.0023     -0.0014     -0.0031     -0.2021     -0.0403
         3         0.0229     -0.0096     -0.0086     -0.0038     -0.0069     -0.1038
         4        -0.0057     -0.0030      0.0000      0.0023     -0.2618      0.0453
         5        -0.0041     -0.0048      0.0000     -0.0146     -0.4908     -0.0051
         6        -0.0018     -0.0004     -0.0090      0.0019      0.0203      0.1391
         7         0.1810     -0.3142      0.0079      0.0732     -0.0057     -0.0243
         8         0.0441      0.1707      0.0149      0.2125      0.0061      0.0111
         9         0.0084     -0.0026     -0.0142     -0.0155      0.0816      0.2998
        10        -0.0201     -0.0059      0.0108     -0.0228      0.0593     -0.1757
        11         0.7448      0.2577      0.1643     -0.0928     -0.0037      0.0055
        12        -0.0194      0.0391      0.0272     -0.0080      0.2542     -0.1762
        13         0.1201     -0.1026      0.0104      0.1090      0.0491     -0.0417
        14         0.1664      0.0376     -0.0068     -0.0009      0.3224      0.0945
        15         0.2049      0.0896      0.0229     -0.1686     -0.1484     -0.0916
 <0|del|b> * <b|rxdel|0> + <0|del|b> * <b|delr+rdel|0>
 Rotatory Strengths (R) in cgs (10**-40 erg-esu-cm/Gauss)
       state          XX          YY          ZZ    R(velocity)    E-M Angle
         1         1.7025      2.8781      4.3113      2.9640       88.63
         2        -1.3517     -0.5164     -0.3375     -0.7352       93.23
         3         4.9659      0.6455      4.2426      3.2847       87.08
         4        -1.3470     -1.4810     -2.3798     -1.7359       92.24
         5        -1.9987      0.4083      0.0771     -0.5044       93.93
         6         1.2379     -0.6928      0.0340      0.1931       89.38
         7       -12.1498     -0.8101     -8.3787     -7.1129      171.04
         8        -0.7604      5.0292      1.2975      1.8554       88.33
         9         0.8261    -12.7252     -4.3313     -5.4101      136.71
        10         0.0632      4.5286      2.4889      2.3603       53.44
        11         0.7121     -2.3689     -0.4953     -0.7174      148.73
        12       -10.4478      3.2004     -2.6522     -3.2999       95.68
        13        10.5971     -6.3896      2.5622      2.2566       59.11
        14        21.6512     -0.0741     -1.0251      6.8507       66.39
        15       -19.1902     12.8834     -0.7368     -2.3478      104.38
 1/2[<0|r|b>*<b|rxdel|0> + (<0|rxdel|b>*<b|r|0>)*]
 Rotatory Strengths (R) in cgs (10**-40 erg-esu-cm/Gauss)
       state          XX          YY          ZZ     R(length)
         1         7.1438      3.8465     -0.8179      3.3908
         2        -1.4305     -0.7483      0.2205     -0.6527
         3         0.5846      2.0583      0.0613      0.9014
         4        -3.1560      2.2336      0.0076     -0.3049
         5        -0.6953     -5.7953     -0.1202     -2.2036
         6        -1.8926      0.6550      0.8521     -0.1285
         7         0.1944    -19.4974      0.0055     -6.4325
         8        11.9923     -0.1615      3.5360      5.1223
         9       -23.8238     -0.7527      8.6832     -5.2978
        10        12.4179      2.9650     -2.8813      4.1672
        11        -2.4138     -2.5375      0.0344     -1.6390
        12         6.5006     -4.1099      1.1430      1.1779
        13        -5.9039     15.9581     -0.2116      3.2809
        14        -2.1447      9.0296     -0.4545      2.1434
        15        14.2495     -6.7677     -4.2279      1.0846
  1/2[<0|del|b>*<b|r|0> + (<0|r|b>*<b|del|0>)*] (Au)
       state          X           Y           Z        Dip. S.   Osc.(frdel)
         1        -0.3019     -0.0024      0.0000      0.3043      0.2029
         2        -0.0002      0.0000     -0.0015      0.0017      0.0011
         3         0.0000     -0.0001     -0.0179      0.0180      0.0120
         4        -0.0004      0.0000      0.0000      0.0003      0.0002
         5         0.0000      0.0000     -0.0002      0.0002      0.0002
         6         0.0000      0.0000     -0.0038      0.0038      0.0025
         7        -0.0025     -0.1905     -0.0001      0.1931      0.1287
         8        -0.2385     -0.0097      0.0000      0.2482      0.1655
         9        -0.0010     -0.0003     -0.0023      0.0036      0.0024
        10        -0.0006     -0.0001     -0.0009      0.0017      0.0011
        11        -0.0129     -0.0084      0.0000      0.0212      0.0141
        12        -0.0026     -0.0001      0.0076     -0.0048     -0.0032
        13        -0.0377     -0.0272      0.0004      0.0645      0.0430
        14        -0.0010     -0.0017      0.0029     -0.0003     -0.0002
        15        -0.0013     -0.0031      0.0032      0.0012      0.0008

 Excitation energies and oscillator strengths:
 
 Excited State   1:      Singlet-A      4.6702 eV  265.48 nm  f=0.3653  <S**2>=0.000
      13 -> 14         0.69923
 This state for optimization and/or second-order correction.
 Total Energy, E(CIS) =   2.83402749343    
 Copying the excited state density for this state as the 1-particle RhoCI density.
 
 Excited State   2:      Singlet-A      5.3794 eV  230.48 nm  f=0.0003  <S**2>=0.000
      13 -> 15         0.66741
      13 -> 17        -0.17161
 
 Excited State   3:      Singlet-A      6.0376 eV  205.35 nm  f=0.0016  <S**2>=0.000
      12 -> 14         0.19367
      13 -> 16         0.64814
      13 -> 18        -0.11530
 
 Excited State   4:      Singlet-A      6.1097 eV  202.93 nm  f=0.0005  <S**2>=0.000
      12 -> 14         0.67510
      13 -> 16        -0.19024
 
 Excited State   5:      Singlet-A      7.2471 eV  171.08 nm  f=0.0001  <S**2>=0.000
      13 -> 15         0.14437
      13 -> 17         0.66386
      13 -> 21         0.10367
 
 Excited State   6:      Singlet-A      7.6894 eV  161.24 nm  f=0.0056  <S**2>=0.000
      10 -> 14         0.69836
 
 Excited State   7:      Singlet-A      8.3961 eV  147.67 nm  f=0.1180  <S**2>=0.000
      11 -> 14         0.68632
 
 Excited State   8:      Singlet-A      8.8008 eV  140.88 nm  f=0.2676  <S**2>=0.000
       9 -> 15         0.10888
      12 -> 15         0.58901
      12 -> 16        -0.17888
      12 -> 17        -0.23096
 
 Excited State   9:      Singlet-A      8.8094 eV  140.74 nm  f=0.0117  <S**2>=0.000
      11 -> 15        -0.22968
      13 -> 18         0.61236
      13 -> 19         0.21733
 
 Excited State  10:      Singlet-A      9.0981 eV  136.28 nm  f=0.0023  <S**2>=0.000
      11 -> 16        -0.16479
      13 -> 18        -0.19881
      13 -> 19         0.64105
 
 Excited State  11:      Singlet-A      9.5793 eV  129.43 nm  f=0.0430  <S**2>=0.000
      10 -> 15        -0.15007
      12 -> 15         0.15720
      12 -> 16         0.62092
 
 Excited State  12:      Singlet-A      9.6913 eV  127.93 nm  f=0.0031  <S**2>=0.000
       7 -> 15         0.12791
      11 -> 15         0.61336
      11 -> 16         0.11465
      13 -> 15         0.11246
      13 -> 18         0.20888
 
 Excited State  13:      Singlet-A      9.7817 eV  126.75 nm  f=0.0979  <S**2>=0.000
       8 -> 15         0.11543
      10 -> 15        -0.17438
      10 -> 16        -0.25156
      10 -> 18         0.18724
      12 -> 15         0.21918
      12 -> 17         0.48846
      12 -> 19        -0.13802
 
 Excited State  14:      Singlet-A     10.1878 eV  121.70 nm  f=0.0021  <S**2>=0.000
       9 -> 14        -0.13513
       9 -> 15         0.13019
      10 -> 15         0.24911
      11 -> 16         0.54238
      13 -> 19         0.11526
 
 Excited State  15:      Singlet-A     10.2126 eV  121.40 nm  f=0.0142  <S**2>=0.000
       9 -> 15         0.27452
      10 -> 15         0.45992
      10 -> 18        -0.10794
      10 -> 19        -0.14052
      11 -> 16        -0.28726
      12 -> 17         0.15339
 SavETr:  write IOETrn=   770 NScale= 10 NData=  16 NLR=1 NState=   15 LETran=     280.
 The selected state is a singlet
 CISAX will form     1 AO SS matrices at one time.
 NMat=     1 NSing=     1 JSym2X= 0.
 Leave Link  914 at Tue Dec 15 17:07:31 2015, MaxMem=    33554432 cpu:         0.1
 (Enter /home/Applications/g09/g09/l1002.exe)
 Minotr:  Closed shell wavefunction.
          Computing CIS/TD-HF/TD-KS derivatives.
          Using Z-Vector for PSCF gradient.
          Skipping F1 and S1 gradient terms here.
          IDoAtm=111111111
          Direct CPHF calculation.
          Differentiating once with respect to electric field.
                with respect to dipole field.
          Differentiating once with respect to nuclear coordinates.
          Electric field/nuclear overlap derivatives assumed to be zero.
          Requested convergence is 1.0D-10 RMS, and 1.0D-09 maximum.
          NewPWx=T KeepS1=F KeepF1=F KeepIn=T MapXYZ=F SortEE=F KeepMc=T.
          MDV=      33495423 using IRadAn=       0.
 Keep J ints in memory in canonical form, NReq=871704.
 FoFCou: FMM=F IPFlag=           0 FMFlag=           0 FMFlg1=           0
         NFxFlg=           0 DoJE=F BraDBF=F KetDBF=F FulRan=T
         wScrn=  0.000000 ICntrl=     600 IOpCl=  2 I1Cent=           0 NGrid=           0
         NMat0=    1 NMatS0=     54 NMatT0=    0 NMatD0=    1 NMtDS0=    0 NMtDT0=    0
 Symmetry not used in FoFCou.
          Solving linear equations separately, MaxMat=       0.
          There are     1 degrees of freedom in the 1st order CPHF.  IDoFFX=0 NUNeed=     1.
 LinEq1:  Iter=  0 NonCon=     1 RMS=7.91D-03 Max=6.06D-02 NDo=     1
 AX will form     1 AO Fock derivatives at one time.
 LinEq1:  Iter=  1 NonCon=     1 RMS=9.11D-04 Max=3.41D-03 NDo=     1
 LinEq1:  Iter=  2 NonCon=     1 RMS=1.85D-04 Max=1.52D-03 NDo=     1
 LinEq1:  Iter=  3 NonCon=     1 RMS=1.97D-05 Max=6.48D-05 NDo=     1
 LinEq1:  Iter=  4 NonCon=     1 RMS=2.42D-06 Max=1.03D-05 NDo=     1
 LinEq1:  Iter=  5 NonCon=     1 RMS=2.56D-07 Max=1.30D-06 NDo=     1
 LinEq1:  Iter=  6 NonCon=     1 RMS=3.89D-08 Max=1.82D-07 NDo=     1
 LinEq1:  Iter=  7 NonCon=     1 RMS=4.46D-09 Max=1.68D-08 NDo=     1
 LinEq1:  Iter=  8 NonCon=     1 RMS=4.06D-10 Max=1.29D-09 NDo=     1
 LinEq1:  Iter=  9 NonCon=     0 RMS=4.36D-11 Max=1.80D-10 NDo=     1
 Linear equations converged to 1.000D-10 1.000D-09 after     9 iterations.
 End of Minotr F.D. properties file   721 does not exist.
 End of Minotr F.D. properties file   722 does not exist.
 End of Minotr F.D. properties file   788 does not exist.
 Leave Link 1002 at Tue Dec 15 17:07:31 2015, MaxMem=    33554432 cpu:         0.0
 (Enter /home/Applications/g09/g09/l601.exe)
 Copying SCF densities to generalized density rwf, IOpCl= 0 IROHF=0.

 **********************************************************************

            Population analysis using the SCF density.

 **********************************************************************

 Orbital symmetries:
       Occupied  (A) (A) (A) (A) (A) (A) (A) (A) (A) (A) (A) (A)
                 (A)
       Virtual   (A) (A) (A) (A) (A) (A) (A) (A) (A) (A) (A)
 The electronic state is 1-A.
 Alpha  occ. eigenvalues --   -1.84696  -1.11841  -0.87667  -0.80030  -0.74208
 Alpha  occ. eigenvalues --   -0.67355  -0.62666  -0.54660  -0.53829  -0.45701
 Alpha  occ. eigenvalues --   -0.44732  -0.40667  -0.27473
 Alpha virt. eigenvalues --    0.08841   0.15169   0.17394   0.25702   0.29403
 Alpha virt. eigenvalues --    0.30392   0.37793   0.41276   0.47210   0.55383
 Alpha virt. eigenvalues --    0.58425
     Molecular Orbital Coefficients:
                           1         2         3         4         5
                           O         O         O         O         O
     Eigenvalues --    -1.84696  -1.11841  -0.87667  -0.80030  -0.74208
   1 1   C  1S          0.07152   0.46144  -0.23865  -0.21824   0.20483
   2        1PX         0.05092   0.15718   0.24546   0.21250   0.11104
   3        1PY        -0.09754  -0.14483   0.16159  -0.01368   0.36820
   4        1PZ        -0.00074   0.00428  -0.00175  -0.00426  -0.00731
   5 2   C  1S          0.20990   0.28173  -0.48109   0.11185  -0.35622
   6        1PX         0.21780   0.17100   0.09374   0.17599   0.03902
   7        1PY        -0.12335   0.29134   0.02352  -0.49994   0.24387
   8        1PZ        -0.01258  -0.00882   0.02193  -0.01517   0.00024
   9 3   O  1S          0.85356  -0.26645  -0.01778   0.04305   0.27958
  10        1PX         0.00508  -0.00948   0.19432  -0.26845   0.01472
  11        1PY         0.04478   0.15788   0.01118  -0.01348  -0.14292
  12        1PZ         0.00275   0.00385  -0.00078  -0.00277  -0.01470
  13 4   C  1S          0.22856   0.23961   0.48189  -0.19762  -0.35368
  14        1PX        -0.22917  -0.16815   0.07611   0.13399  -0.07573
  15        1PY        -0.14195   0.29558  -0.01181   0.54754   0.14359
  16        1PZ        -0.01728  -0.00968  -0.03656   0.02406   0.00814
  17 5   C  1S          0.06461   0.42892   0.28235   0.24153   0.15466
  18        1PX        -0.04832  -0.17095   0.19657   0.17371  -0.17170
  19        1PY        -0.09303  -0.14232  -0.13754   0.04369   0.33847
  20        1PZ        -0.00106   0.00376  -0.00171   0.00697  -0.00695
  21 6   H  1S          0.00415   0.14140   0.16107   0.19317   0.16356
  22 7   H  1S          0.05228   0.01750   0.27556  -0.13875  -0.25013
  23 8   H  1S          0.04652   0.03824  -0.28496   0.06772  -0.25280
  24 9   H  1S          0.00465   0.15295  -0.13179  -0.17388   0.22457
                           6         7         8         9        10
                           O         O         O         O         O
     Eigenvalues --    -0.67355  -0.62666  -0.54660  -0.53829  -0.45701
   1 1   C  1S          0.16269   0.01569   0.01894   0.16542  -0.10048
   2        1PX        -0.22070  -0.01904  -0.17321   0.11141   0.05880
   3        1PY         0.11558   0.02750  -0.30845   0.16372  -0.44753
   4        1PZ        -0.03806   0.38644   0.01283  -0.02081   0.02242
   5 2   C  1S          0.12349   0.01754  -0.03665   0.15994   0.10849
   6        1PX        -0.43700  -0.04821   0.31195   0.51026   0.04617
   7        1PY         0.05707   0.00291   0.42683  -0.25191   0.27398
   8        1PZ        -0.05900   0.57007  -0.03018  -0.04716   0.02816
   9 3   O  1S          0.19671   0.02787   0.18399  -0.14810  -0.02006
  10        1PX        -0.00385   0.00487  -0.08269  -0.11134   0.05379
  11        1PY        -0.17309  -0.02908  -0.07914   0.05187   0.02303
  12        1PZ        -0.03647   0.19542  -0.01405   0.01657   0.00232
  13 4   C  1S          0.10579   0.03493  -0.14450  -0.02331  -0.10115
  14        1PX         0.47164   0.02533   0.44806   0.39523  -0.07427
  15        1PY         0.07812   0.00093   0.29125  -0.36942  -0.27082
  16        1PZ        -0.06917   0.58090   0.05946   0.06204  -0.03195
  17 5   C  1S          0.18925   0.02874  -0.16851  -0.04301   0.09947
  18        1PX         0.23086   0.02423   0.12025  -0.18644   0.24865
  19        1PY         0.12280   0.02194  -0.23018   0.27847   0.49446
  20        1PZ        -0.03786   0.36847   0.03291   0.00107  -0.02284
  21 6   H  1S          0.24948   0.03632  -0.17811   0.04318   0.41920
  22 7   H  1S          0.29110   0.03036   0.09341   0.30332  -0.04948
  23 8   H  1S          0.28355   0.04257  -0.30016  -0.12569  -0.02759
  24 9   H  1S          0.22257   0.02857  -0.08928   0.15223  -0.32603
                          11        12        13        14        15
                           O         O         O         V         V
     Eigenvalues --    -0.44732  -0.40667  -0.27473   0.08841   0.15169
   1 1   C  1S         -0.01871   0.02957  -0.00902  -0.01083  -0.04922
   2        1PX        -0.00657   0.56058   0.01576   0.00576  -0.21042
   3        1PY        -0.01037  -0.19302   0.01846   0.02528  -0.07975
   4        1PZ        -0.25447  -0.01158   0.55786   0.68607   0.01098
   5 2   C  1S         -0.02487  -0.06579   0.00197   0.00232   0.01009
   6        1PX        -0.05997  -0.31054  -0.00713  -0.00490  -0.14011
   7        1PY         0.01779   0.06043  -0.00490   0.00589  -0.08995
   8        1PZ        -0.65303  -0.00111  -0.38652  -0.25037   0.00075
   9 3   O  1S         -0.00296   0.09511  -0.00645  -0.00028   0.00460
  10        1PX         0.01594   0.01724   0.00081  -0.00382  -0.05016
  11        1PY         0.00336  -0.13600   0.00885  -0.00110   0.03699
  12        1PZ         0.01726  -0.01121  -0.15066  -0.00393   0.00134
  13 4   C  1S          0.04308  -0.10643  -0.00081   0.00088  -0.10584
  14        1PX        -0.06965   0.26140   0.00040   0.00110  -0.36684
  15        1PY        -0.02054  -0.04443  -0.00258  -0.01285   0.32212
  16        1PZ         0.67427   0.03035  -0.34076   0.20249   0.00867
  17 5   C  1S          0.02127   0.07097  -0.00924   0.01410  -0.06698
  18        1PX         0.03575  -0.50395  -0.02111   0.00774  -0.20866
  19        1PY         0.01108  -0.02266   0.02994  -0.03158   0.27208
  20        1PZ         0.19408  -0.00719   0.63098  -0.65053  -0.02650
  21 6   H  1S          0.03583  -0.17574  -0.00513   0.00107  -0.04140
  22 7   H  1S         -0.01811   0.12674   0.00574  -0.01120   0.68910
  23 8   H  1S          0.00785   0.15536   0.00135   0.00149  -0.24902
  24 9   H  1S         -0.01512  -0.31922  -0.00872   0.00068  -0.06433
                          16        17        18        19        20
                           V         V         V         V         V
     Eigenvalues --     0.17394   0.25702   0.29403   0.30392   0.37793
   1 1   C  1S         -0.12972   0.11589  -0.04671   0.11290   0.41209
   2        1PX         0.10675   0.56153  -0.04924   0.06541  -0.24341
   3        1PY         0.29605  -0.13243  -0.25039   0.49759  -0.09607
   4        1PZ        -0.01233   0.00437   0.00846  -0.01813   0.01080
   5 2   C  1S         -0.10894   0.06606  -0.29580   0.37904  -0.27185
   6        1PX         0.35381  -0.12359   0.10743  -0.10180   0.09372
   7        1PY         0.34277  -0.01145  -0.08294   0.14060  -0.20958
   8        1PZ        -0.00664   0.00060  -0.00244   0.00509  -0.00724
   9 3   O  1S          0.00931  -0.00395  -0.02164  -0.00120  -0.03512
  10        1PX         0.01811  -0.01573  -0.00916  -0.05253   0.00972
  11        1PY         0.07467  -0.00919  -0.04645  -0.01827  -0.18753
  12        1PZ        -0.00275  -0.00177  -0.00989   0.00401   0.01997
  13 4   C  1S         -0.06610  -0.19721  -0.39261  -0.27470  -0.20538
  14        1PX        -0.11859  -0.14427  -0.09528  -0.08176  -0.08136
  15        1PY         0.13974  -0.04253  -0.16856  -0.15144  -0.18449
  16        1PZ         0.00495  -0.00020  -0.00167  -0.00436  -0.00698
  17 5   C  1S         -0.12569  -0.13188   0.00559  -0.00850   0.46198
  18        1PX         0.12137   0.53777  -0.13318   0.14136   0.23180
  19        1PY         0.12275  -0.01109  -0.47166  -0.35997  -0.00821
  20        1PZ        -0.00760   0.00440   0.01951   0.01778   0.01038
  21 6   H  1S         -0.12450  -0.23288   0.49429   0.20132  -0.39186
  22 7   H  1S          0.23537   0.18512   0.21149   0.13610   0.06635
  23 8   H  1S          0.67414  -0.11651   0.20464  -0.22091   0.09863
  24 9   H  1S         -0.11996   0.40405   0.24641  -0.44183  -0.28308
                          21        22        23        24
                           V         V         V         V
     Eigenvalues --     0.41276   0.47210   0.55383   0.58425
   1 1   C  1S          0.58810  -0.01458   0.07686   0.00779
   2        1PX         0.08280   0.01095  -0.03771  -0.01075
   3        1PY        -0.04204  -0.00264   0.00977  -0.00588
   4        1PZ         0.01395   0.01459   0.00360   0.00123
   5 2   C  1S         -0.25469   0.00233  -0.17620   0.17086
   6        1PX        -0.00616  -0.00167  -0.17483   0.08629
   7        1PY        -0.20216   0.01871  -0.00458  -0.15623
   8        1PZ        -0.00104  -0.16686  -0.00014  -0.01249
   9 3   O  1S         -0.00011   0.00140   0.11558   0.01301
  10        1PX         0.02789  -0.00728  -0.07834   0.92418
  11        1PY        -0.00227  -0.07587   0.91509   0.07501
  12        1PZ        -0.00172   0.96441   0.07639   0.01320
  13 4   C  1S          0.20495   0.00315  -0.16225  -0.20530
  14        1PX        -0.00457   0.00376   0.16850   0.10352
  15        1PY         0.17605   0.02007  -0.03737   0.15918
  16        1PZ         0.00100  -0.18429  -0.00077   0.01342
  17 5   C  1S         -0.55576  -0.01776   0.08329   0.00033
  18        1PX         0.09506  -0.01053   0.03690  -0.00623
  19        1PY         0.03494  -0.00241   0.00179   0.00612
  20        1PZ        -0.01293   0.01627   0.00427  -0.00085
  21 6   H  1S          0.27005   0.01251  -0.04397  -0.00564
  22 7   H  1S         -0.04036  -0.00011  -0.00120  -0.00144
  23 8   H  1S          0.05598   0.00108  -0.00360  -0.00097
  24 9   H  1S         -0.26223   0.01050  -0.04275   0.00191
     Density Matrix:
                           1         2         3         4         5
   1 1   C  1S          0.86083
   2        1PX        -0.03290   1.10903
   3        1PY         0.09160  -0.07723   1.13280
   4        1PZ        -0.00885   0.00057   0.00107   1.05616
   5 2   C  1S          0.39236  -0.22526  -0.51003   0.02584   1.10696
   6        1PX         0.09505   0.06360  -0.08730   0.01334   0.19373
   7        1PY         0.45755  -0.19747  -0.46101   0.01899  -0.24290
   8        1PZ        -0.00605   0.00306   0.00808   0.34867  -0.00515
   9 3   O  1S          0.01317  -0.00570  -0.02431   0.00073   0.00770
  10        1PX        -0.02904   0.01293   0.04156   0.00268  -0.28244
  11        1PY         0.03809  -0.01084  -0.09939   0.00231   0.19720
  12        1PZ        -0.00034  -0.00339   0.00008  -0.02349   0.01863
  13 4   C  1S         -0.00005   0.03767   0.02529  -0.00182  -0.00454
  14        1PX         0.02117   0.01026  -0.01098   0.00383  -0.01634
  15        1PY         0.04483   0.03805   0.00638   0.01010  -0.03358
  16        1PZ         0.00651   0.00159  -0.01039  -0.27257  -0.00498
  17 5   C  1S          0.25371   0.47187   0.07968  -0.01478  -0.00152
  18        1PX        -0.46663  -0.64938  -0.11879  -0.00797  -0.03674
  19        1PY         0.06297   0.09229   0.09279   0.03465   0.02860
  20        1PZ        -0.01539  -0.00023   0.02730   0.89292   0.00016
  21 6   H  1S          0.03088   0.05382   0.00083  -0.00176   0.05516
  22 7   H  1S          0.06777   0.07386  -0.00002   0.00549   0.05049
  23 8   H  1S          0.09990  -0.03042  -0.12376   0.00589   0.53702
  24 9   H  1S          0.54028  -0.47097   0.65531  -0.01278   0.09924
                           6         7         8         9        10
   6        1PX         1.54229
   7        1PY        -0.16187   1.47606
   8        1PZ         0.00706   0.00470   1.81837
   9 3   O  1S          0.04288  -0.01859   0.00020   1.96929
  10        1PX        -0.22792   0.29518   0.01975  -0.00575   0.26575
  11        1PY         0.30340  -0.09216  -0.02555  -0.23029   0.00533
  12        1PZ         0.02868  -0.02423   0.32039  -0.01970   0.00169
  13 4   C  1S          0.01654  -0.03510  -0.00584   0.01145   0.29618
  14        1PX         0.00556   0.01698   0.00277  -0.04725  -0.21042
  15        1PY        -0.01760   0.01845   0.00407  -0.02205  -0.29920
  16        1PZ        -0.00155   0.00529   0.04022  -0.00029  -0.02578
  17 5   C  1S         -0.02965   0.04472   0.00540   0.01526   0.02721
  18        1PX         0.01771  -0.03598   0.00296   0.00645   0.01139
  19        1PY         0.01592   0.00061  -0.01392  -0.02731  -0.03706
  20        1PZ        -0.00832   0.00473  -0.32036   0.00066  -0.00198
  21 6   H  1S          0.01615   0.04024  -0.00150   0.00555   0.01950
  22 7   H  1S          0.04136  -0.02518  -0.00328   0.00519   0.08796
  23 8   H  1S         -0.68344  -0.34998   0.01534   0.00494  -0.07630
  24 9   H  1S          0.05842   0.02016   0.00296   0.00549  -0.02125
                          11        12        13        14        15
  11        1PY         0.21308
  12        1PZ         0.01153   0.12673
  13 4   C  1S          0.21969   0.02672   1.12653
  14        1PX        -0.32353  -0.03390  -0.20435   1.53805
  15        1PY        -0.08754  -0.03169  -0.24048   0.15142   1.46245
  16        1PZ        -0.03243   0.35711   0.00148   0.00374  -0.00353
  17 5   C  1S          0.03710   0.00046   0.36172  -0.07527   0.43970
  18        1PX         0.01918   0.00532   0.22280   0.05610   0.20159
  19        1PY        -0.10319  -0.00211  -0.51321   0.07399  -0.49643
  20        1PZ         0.00281  -0.03730   0.03185  -0.01173   0.02313
  21 6   H  1S          0.00812   0.00608   0.09334  -0.04539   0.02763
  22 7   H  1S         -0.03102   0.00076   0.53368   0.68854  -0.34268
  23 8   H  1S         -0.02931   0.00453   0.04577  -0.03559  -0.01910
  24 9   H  1S          0.00903   0.00600   0.05868  -0.01889   0.04227
                          16        17        18        19        20
  16        1PZ         1.84936
  17 5   C  1S         -0.00228   0.86496
  18        1PX        -0.00033   0.03305   1.10094
  19        1PY         0.00090   0.11045   0.06936   1.11281
  20        1PZ         0.27041  -0.00996  -0.00603   0.00764   1.14955
  21 6   H  1S          0.00352   0.56960   0.47191   0.63419  -0.01201
  22 7   H  1S         -0.00677   0.09460   0.02634  -0.12794   0.00840
  23 8   H  1S         -0.00256   0.07103  -0.08140  -0.00075  -0.00073
  24 9   H  1S         -0.00052   0.03509  -0.05727   0.00167  -0.00268
                          21        22        23        24
  21 6   H  1S          0.83019
  22 7   H  1S          0.01171   0.73211
  23 8   H  1S          0.02633   0.03402   0.73278
  24 9   H  1S          0.00307   0.02789   0.01266   0.82290
    Full Mulliken population analysis:
                           1         2         3         4         5
   1 1   C  1S          0.86083
   2        1PX         0.00000   1.10903
   3        1PY         0.00000   0.00000   1.13280
   4        1PZ         0.00000   0.00000   0.00000   1.05616
   5 2   C  1S          0.00000   0.00000   0.00000   0.00000   1.10696
   6        1PX         0.00000   0.00000   0.00000   0.00000   0.00000
   7        1PY         0.00000   0.00000   0.00000   0.00000   0.00000
   8        1PZ         0.00000   0.00000   0.00000   0.00000   0.00000
   9 3   O  1S          0.00000   0.00000   0.00000   0.00000   0.00000
  10        1PX         0.00000   0.00000   0.00000   0.00000   0.00000
  11        1PY         0.00000   0.00000   0.00000   0.00000   0.00000
  12        1PZ         0.00000   0.00000   0.00000   0.00000   0.00000
  13 4   C  1S          0.00000   0.00000   0.00000   0.00000   0.00000
  14        1PX         0.00000   0.00000   0.00000   0.00000   0.00000
  15        1PY         0.00000   0.00000   0.00000   0.00000   0.00000
  16        1PZ         0.00000   0.00000   0.00000   0.00000   0.00000
  17 5   C  1S          0.00000   0.00000   0.00000   0.00000   0.00000
  18        1PX         0.00000   0.00000   0.00000   0.00000   0.00000
  19        1PY         0.00000   0.00000   0.00000   0.00000   0.00000
  20        1PZ         0.00000   0.00000   0.00000   0.00000   0.00000
  21 6   H  1S          0.00000   0.00000   0.00000   0.00000   0.00000
  22 7   H  1S          0.00000   0.00000   0.00000   0.00000   0.00000
  23 8   H  1S          0.00000   0.00000   0.00000   0.00000   0.00000
  24 9   H  1S          0.00000   0.00000   0.00000   0.00000   0.00000
                           6         7         8         9        10
   6        1PX         1.54229
   7        1PY         0.00000   1.47606
   8        1PZ         0.00000   0.00000   1.81837
   9 3   O  1S          0.00000   0.00000   0.00000   1.96929
  10        1PX         0.00000   0.00000   0.00000   0.00000   0.26575
  11        1PY         0.00000   0.00000   0.00000   0.00000   0.00000
  12        1PZ         0.00000   0.00000   0.00000   0.00000   0.00000
  13 4   C  1S          0.00000   0.00000   0.00000   0.00000   0.00000
  14        1PX         0.00000   0.00000   0.00000   0.00000   0.00000
  15        1PY         0.00000   0.00000   0.00000   0.00000   0.00000
  16        1PZ         0.00000   0.00000   0.00000   0.00000   0.00000
  17 5   C  1S          0.00000   0.00000   0.00000   0.00000   0.00000
  18        1PX         0.00000   0.00000   0.00000   0.00000   0.00000
  19        1PY         0.00000   0.00000   0.00000   0.00000   0.00000
  20        1PZ         0.00000   0.00000   0.00000   0.00000   0.00000
  21 6   H  1S          0.00000   0.00000   0.00000   0.00000   0.00000
  22 7   H  1S          0.00000   0.00000   0.00000   0.00000   0.00000
  23 8   H  1S          0.00000   0.00000   0.00000   0.00000   0.00000
  24 9   H  1S          0.00000   0.00000   0.00000   0.00000   0.00000
                          11        12        13        14        15
  11        1PY         0.21308
  12        1PZ         0.00000   0.12673
  13 4   C  1S          0.00000   0.00000   1.12653
  14        1PX         0.00000   0.00000   0.00000   1.53805
  15        1PY         0.00000   0.00000   0.00000   0.00000   1.46245
  16        1PZ         0.00000   0.00000   0.00000   0.00000   0.00000
  17 5   C  1S          0.00000   0.00000   0.00000   0.00000   0.00000
  18        1PX         0.00000   0.00000   0.00000   0.00000   0.00000
  19        1PY         0.00000   0.00000   0.00000   0.00000   0.00000
  20        1PZ         0.00000   0.00000   0.00000   0.00000   0.00000
  21 6   H  1S          0.00000   0.00000   0.00000   0.00000   0.00000
  22 7   H  1S          0.00000   0.00000   0.00000   0.00000   0.00000
  23 8   H  1S          0.00000   0.00000   0.00000   0.00000   0.00000
  24 9   H  1S          0.00000   0.00000   0.00000   0.00000   0.00000
                          16        17        18        19        20
  16        1PZ         1.84936
  17 5   C  1S          0.00000   0.86496
  18        1PX         0.00000   0.00000   1.10094
  19        1PY         0.00000   0.00000   0.00000   1.11281
  20        1PZ         0.00000   0.00000   0.00000   0.00000   1.14955
  21 6   H  1S          0.00000   0.00000   0.00000   0.00000   0.00000
  22 7   H  1S          0.00000   0.00000   0.00000   0.00000   0.00000
  23 8   H  1S          0.00000   0.00000   0.00000   0.00000   0.00000
  24 9   H  1S          0.00000   0.00000   0.00000   0.00000   0.00000
                          21        22        23        24
  21 6   H  1S          0.83019
  22 7   H  1S          0.00000   0.73211
  23 8   H  1S          0.00000   0.00000   0.73278
  24 9   H  1S          0.00000   0.00000   0.00000   0.82290
     Gross orbital populations:
                           1
   1 1   C  1S          0.86083
   2        1PX         1.10903
   3        1PY         1.13280
   4        1PZ         1.05616
   5 2   C  1S          1.10696
   6        1PX         1.54229
   7        1PY         1.47606
   8        1PZ         1.81837
   9 3   O  1S          1.96929
  10        1PX         0.26575
  11        1PY         0.21308
  12        1PZ         0.12673
  13 4   C  1S          1.12653
  14        1PX         1.53805
  15        1PY         1.46245
  16        1PZ         1.84936
  17 5   C  1S          0.86496
  18        1PX         1.10094
  19        1PY         1.11281
  20        1PZ         1.14955
  21 6   H  1S          0.83019
  22 7   H  1S          0.73211
  23 8   H  1S          0.73278
  24 9   H  1S          0.82290
          Condensed to atoms (all electrons):
               1          2          3          4          5          6
     1  C    4.158824   0.000000   0.000000   0.000000   0.000000   0.000000
     2  C    0.000000   5.943677   0.000000   0.000000   0.000000   0.000000
     3  O    0.000000   0.000000   2.574855   0.000000   0.000000   0.000000
     4  C    0.000000   0.000000   0.000000   5.976383   0.000000   0.000000
     5  C    0.000000   0.000000   0.000000   0.000000   4.228273   0.000000
     6  H    0.000000   0.000000   0.000000   0.000000   0.000000   0.830189
     7  H    0.000000   0.000000   0.000000   0.000000   0.000000   0.000000
     8  H    0.000000   0.000000   0.000000   0.000000   0.000000   0.000000
     9  H    0.000000   0.000000   0.000000   0.000000   0.000000   0.000000
               7          8          9
     1  C    0.000000   0.000000   0.000000
     2  C    0.000000   0.000000   0.000000
     3  O    0.000000   0.000000   0.000000
     4  C    0.000000   0.000000   0.000000
     5  C    0.000000   0.000000   0.000000
     6  H    0.000000   0.000000   0.000000
     7  H    0.732115   0.000000   0.000000
     8  H    0.000000   0.732783   0.000000
     9  H    0.000000   0.000000   0.822901
 Mulliken charges:
               1
     1  C   -0.158824
     2  C   -1.943677
     3  O    3.425145
     4  C   -1.976383
     5  C   -0.228273
     6  H    0.169811
     7  H    0.267885
     8  H    0.267217
     9  H    0.177099
 Sum of Mulliken charges =   0.00000
 Mulliken charges with hydrogens summed into heavy atoms:
               1
     1  C    0.018275
     2  C   -1.676460
     3  O    3.425145
     4  C   -1.708498
     5  C   -0.058462
 Charge=              0.0000 electrons
 Dipole moment (field-independent basis, Debye):
    X=              0.0642    Y=            -12.5577    Z=             -1.1300  Tot=             12.6086
 N-N= 1.039057578311D+02 E-N=-1.694241269652D+02  KE=-1.435210906373D+01
 Orbital energies and kinetic energies (alpha):
                                 1                 2
   1         O                -1.846960         -1.235469
   2         O                -1.118414         -0.971328
   3         O                -0.876667         -0.804496
   4         O                -0.800296         -0.533132
   5         O                -0.742081         -0.603617
   6         O                -0.673551         -0.545713
   7         O                -0.626663         -0.492662
   8         O                -0.546596         -0.341156
   9         O                -0.538286         -0.335746
  10         O                -0.457008         -0.419141
  11         O                -0.447320         -0.317635
  12         O                -0.406667         -0.323809
  13         O                -0.274728         -0.252151
  14         V                 0.088409         -0.178046
  15         V                 0.151691         -0.185987
  16         V                 0.173936         -0.173735
  17         V                 0.257023         -0.120512
  18         V                 0.294033         -0.117485
  19         V                 0.303924         -0.095777
  20         V                 0.377932         -0.043885
  21         V                 0.412765         -0.046419
  22         V                 0.472099          0.687575
  23         V                 0.553829          0.702156
  24         V                 0.584249          0.759724
 Total kinetic energy from orbitals=-1.435210906373D+01
 Leave Link  601 at Tue Dec 15 17:07:31 2015, MaxMem=    33554432 cpu:         0.0
 (Enter /home/Applications/g09/g09/l701.exe)
 Compute integral first derivatives.
 ... and contract with generalized density number  6.
 Leave Link  701 at Tue Dec 15 17:07:31 2015, MaxMem=    33554432 cpu:         0.0
 (Enter /home/Applications/g09/g09/l702.exe)
 L702 exits ... SP integral derivatives will be done elsewhere.
 Leave Link  702 at Tue Dec 15 17:07:31 2015, MaxMem=    33554432 cpu:         0.0
 (Enter /home/Applications/g09/g09/l703.exe)
 Compute integral first derivatives, UseDBF=F ICtDFT=           0.
 Integral derivatives from FoFJK, PRISM(SPDF).
 Calling FoFJK, ICntrl=  10005127 FMM=F ISym2X=0 I1Cent= 0 IOpClX= 0 NMat=1 NMatS=1 NMatT=0.
 FoFJK:  IHMeth= 8 ICntrl=10005127 DoSepK=F KAlg= 0 I1Cent=   0 FoldK=F
 IRaf=         0 NMat=   1 IRICut=       1 DoRegI=T DoRafI=F ISym2E= 0.
 FoFCou: FMM=F IPFlag=           0 FMFlag=      100000 FMFlg1=         800
         NFxFlg=           0 DoJE=F BraDBF=F KetDBF=F FulRan=T
         wScrn=  0.000000 ICntrl=10005127 IOpCl=  0 I1Cent=           0 NGrid=           0
         NMat0=    1 NMatS0=      1 NMatT0=    0 NMatD0=    1 NMtDS0=    0 NMtDT0=    0
 Symmetry not used in FoFCou.
 Leave Link  703 at Tue Dec 15 17:07:31 2015, MaxMem=    33554432 cpu:         0.0
 (Enter /home/Applications/g09/g09/l716.exe)
 Dipole        = 4.59475529D-02-5.30395747D+00-4.24291007D-01
 ***** Axes restored to original set *****
 -------------------------------------------------------------------
 Center     Atomic                   Forces (Hartrees/Bohr)
 Number     Number              X              Y              Z
 -------------------------------------------------------------------
      1        6           0.104660075    0.119032686    0.003249560
      2        6          -0.274479146   -0.058583487    0.009062767
      3        8           0.171521213   -0.037931037   -0.018103345
      4        6          -0.188914807    0.089377273    0.013413195
      5        6          -0.026382018   -0.123603258   -0.002218021
      6        1           0.108297296    0.077742508    0.002370532
      7        1           0.016812952    0.035159011   -0.005146189
      8        1           0.004348496   -0.042921201   -0.003791404
      9        1           0.084135938   -0.058272495    0.001162906
 -------------------------------------------------------------------
 Cartesian Forces:  Max     0.274479146 RMS     0.091627730
 Z-matrix is all fixed cartesians, so copy forces.
 Force constants in Cartesian coordinates: 
                1             2             3             4             5 
      1  0.111739D+01
      2 -0.135496D-01  0.729385D+00
      3  0.276069D-01  0.461712D-02  0.221367D+00
      4 -0.663783D+00 -0.134953D+00 -0.235503D-01  0.106214D+01
      5 -0.113344D+00 -0.240202D+00 -0.871288D-02  0.702553D-01  0.826947D+00
      6 -0.213481D-01 -0.743173D-02 -0.131500D+00  0.986807D-02  0.242271D-01
      7 -0.798955D-02  0.295948D-01  0.243167D-02 -0.264695D+00  0.139619D+00
      8 -0.609120D-02  0.227069D-01  0.916030D-03  0.184747D+00 -0.322637D+00
      9 -0.615256D-03  0.162502D-02  0.502768D-02  0.152009D-01 -0.147034D-01
     10  0.775706D-02 -0.268827D-03  0.274711D-03  0.227753D-01  0.176830D-01
     11  0.330332D-01 -0.121828D-02  0.286048D-02 -0.182622D-01 -0.141862D-01
     12  0.138587D-03  0.222130D-03  0.385094D-03 -0.173190D-02 -0.149062D-02
     13 -0.151172D+00  0.423808D-02 -0.245061D-02  0.918053D-02 -0.344456D-01
     14 -0.162782D-01 -0.305470D+00 -0.116363D-02 -0.368457D-03  0.127116D-02
     15 -0.228997D-02  0.199099D-02 -0.629914D-01  0.141954D-03 -0.219097D-02
     16  0.180904D-01 -0.670956D-03  0.215821D-04  0.102057D-05  0.000000D+00
     17 -0.234889D-01  0.870773D-03 -0.241936D-03  0.000000D+00  0.000000D+00
     18  0.667278D-04  0.196229D-04  0.115265D-01 -0.628654D-04  0.533758D-05
     19  0.174303D-04 -0.140907D-05 -0.397758D-03  0.322812D-04  0.260349D-05
     20  0.229847D-04 -0.185809D-05 -0.524509D-03  0.116934D-05  0.000000D+00
     21 -0.269497D-03  0.217862D-04  0.614991D-02  0.377969D-03  0.304834D-04
     22  0.710489D-02 -0.265550D-01 -0.556378D-03 -0.160770D+00 -0.981968D-01
     23 -0.390458D-02  0.146400D-01 -0.996655D-05 -0.943039D-01 -0.277925D+00
     24 -0.991659D-03 -0.209961D-02  0.395961D-01  0.180631D-02  0.650774D-03
     25 -0.327413D+00  0.142166D+00 -0.337988D-02 -0.488404D-02  0.184272D-01
     26  0.143601D+00 -0.220711D+00  0.225929D-02 -0.711629D-02  0.267316D-01
     27 -0.229778D-02  0.103468D-02 -0.895605D-01 -0.205012D-02  0.218416D-02
                6             7             8             9            10 
      6  0.224613D+00
      7  0.133593D-01  0.553058D+00
      8 -0.159733D-01  0.448011D-01  0.673747D+00
      9 -0.498720D-01 -0.354248D-01 -0.722961D-02  0.608719D-01
     10 -0.238026D-02 -0.313227D+00 -0.228593D+00  0.243044D-01  0.964688D+00
     11  0.208305D-02 -0.185570D+00 -0.378954D+00  0.233355D-01  0.245614D-01
     12  0.134051D-02  0.199552D-01  0.230900D-01 -0.487267D-01 -0.512753D-02
     13  0.477319D-03 -0.696947D-02  0.546329D-02 -0.743322D-03 -0.519960D+00
     14 -0.367847D-03 -0.290843D-01  0.230231D-01 -0.195164D-02  0.911353D-01
     15 -0.115165D-02  0.316639D-02 -0.126444D-02  0.594224D-02 -0.235742D-01
     16 -0.254531D-04  0.704609D-05 -0.268784D-04 -0.299121D-03 -0.458273D-02
     17  0.394990D-05 -0.566690D-05  0.216172D-04  0.240571D-03  0.598950D-02
     18  0.156787D-02 -0.187592D-03  0.715600D-03  0.796367D-02 -0.212823D-02
     19  0.398140D-03  0.197154D-01 -0.158236D-01 -0.175486D-02 -0.157461D+00
     20  0.144221D-04  0.116954D-01 -0.939951D-02 -0.122071D-02  0.895011D-01
     21  0.466168D-02 -0.180969D-02  0.172316D-02  0.396840D-02  0.839488D-02
     22  0.444509D-03  0.200943D-01  0.155006D-01 -0.353051D-03  0.106082D-04
     23 -0.220130D-02 -0.110552D-01 -0.852562D-02  0.153731D-03 -0.817749D-05
     24 -0.871069D-01 -0.129464D-02 -0.128220D-02  0.509249D-02  0.292355D-03
     25 -0.793575D-03  0.633940D-05  0.224932D-04 -0.314868D-03  0.000000D+00
     26 -0.354366D-03  0.502137D-05  0.178166D-04 -0.249404D-03  0.000000D+00
     27  0.374484D-01 -0.195947D-03 -0.695249D-03  0.973235D-02 -0.561423D-04
               11            12            13            14            15 
     11  0.830023D+00
     12 -0.203549D-01  0.192660D+00
     13  0.700209D-01 -0.189090D-01  0.998963D+00
     14 -0.208134D+00  0.607627D-02  0.101375D+00  0.739960D+00
     15  0.860497D-02 -0.106506D+00  0.259556D-01 -0.472734D-02  0.192843D+00
     16 -0.196224D-01 -0.543505D-03 -0.352028D+00 -0.170718D+00 -0.424253D-02
     17  0.255448D-01  0.178364D-03 -0.173594D+00 -0.264117D+00 -0.204912D-02
     18 -0.366090D-02  0.284128D-01 -0.309183D-02 -0.319461D-03 -0.785524D-01
     19  0.958382D-01  0.610401D-02  0.570820D-02  0.245433D-01  0.121228D-02
     20 -0.253075D+00 -0.762349D-02  0.339965D-02  0.143397D-01 -0.737842D-03
     21 -0.128963D-01 -0.724532D-01 -0.809885D-03  0.240008D-02  0.307567D-01
     22  0.000000D+00  0.130837D-03  0.148636D-04 -0.126199D-05 -0.370700D-03
     23  0.000000D+00 -0.100857D-03 -0.545118D-05  0.000000D+00  0.135953D-03
     24  0.235786D-04  0.360576D-02 -0.342186D-03  0.290533D-04  0.853415D-02
     25  0.000000D+00 -0.166550D-04  0.162625D-01 -0.603198D-03  0.116569D-05
     26  0.000000D+00  0.307392D-05  0.235486D-01 -0.872994D-03  0.237815D-03
     27  0.453856D-05  0.128116D-02 -0.860025D-04  0.245180D-04  0.111249D-01
               16            17            18            19            20 
     16  0.338541D+00
     17  0.191076D+00  0.237650D+00
     18  0.460689D-02  0.223246D-02  0.431824D-01
     19 -0.288449D-04  0.231988D-04  0.767956D-03  0.132017D+00
     20 -0.380367D-04  0.305914D-04  0.101267D-02 -0.104582D+00  0.248106D+00
     21  0.445984D-03 -0.358687D-03 -0.118737D-01 -0.632977D-02  0.907944D-02
     22  0.000000D+00  0.000000D+00  0.000000D+00  0.000000D+00  0.000000D+00
     23  0.000000D+00  0.000000D+00  0.000000D+00  0.000000D+00  0.000000D+00
     24  0.000000D+00  0.000000D+00  0.000000D+00  0.000000D+00  0.000000D+00
     25  0.000000D+00  0.000000D+00  0.289529D-04  0.000000D+00  0.000000D+00
     26  0.000000D+00  0.000000D+00 -0.534367D-05  0.000000D+00  0.000000D+00
     27  0.361562D-04 -0.561085D-05 -0.222716D-02  0.000000D+00  0.000000D+00
               21            22            23            24            25 
     21  0.387902D-01
     22  0.000000D+00  0.133568D+00
     23  0.000000D+00  0.109269D+00  0.271804D+00
     24  0.000000D+00  0.191308D-04  0.227390D-02  0.460633D-01
     25  0.000000D+00 -0.221827D-04  0.813544D-05  0.510684D-03  0.316050D+00
     26  0.000000D+00 -0.175707D-04  0.644399D-05  0.404508D-03 -0.160020D+00
     27  0.000000D+00  0.685652D-03 -0.251461D-03 -0.157849D-01  0.396418D-02
               26            27 
     26  0.194828D+00
     27 -0.229558D-02  0.479857D-01
 Leave Link  716 at Tue Dec 15 17:07:31 2015, MaxMem=    33554432 cpu:         0.0
 (Enter /home/Applications/g09/g09/l103.exe)

 GradGradGradGradGradGradGradGradGradGradGradGradGradGradGradGradGradGrad
 Berny optimization.
 Search for a local minimum.
 Step number   1 out of a maximum of    2
 All quantities printed in internal units (Hartrees-Bohrs-Radians)
 Second derivative matrix not updated -- first step.
 ITU=  0
     Eigenvalues ---    0.01695   0.02948   0.07017   0.07676   0.08178
     Eigenvalues ---    0.09682   0.12895   0.12917   0.15245   0.24596
     Eigenvalues ---    0.29015   0.33337   0.41157   0.43533   0.61016
     Eigenvalues ---    0.90299   1.08762   1.29014   1.33429   1.66472
     Eigenvalues ---    1.88882
 Quadratic step=1.030D+00 exceeds max=3.000D-01 adjusted using Lamda=-5.964D-01.
 Angle between NR and scaled steps=  32.94 degrees.
 Angle between quadratic step and forces=  24.33 degrees.
 Linear search not attempted -- first point.
 TrRot= -0.006675 -0.001050 -0.000203  0.000308 -0.000097  0.000308
 MatCor failed.
 Variable       Old X    -DE/DX   Delta X   Delta X   Delta X     New X
                                 (Linear)    (Quad)   (Total)
    X1        1.78369   0.10466   0.00000   0.02844   0.02263   1.80632
    Y1       -1.44624   0.11903   0.00000   0.03831   0.03838  -1.40786
    Z1        0.03495   0.00325   0.00000   0.00033   0.00030   0.03525
    X2       -0.57128  -0.27448   0.00000  -0.12943  -0.13479  -0.70607
    Y2       -2.07438  -0.05858   0.00000  -0.05672  -0.05820  -2.13258
    Z2       -0.05734   0.00906   0.00000   0.01155   0.01128  -0.04606
    X3       -2.18244   0.17152   0.00000   0.11309   0.10641  -2.07602
    Y3        0.01691  -0.03793   0.00000  -0.02186  -0.02419  -0.00728
    Z3        0.05962  -0.01810   0.00000  -0.01643  -0.01683   0.04279
    X4       -0.59960  -0.18891   0.00000  -0.10424  -0.11220  -0.71180
    Y4        2.00471   0.08938   0.00000   0.08092   0.07943   2.08414
    Z4       -0.08172   0.01341   0.00000   0.01449   0.01422  -0.06750
    X5        1.89001  -0.02638   0.00000  -0.01869  -0.02622   1.86378
    Y5        1.42019  -0.12360   0.00000  -0.03788  -0.03777   1.38242
    Z5        0.02945  -0.00222   0.00000  -0.00401  -0.00403   0.02543
    X6        3.37957   0.10830   0.00000   0.09495   0.08665   3.46622
    Y6        2.56746   0.07774   0.00000   0.05388   0.05497   2.62243
    Z6        0.05074   0.00237   0.00000   0.00150   0.00163   0.05237
    X7       -1.67797   0.01681   0.00000   0.00360  -0.00548  -1.68345
    Y7        3.83592   0.03516   0.00000   0.07741   0.07533   3.91125
    Z7        0.00472  -0.00515   0.00000  -0.00371  -0.00408   0.00064
    X8       -1.57799   0.00435   0.00000  -0.01821  -0.02242  -1.60041
    Y8       -3.90250  -0.04292   0.00000  -0.07770  -0.07973  -3.98223
    Z8       -0.07194  -0.00379   0.00000  -0.00279  -0.00315  -0.07510
    X9        3.38644   0.08414   0.00000   0.09050   0.08542   3.47187
    Y9       -2.55301  -0.05827   0.00000  -0.04931  -0.04822  -2.60122
    Z9        0.05844   0.00116   0.00000   0.00052   0.00066   0.05910
         Item               Value     Threshold  Converged?
 Maximum Force            0.274479     0.000450     NO 
 RMS     Force            0.091628     0.000300     NO 
 Maximum Displacement     0.134788     0.001800     NO 
 RMS     Displacement     0.057682     0.001200     NO 
 Predicted change in Energy=-9.209341D-02
 GradGradGradGradGradGradGradGradGradGradGradGradGradGradGradGradGradGrad

 Leave Link  103 at Tue Dec 15 17:07:31 2015, MaxMem=    33554432 cpu:         0.0
 (Enter /home/Applications/g09/g09/l9999.exe)
 1\1\GINC-DUSTIN-DESKTOP\Force\RAM1-FC\STO-3G\C4H4O1\DUSTIN\15-Dec-2015
 \0\\#P AM1(Input,print) CIS(Singlets,NStates=15) pop(full) force\\AM1-
 Reparam Input\\0,1\C,0.943886,-0.765315,0.018494\C,-0.30231,-1.097716,
 -0.030342\O,-1.154895,0.008947,0.031549\C,-0.317297,1.060845,-0.043242
 \C,1.000148,0.751532,0.015586\H,1.78839,1.358641,0.026853\H,-0.887941,
 2.029883,0.002497\H,-0.835035,-2.065114,-0.038071\H,1.792029,-1.350993
 ,0.030925\\Version=ES64L-G09RevD.01\State=1-A\HF=2.6624025\RMSD=8.879e
 -09\RMSF=9.163e-02\Dipole=-5.3063033,0.0440237,0.3940882\PG=C01 [X(C4H
 4O1)]\\@


 ALL OUR THINKING ABOUT NATURE MUST NECESSARILY MOVE IN CIRCLES OR SPIRALS;
 FOR WE CAN ONLY UNDERSTAND NATURE IF WE THINK ABOUT HER, AND WE CAN ONLY
 THINK BECAUSE OUR BRAIN IS BUILT IN ACCORDANCE WITH NATURE'S LAWS.

                                             -- TIMOTHY FERRIS, "GALAXIES"
 Job cpu time:       0 days  0 hours  0 minutes  0.7 seconds.
 File lengths (MBytes):  RWF=      7 Int=      0 D2E=      0 Chk=      2 Scr=      1
 Normal termination of Gaussian 09 at Tue Dec 15 17:07:31 2015.
