 Entering Gaussian System, Link 0=g09
 Input=FuranDFT_62.com
 Output=FuranDFT_62.log
 Initial command:
 /home/Applications/g09/g09/l1.exe "/home/Applications/g09/scratch/Gau-6087.inp" -scrdir="/home/Applications/g09/scratch/"
 Entering Link 1 = /home/Applications/g09/g09/l1.exe PID=      6089.
  
 Copyright (c) 1988,1990,1992,1993,1995,1998,2003,2009,2013,
            Gaussian, Inc.  All Rights Reserved.
  
 This is part of the Gaussian(R) 09 program.  It is based on
 the Gaussian(R) 03 system (copyright 2003, Gaussian, Inc.),
 the Gaussian(R) 98 system (copyright 1998, Gaussian, Inc.),
 the Gaussian(R) 94 system (copyright 1995, Gaussian, Inc.),
 the Gaussian 92(TM) system (copyright 1992, Gaussian, Inc.),
 the Gaussian 90(TM) system (copyright 1990, Gaussian, Inc.),
 the Gaussian 88(TM) system (copyright 1988, Gaussian, Inc.),
 the Gaussian 86(TM) system (copyright 1986, Carnegie Mellon
 University), and the Gaussian 82(TM) system (copyright 1983,
 Carnegie Mellon University). Gaussian is a federally registered
 trademark of Gaussian, Inc.
  
 This software contains proprietary and confidential information,
 including trade secrets, belonging to Gaussian, Inc.
  
 This software is provided under written license and may be
 used, copied, transmitted, or stored only in accord with that
 written license.
  
 The following legend is applicable only to US Government
 contracts under FAR:
  
                    RESTRICTED RIGHTS LEGEND
  
 Use, reproduction and disclosure by the US Government is
 subject to restrictions as set forth in subparagraphs (a)
 and (c) of the Commercial Computer Software - Restricted
 Rights clause in FAR 52.227-19.
  
 Gaussian, Inc.
 340 Quinnipiac St., Bldg. 40, Wallingford CT 06492
  
  
 ---------------------------------------------------------------
 Warning -- This program may not be used in any manner that
 competes with the business of Gaussian, Inc. or will provide
 assistance to any competitor of Gaussian, Inc.  The licensee
 of this program is prohibited from giving any competitor of
 Gaussian, Inc. access to this program.  By using this program,
 the user acknowledges that Gaussian, Inc. is engaged in the
 business of creating and licensing software in the field of
 computational chemistry and represents and warrants to the
 licensee that it is not a competitor of Gaussian, Inc. and that
 it will not use this program in any manner prohibited above.
 ---------------------------------------------------------------
  

 Cite this work as:
 Gaussian 09, Revision D.01,
 M. J. Frisch, G. W. Trucks, H. B. Schlegel, G. E. Scuseria, 
 M. A. Robb, J. R. Cheeseman, G. Scalmani, V. Barone, B. Mennucci, 
 G. A. Petersson, H. Nakatsuji, M. Caricato, X. Li, H. P. Hratchian, 
 A. F. Izmaylov, J. Bloino, G. Zheng, J. L. Sonnenberg, M. Hada, 
 M. Ehara, K. Toyota, R. Fukuda, J. Hasegawa, M. Ishida, T. Nakajima, 
 Y. Honda, O. Kitao, H. Nakai, T. Vreven, J. A. Montgomery, Jr., 
 J. E. Peralta, F. Ogliaro, M. Bearpark, J. J. Heyd, E. Brothers, 
 K. N. Kudin, V. N. Staroverov, T. Keith, R. Kobayashi, J. Normand, 
 K. Raghavachari, A. Rendell, J. C. Burant, S. S. Iyengar, J. Tomasi, 
 M. Cossi, N. Rega, J. M. Millam, M. Klene, J. E. Knox, J. B. Cross, 
 V. Bakken, C. Adamo, J. Jaramillo, R. Gomperts, R. E. Stratmann, 
 O. Yazyev, A. J. Austin, R. Cammi, C. Pomelli, J. W. Ochterski, 
 R. L. Martin, K. Morokuma, V. G. Zakrzewski, G. A. Voth, 
 P. Salvador, J. J. Dannenberg, S. Dapprich, A. D. Daniels, 
 O. Farkas, J. B. Foresman, J. V. Ortiz, J. Cioslowski, 
 and D. J. Fox, Gaussian, Inc., Wallingford CT, 2013.
 
 ******************************************
 Gaussian 09:  ES64L-G09RevD.01 24-Apr-2013
                15-Dec-2015 
 ******************************************
 -------------------------------------------------------
 #P B3LYP/3-21G CIS(Singlets,NStates=15) pop(full) force
 -------------------------------------------------------
 1/10=7,30=1,38=1/1,3;
 2/12=2,17=6,18=5,40=1/2;
 3/5=5,11=9,16=1,25=1,30=1,71=1,74=-5/1,2,8,3;
 4//1;
 5/5=2,38=5/2;
 8/6=1,10=1,108=15/1;
 9/15=2,41=15,42=1,48=1/14;
 10/5=4/2;
 6/7=3,18=1/1;
 7/12=6,13=5,29=1/1,2,3,16;
 1/10=7,30=1/3;
 99//99;
 Leave Link    1 at Tue Dec 15 16:23:07 2015, MaxMem=           0 cpu:         0.0
 (Enter /home/Applications/g09/g09/l101.exe)
 --------
 FuranDFT
 --------
 Symbolic Z-matrix:
 Charge =  0 Multiplicity = 1
 6                     0.95908  -0.70681   0.03754 
 6                    -0.38261  -1.13498  -0.01595 
 8                    -1.20553  -0.01753  -0.04293 
 6                    -0.35672   1.05928  -0.0175 
 6                     0.98429   0.67029   0.04085 
 1                     1.80986   1.41716   0.03358 
 1                    -0.8009    2.04082  -0.00078 
 1                    -0.83067  -1.9993   -0.04297 
 1                     1.79131  -1.41465  -0.03036 
 
 NAtoms=      9 NQM=        9 NQMF=       0 NMMI=      0 NMMIF=      0
                NMic=       0 NMicF=      0.
                    Isotopes and Nuclear Properties:
 (Nuclear quadrupole moments (NQMom) in fm**2, nuclear magnetic moments (NMagM)
  in nuclear magnetons)

  Atom         1           2           3           4           5           6           7           8           9
 IAtWgt=          12          12          16          12          12           1           1           1           1
 AtmWgt=  12.0000000  12.0000000  15.9949146  12.0000000  12.0000000   1.0078250   1.0078250   1.0078250   1.0078250
 NucSpn=           0           0           0           0           0           1           1           1           1
 AtZEff=   0.0000000   0.0000000   0.0000000   0.0000000   0.0000000   0.0000000   0.0000000   0.0000000   0.0000000
 NQMom=    0.0000000   0.0000000   0.0000000   0.0000000   0.0000000   0.0000000   0.0000000   0.0000000   0.0000000
 NMagM=    0.0000000   0.0000000   0.0000000   0.0000000   0.0000000   2.7928460   2.7928460   2.7928460   2.7928460
 AtZNuc=   6.0000000   6.0000000   8.0000000   6.0000000   6.0000000   1.0000000   1.0000000   1.0000000   1.0000000
 Leave Link  101 at Tue Dec 15 16:23:07 2015, MaxMem=    33554432 cpu:         0.0
 (Enter /home/Applications/g09/g09/l103.exe)

 GradGradGradGradGradGradGradGradGradGradGradGradGradGradGradGradGradGrad
 Berny optimization.
 Initialization pass.
 Trust Radius=3.00D-01 FncErr=1.00D-07 GrdErr=1.00D-07
 Number of steps in this run=      2 maximum allowed number of steps=      2.
 GradGradGradGradGradGradGradGradGradGradGradGradGradGradGradGradGradGrad

 Leave Link  103 at Tue Dec 15 16:23:07 2015, MaxMem=    33554432 cpu:         0.0
 (Enter /home/Applications/g09/g09/l202.exe)
                          Input orientation:                          
 ---------------------------------------------------------------------
 Center     Atomic      Atomic             Coordinates (Angstroms)
 Number     Number       Type             X           Y           Z
 ---------------------------------------------------------------------
      1          6           0        0.959084   -0.706808    0.037541
      2          6           0       -0.382606   -1.134975   -0.015953
      3          8           0       -1.205527   -0.017532   -0.042927
      4          6           0       -0.356718    1.059280   -0.017501
      5          6           0        0.984290    0.670291    0.040849
      6          1           0        1.809862    1.417162    0.033576
      7          1           0       -0.800899    2.040817   -0.000781
      8          1           0       -0.830671   -1.999299   -0.042974
      9          1           0        1.791310   -1.414652   -0.030356
 ---------------------------------------------------------------------
                    Distance matrix (angstroms):
                    1          2          3          4          5
     1  C    0.000000
     2  C    1.409369   0.000000
     3  O    2.273129   1.388022   0.000000
     4  C    2.203050   2.194408   1.371367   0.000000
     5  C    1.377334   2.265086   2.296828   1.397505   0.000000
     6  H    2.288031   3.364933   3.340175   2.196533   1.113301
     7  H    3.263197   3.203257   2.098166   1.077493   2.250994
     8  H    2.209126   0.973934   2.016908   3.095188   3.229214
     9  H    1.094648   2.191880   3.306529   3.276359   2.236814
                    6          7          8          9
     6  H    0.000000
     7  H    2.684436   0.000000
     8  H    4.318620   4.040446   0.000000
     9  H    2.832596   4.319802   2.686402   0.000000
 Stoichiometry    C4H4O
 Framework group  C1[X(C4H4O)]
 Deg. of freedom    21
 Full point group                 C1      NOp   1
 Largest Abelian subgroup         C1      NOp   1
 Largest concise Abelian subgroup C1      NOp   1
                         Standard orientation:                         
 ---------------------------------------------------------------------
 Center     Atomic      Atomic             Coordinates (Angstroms)
 Number     Number       Type             X           Y           Z
 ---------------------------------------------------------------------
      1          6           0        0.284427    1.155142   -0.014745
      2          6           0       -1.009958    0.597668   -0.004234
      3          8           0       -0.898506   -0.785851    0.003526
      4          6           0        0.448782   -1.041636    0.009463
      5          6           0        1.206793    0.132270   -0.010155
      6          1           0        2.319277    0.109767    0.026051
      7          1           0        0.757952   -2.073515   -0.015654
      8          1           0       -1.915603    0.955824    0.004693
      9          1           0        0.446161    2.234072    0.074725
 ---------------------------------------------------------------------
 Rotational constants (GHZ):      9.6411629      8.8409141      4.6127765
 Leave Link  202 at Tue Dec 15 16:23:07 2015, MaxMem=    33554432 cpu:         0.0
 (Enter /home/Applications/g09/g09/l301.exe)
 Standard basis: 3-21G (6D, 7F)
 Ernie: Thresh=  0.10000D-02 Tol=  0.10000D-05 Strict=F.
 There are    53 symmetry adapted cartesian basis functions of A   symmetry.
 There are    53 symmetry adapted basis functions of A   symmetry.
    53 basis functions,    87 primitive gaussians,    53 cartesian basis functions
    18 alpha electrons       18 beta electrons
       nuclear repulsion energy       159.7894513008 Hartrees.
 IExCor=  402 DFT=T Ex+Corr=B3LYP ExCW=0 ScaHFX=  0.200000
 ScaDFX=  0.800000  0.720000  1.000000  0.810000 ScalE2=  1.000000  1.000000
 IRadAn=      0 IRanWt=     -1 IRanGd=            0 ICorTp=0 IEmpDi=  4
 NAtoms=    9 NActive=    9 NUniq=    9 SFac= 1.00D+00 NAtFMM=   60 NAOKFM=F Big=F
 Integral buffers will be    131072 words long.
 Regular integral format.
 Two-electron integral symmetry is turned on.
 Leave Link  301 at Tue Dec 15 16:23:07 2015, MaxMem=    33554432 cpu:         0.0
 (Enter /home/Applications/g09/g09/l302.exe)
 NPDir=0 NMtPBC=     1 NCelOv=     1 NCel=       1 NClECP=     1 NCelD=      1
         NCelK=      1 NCelE2=     1 NClLst=     1 CellRange=     0.0.
 One-electron integrals computed using PRISM.
 NBasis=    53 RedAO= T EigKep=  3.33D-03  NBF=    53
 NBsUse=    53 1.00D-06 EigRej= -1.00D+00 NBFU=    53
 Precomputing XC quadrature grid using
 IXCGrd= 4 IRadAn=           0 IRanWt=          -1 IRanGd=           0 AccXCQ= 0.00D+00.
 Generated NRdTot=       0 NPtTot=           0 NUsed=           0 NTot=          32
 NSgBfM=    53    53    53    53    53 MxSgAt=     9 MxSgA2=     9.
 Leave Link  302 at Tue Dec 15 16:23:07 2015, MaxMem=    33554432 cpu:         0.1
 (Enter /home/Applications/g09/g09/l308.exe)
 Leave Link  308 at Tue Dec 15 16:23:07 2015, MaxMem=    33554432 cpu:         0.0
 (Enter /home/Applications/g09/g09/l303.exe)
 DipDrv:  MaxL=1.
 Leave Link  303 at Tue Dec 15 16:23:07 2015, MaxMem=    33554432 cpu:         0.0
 (Enter /home/Applications/g09/g09/l401.exe)
 ExpMin= 1.83D-01 ExpMax= 3.22D+02 ExpMxC= 3.22D+02 IAcc=1 IRadAn=         1 AccDes= 0.00D+00
 Harris functional with IExCor=  402 and IRadAn=       1 diagonalized for initial guess.
 HarFok:  IExCor=  402 AccDes= 0.00D+00 IRadAn=         1 IDoV= 1 UseB2=F ITyADJ=14
 ICtDFT=  3500011 ScaDFX=  1.000000  1.000000  1.000000  1.000000
 FoFCou: FMM=F IPFlag=           0 FMFlag=      100000 FMFlg1=           0
         NFxFlg=           0 DoJE=T BraDBF=F KetDBF=T FulRan=T
         wScrn=  0.000000 ICntrl=     500 IOpCl=  0 I1Cent=   200000004 NGrid=           0
         NMat0=    1 NMatS0=      1 NMatT0=    0 NMatD0=    1 NMtDS0=    0 NMtDT0=    0
 Petite list used in FoFCou.
 Harris En= -228.724866356011    
 JPrj=0 DoOrth=F DoCkMO=F.
 Leave Link  401 at Tue Dec 15 16:23:07 2015, MaxMem=    33554432 cpu:         0.2
 (Enter /home/Applications/g09/g09/l502.exe)
 Closed shell SCF:
 Using DIIS extrapolation, IDIIS=  1040.
 Integral symmetry usage will be decided dynamically.
 Keep R1 ints in memory in canonical form, NReq=1925595.
 IVT=       27707 IEndB=       27707 NGot=    33554432 MDV=    32502130
 LenX=    32502130 LenY=    32498880
 Requested convergence on RMS density matrix=1.00D-08 within 128 cycles.
 Requested convergence on MAX density matrix=1.00D-06.
 Requested convergence on             energy=1.00D-06.
 No special actions if energy rises.
 FoFCou: FMM=F IPFlag=           0 FMFlag=           0 FMFlg1=           0
         NFxFlg=           0 DoJE=F BraDBF=F KetDBF=F FulRan=T
         wScrn=  0.000000 ICntrl=     600 IOpCl=  0 I1Cent=           0 NGrid=           0
         NMat0=    1 NMatS0=   1431 NMatT0=    0 NMatD0=    1 NMtDS0=    0 NMtDT0=    0
 Symmetry not used in FoFCou.
 Integral accuracy reduced to 1.0D-05 until final iterations.

 Cycle   1  Pass 0  IDiag  1:
 E= -228.659321428882    
 DIIS: error= 3.31D-02 at cycle   1 NSaved=   1.
 NSaved= 1 IEnMin= 1 EnMin= -228.659321428882     IErMin= 1 ErrMin= 3.31D-02
 ErrMax= 3.31D-02  0.00D+00 EMaxC= 1.00D-01 BMatC= 7.27D-02 BMatP= 7.27D-02
 IDIUse=3 WtCom= 6.69D-01 WtEn= 3.31D-01
 Coeff-Com:  0.100D+01
 Coeff-En:   0.100D+01
 Coeff:      0.100D+01
 Gap=     0.207 Goal=   None    Shift=    0.000
 GapD=    0.207 DampG=1.000 DampE=0.500 DampFc=0.5000 IDamp=-1.
 Damping current iteration by 5.00D-01
 RMSDP=1.17D-02 MaxDP=1.09D-01              OVMax= 2.10D-01

 Cycle   2  Pass 0  IDiag  1:
 E= -228.686265225891     Delta-E=       -0.026943797009 Rises=F Damp=T
 DIIS: error= 1.62D-02 at cycle   2 NSaved=   2.
 NSaved= 2 IEnMin= 2 EnMin= -228.686265225891     IErMin= 2 ErrMin= 1.62D-02
 ErrMax= 1.62D-02  0.00D+00 EMaxC= 1.00D-01 BMatC= 1.04D-02 BMatP= 7.27D-02
 IDIUse=3 WtCom= 8.38D-01 WtEn= 1.62D-01
 Coeff-Com:  0.148D+00 0.852D+00
 Coeff-En:   0.248D+00 0.752D+00
 Coeff:      0.165D+00 0.835D+00
 Gap=     0.223 Goal=   None    Shift=    0.000
 RMSDP=4.25D-03 MaxDP=3.28D-02 DE=-2.69D-02 OVMax= 1.78D-01

 Cycle   3  Pass 0  IDiag  1:
 E= -228.725940510273     Delta-E=       -0.039675284383 Rises=F Damp=F
 DIIS: error= 1.99D-02 at cycle   3 NSaved=   3.
 NSaved= 3 IEnMin= 3 EnMin= -228.725940510273     IErMin= 2 ErrMin= 1.62D-02
 ErrMax= 1.99D-02  0.00D+00 EMaxC= 1.00D-01 BMatC= 1.10D-02 BMatP= 1.04D-02
 IDIUse=3 WtCom= 8.01D-01 WtEn= 1.99D-01
 Coeff-Com: -0.395D-02 0.509D+00 0.494D+00
 Coeff-En:   0.000D+00 0.000D+00 0.100D+01
 Coeff:     -0.316D-02 0.408D+00 0.595D+00
 Gap=     0.226 Goal=   None    Shift=    0.000
 RMSDP=2.80D-03 MaxDP=2.37D-02 DE=-3.97D-02 OVMax= 5.81D-02

 Cycle   4  Pass 0  IDiag  1:
 E= -228.733660959785     Delta-E=       -0.007720449512 Rises=F Damp=F
 DIIS: error= 1.05D-02 at cycle   4 NSaved=   4.
 NSaved= 4 IEnMin= 4 EnMin= -228.733660959785     IErMin= 4 ErrMin= 1.05D-02
 ErrMax= 1.05D-02  0.00D+00 EMaxC= 1.00D-01 BMatC= 2.65D-03 BMatP= 1.04D-02
 IDIUse=3 WtCom= 8.95D-01 WtEn= 1.05D-01
 Coeff-Com:  0.955D-02 0.531D-01 0.332D+00 0.606D+00
 Coeff-En:   0.000D+00 0.000D+00 0.223D+00 0.777D+00
 Coeff:      0.855D-02 0.475D-01 0.320D+00 0.624D+00
 Gap=     0.231 Goal=   None    Shift=    0.000
 RMSDP=9.41D-04 MaxDP=9.45D-03 DE=-7.72D-03 OVMax= 2.07D-02

 Cycle   5  Pass 0  IDiag  1:
 E= -228.735831489921     Delta-E=       -0.002170530136 Rises=F Damp=F
 DIIS: error= 1.71D-03 at cycle   5 NSaved=   5.
 NSaved= 5 IEnMin= 5 EnMin= -228.735831489921     IErMin= 5 ErrMin= 1.71D-03
 ErrMax= 1.71D-03  0.00D+00 EMaxC= 1.00D-01 BMatC= 1.15D-04 BMatP= 2.65D-03
 IDIUse=3 WtCom= 9.83D-01 WtEn= 1.71D-02
 Coeff-Com:  0.642D-02 0.414D-02 0.166D+00 0.383D+00 0.441D+00
 Coeff-En:   0.000D+00 0.000D+00 0.000D+00 0.000D+00 0.100D+01
 Coeff:      0.631D-02 0.406D-02 0.163D+00 0.376D+00 0.450D+00
 Gap=     0.230 Goal=   None    Shift=    0.000
 RMSDP=1.57D-04 MaxDP=1.85D-03 DE=-2.17D-03 OVMax= 3.08D-03

 Cycle   6  Pass 0  IDiag  1:
 E= -228.735920592672     Delta-E=       -0.000089102752 Rises=F Damp=F
 DIIS: error= 1.37D-04 at cycle   6 NSaved=   6.
 NSaved= 6 IEnMin= 6 EnMin= -228.735920592672     IErMin= 6 ErrMin= 1.37D-04
 ErrMax= 1.37D-04  0.00D+00 EMaxC= 1.00D-01 BMatC= 1.13D-06 BMatP= 1.15D-04
 IDIUse=3 WtCom= 9.99D-01 WtEn= 1.37D-03
 Coeff-Com:  0.144D-02-0.412D-02 0.129D-01 0.478D-01 0.125D+00 0.817D+00
 Coeff-En:   0.000D+00 0.000D+00 0.000D+00 0.000D+00 0.000D+00 0.100D+01
 Coeff:      0.144D-02-0.412D-02 0.129D-01 0.477D-01 0.125D+00 0.817D+00
 Gap=     0.230 Goal=   None    Shift=    0.000
 RMSDP=3.03D-05 MaxDP=3.38D-04 DE=-8.91D-05 OVMax= 7.69D-04

 Cycle   7  Pass 0  IDiag  1:
 E= -228.735921499881     Delta-E=       -0.000000907209 Rises=F Damp=F
 DIIS: error= 1.07D-04 at cycle   7 NSaved=   7.
 NSaved= 7 IEnMin= 7 EnMin= -228.735921499881     IErMin= 7 ErrMin= 1.07D-04
 ErrMax= 1.07D-04  0.00D+00 EMaxC= 1.00D-01 BMatC= 2.86D-07 BMatP= 1.13D-06
 IDIUse=3 WtCom= 9.99D-01 WtEn= 1.07D-03
 Coeff-Com:  0.802D-03-0.267D-02 0.516D-02 0.229D-01 0.697D-01 0.516D+00
 Coeff-Com:  0.388D+00
 Coeff-En:   0.000D+00 0.000D+00 0.000D+00 0.000D+00 0.000D+00 0.125D+00
 Coeff-En:   0.875D+00
 Coeff:      0.801D-03-0.266D-02 0.515D-02 0.228D-01 0.696D-01 0.515D+00
 Coeff:      0.389D+00
 Gap=     0.231 Goal=   None    Shift=    0.000
 RMSDP=1.05D-05 MaxDP=1.36D-04 DE=-9.07D-07 OVMax= 3.57D-04

 Cycle   8  Pass 0  IDiag  1:
 E= -228.735921806890     Delta-E=       -0.000000307010 Rises=F Damp=F
 DIIS: error= 8.89D-06 at cycle   8 NSaved=   8.
 NSaved= 8 IEnMin= 8 EnMin= -228.735921806890     IErMin= 8 ErrMin= 8.89D-06
 ErrMax= 8.89D-06  0.00D+00 EMaxC= 1.00D-01 BMatC= 2.75D-09 BMatP= 2.86D-07
 IDIUse=1 WtCom= 1.00D+00 WtEn= 0.00D+00
 Coeff-Com:  0.833D-05-0.333D-04-0.507D-03-0.169D-02-0.245D-02 0.190D-02
 Coeff-Com:  0.749D-01 0.928D+00
 Coeff:      0.833D-05-0.333D-04-0.507D-03-0.169D-02-0.245D-02 0.190D-02
 Coeff:      0.749D-01 0.928D+00
 Gap=     0.231 Goal=   None    Shift=    0.000
 RMSDP=1.57D-06 MaxDP=1.11D-05 DE=-3.07D-07 OVMax= 3.66D-05

 Initial convergence to 1.0D-05 achieved.  Increase integral accuracy.
 Cycle   9  Pass 1  IDiag  1:
 E= -228.735885801733     Delta-E=        0.000036005157 Rises=F Damp=F
 DIIS: error= 1.40D-05 at cycle   1 NSaved=   1.
 NSaved= 1 IEnMin= 1 EnMin= -228.735885801733     IErMin= 1 ErrMin= 1.40D-05
 ErrMax= 1.40D-05  0.00D+00 EMaxC= 1.00D-01 BMatC= 9.21D-09 BMatP= 9.21D-09
 IDIUse=1 WtCom= 1.00D+00 WtEn= 0.00D+00
 Coeff-Com:  0.100D+01
 Coeff:      0.100D+01
 Gap=     0.231 Goal=   None    Shift=    0.000
 RMSDP=1.57D-06 MaxDP=1.11D-05 DE= 3.60D-05 OVMax= 3.77D-05

 Cycle  10  Pass 1  IDiag  1:
 E= -228.735885813784     Delta-E=       -0.000000012050 Rises=F Damp=F
 DIIS: error= 5.40D-06 at cycle   2 NSaved=   2.
 NSaved= 2 IEnMin= 2 EnMin= -228.735885813784     IErMin= 2 ErrMin= 5.40D-06
 ErrMax= 5.40D-06  0.00D+00 EMaxC= 1.00D-01 BMatC= 1.33D-09 BMatP= 9.21D-09
 IDIUse=1 WtCom= 1.00D+00 WtEn= 0.00D+00
 Coeff-Com:  0.155D+00 0.845D+00
 Coeff:      0.155D+00 0.845D+00
 Gap=     0.231 Goal=   None    Shift=    0.000
 RMSDP=1.13D-06 MaxDP=1.16D-05 DE=-1.21D-08 OVMax= 1.81D-05

 Cycle  11  Pass 1  IDiag  1:
 E= -228.735885813346     Delta-E=        0.000000000438 Rises=F Damp=F
 DIIS: error= 7.58D-06 at cycle   3 NSaved=   3.
 NSaved= 3 IEnMin= 2 EnMin= -228.735885813784     IErMin= 2 ErrMin= 5.40D-06
 ErrMax= 7.58D-06  0.00D+00 EMaxC= 1.00D-01 BMatC= 1.99D-09 BMatP= 1.33D-09
 IDIUse=1 WtCom= 1.00D+00 WtEn= 0.00D+00
 Coeff-Com: -0.224D-01 0.558D+00 0.464D+00
 Coeff:     -0.224D-01 0.558D+00 0.464D+00
 Gap=     0.231 Goal=   None    Shift=    0.000
 RMSDP=6.32D-07 MaxDP=7.18D-06 DE= 4.38D-10 OVMax= 1.15D-05

 Cycle  12  Pass 1  IDiag  1:
 E= -228.735885814776     Delta-E=       -0.000000001430 Rises=F Damp=F
 DIIS: error= 1.21D-06 at cycle   4 NSaved=   4.
 NSaved= 4 IEnMin= 4 EnMin= -228.735885814776     IErMin= 4 ErrMin= 1.21D-06
 ErrMax= 1.21D-06  0.00D+00 EMaxC= 1.00D-01 BMatC= 3.95D-11 BMatP= 1.33D-09
 IDIUse=1 WtCom= 1.00D+00 WtEn= 0.00D+00
 Coeff-Com: -0.152D-01 0.306D+00 0.275D+00 0.435D+00
 Coeff:     -0.152D-01 0.306D+00 0.275D+00 0.435D+00
 Gap=     0.231 Goal=   None    Shift=    0.000
 RMSDP=1.47D-07 MaxDP=1.95D-06 DE=-1.43D-09 OVMax= 3.36D-06

 Cycle  13  Pass 1  IDiag  1:
 E= -228.735885814815     Delta-E=       -0.000000000039 Rises=F Damp=F
 DIIS: error= 2.78D-07 at cycle   5 NSaved=   5.
 NSaved= 5 IEnMin= 5 EnMin= -228.735885814815     IErMin= 5 ErrMin= 2.78D-07
 ErrMax= 2.78D-07  0.00D+00 EMaxC= 1.00D-01 BMatC= 2.58D-12 BMatP= 3.95D-11
 IDIUse=1 WtCom= 1.00D+00 WtEn= 0.00D+00
 Coeff-Com: -0.473D-02 0.694D-01 0.697D-01 0.229D+00 0.637D+00
 Coeff:     -0.473D-02 0.694D-01 0.697D-01 0.229D+00 0.637D+00
 Gap=     0.231 Goal=   None    Shift=    0.000
 RMSDP=3.50D-08 MaxDP=3.93D-07 DE=-3.87D-11 OVMax= 8.03D-07

 Cycle  14  Pass 1  IDiag  1:
 E= -228.735885814818     Delta-E=       -0.000000000004 Rises=F Damp=F
 DIIS: error= 6.12D-08 at cycle   6 NSaved=   6.
 NSaved= 6 IEnMin= 6 EnMin= -228.735885814818     IErMin= 6 ErrMin= 6.12D-08
 ErrMax= 6.12D-08  0.00D+00 EMaxC= 1.00D-01 BMatC= 2.49D-13 BMatP= 2.58D-12
 IDIUse=1 WtCom= 1.00D+00 WtEn= 0.00D+00
 Coeff-Com: -0.101D-02 0.960D-02 0.122D-01 0.900D-01 0.331D+00 0.558D+00
 Coeff:     -0.101D-02 0.960D-02 0.122D-01 0.900D-01 0.331D+00 0.558D+00
 Gap=     0.231 Goal=   None    Shift=    0.000
 RMSDP=1.22D-08 MaxDP=1.43D-07 DE=-3.75D-12 OVMax= 2.48D-07

 Cycle  15  Pass 1  IDiag  1:
 E= -228.735885814817     Delta-E=        0.000000000001 Rises=F Damp=F
 DIIS: error= 1.85D-08 at cycle   7 NSaved=   7.
 NSaved= 7 IEnMin= 6 EnMin= -228.735885814818     IErMin= 7 ErrMin= 1.85D-08
 ErrMax= 1.85D-08  0.00D+00 EMaxC= 1.00D-01 BMatC= 1.98D-14 BMatP= 2.49D-13
 IDIUse=1 WtCom= 1.00D+00 WtEn= 0.00D+00
 Coeff-Com:  0.311D-04-0.277D-02-0.269D-02 0.148D-01 0.465D-01 0.230D+00
 Coeff-Com:  0.715D+00
 Coeff:      0.311D-04-0.277D-02-0.269D-02 0.148D-01 0.465D-01 0.230D+00
 Coeff:      0.715D+00
 Gap=     0.231 Goal=   None    Shift=    0.000
 RMSDP=3.78D-09 MaxDP=5.34D-08 DE= 9.09D-13 OVMax= 6.47D-08

 SCF Done:  E(RB3LYP) =  -228.735885815     A.U. after   15 cycles
            NFock= 15  Conv=0.38D-08     -V/T= 2.0085
 KE= 2.268170760366D+02 PE=-8.520551477164D+02 EE= 2.367127345641D+02
 Leave Link  502 at Tue Dec 15 16:23:12 2015, MaxMem=    33554432 cpu:         4.5
 (Enter /home/Applications/g09/g09/l801.exe)
 DoSCS=F DFT=T ScalE2(SS,OS)=  1.000000  1.000000
 ExpMin= 1.83D-01 ExpMax= 3.22D+02 ExpMxC= 3.22D+02 IAcc=3 IRadAn=         5 AccDes= 0.00D+00
 HarFok:  IExCor=  205 AccDes= 0.00D+00 IRadAn=         5 IDoV=-2 UseB2=F ITyADJ=14
 ICtDFT= 12500011 ScaDFX=  1.000000  1.000000  1.000000  1.000000
 Largest valence mixing into a core orbital is  2.09D-04
 Largest core mixing into a valence orbital is  4.53D-05
 Range of M.O.s used for correlation:     6    53
 NBasis=    53 NAE=    18 NBE=    18 NFC=     5 NFV=     0
 NROrb=     48 NOA=    13 NOB=    13 NVA=    35 NVB=    35
 Leave Link  801 at Tue Dec 15 16:23:12 2015, MaxMem=    33554432 cpu:         0.4
 (Enter /home/Applications/g09/g09/l914.exe)
 RHF ground state
 MDV=    33554432 DFT=T DoStab=F Mixed=T DoRPA=F DoScal=F NonHer=F
 Keep R1, R2, and R3 ints in memory in canonical form, NReq=5596273.
 FoFCou: FMM=F IPFlag=           0 FMFlag=           0 FMFlg1=           0
         NFxFlg=           0 DoJE=F BraDBF=F KetDBF=F FulRan=T
         wScrn=  0.000000 ICntrl=     600 IOpCl=  0 I1Cent=           0 NGrid=           0
         NMat0=    1 NMatS0=   1431 NMatT0=    0 NMatD0=    1 NMtDS0=    0 NMtDT0=    0
 Symmetry not used in FoFCou.
 Making orbital integer symmetry assigments:
 Orbital symmetries:
       Occupied  (A) (A) (A) (A) (A) (A) (A) (A) (A) (A) (A) (A)
                 (A) (A) (A) (A) (A) (A)
       Virtual   (A) (A) (A) (A) (A) (A) (A) (A) (A) (A) (A) (A)
                 (A) (A) (A) (A) (A) (A) (A) (A) (A) (A) (A) (A)
                 (A) (A) (A) (A) (A) (A) (A) (A) (A) (A) (A)
    60 initial guesses have been made.
 Convergence on wavefunction:    0.000001000000000
 Davidson Disk Diagonalization:  ConvIn= 1.00D-06 SkipCon=T Conv= 1.00D-06.
 Max sub-space:   240 roots to seek:    60 dimension of matrix:          910
 Iteration     1 Dimension    60 NMult     0 NNew     60
 CISAX will form    60 AO SS matrices at one time.
 NMat=    60 NSing=    60 JSym2X= 0.
 New state      1 was old state      3
 New state      2 was old state      1
 New state      3 was old state      4
 New state      4 was old state      6
 New state      5 was old state      7
 New state      6 was old state      9
 New state      7 was old state     10
 New state      9 was old state     12
 New state     10 was old state     11
 New state     11 was old state      5
 New state     12 was old state     13
 New state     13 was old state     15
 New state     15 was old state      2
 Excitation Energies [eV] at current iteration:
 Root      1 :     7.145443229928093
 Root      2 :     7.665124283529017
 Root      3 :     8.169903926374630
 Root      4 :     8.562358289386006
 Root      5 :     9.098675474450610
 Root      6 :     9.559352333648537
 Root      7 :     9.784801181876126
 Root      8 :     9.913759552809555
 Root      9 :    10.191522008468690
 Root     10 :    10.280576115097190
 Root     11 :    10.482189164563770
 Root     12 :    10.627655037221660
 Root     13 :    10.710692409221250
 Root     14 :    10.751107524435040
 Root     15 :    10.777845639310740
 Root     16 :    10.999868621771880
 Root     17 :    11.108730583785790
 Root     18 :    11.423645630654690
 Root     19 :    11.517240586560010
 Root     20 :    11.873054236606160
 Root     21 :    11.975923424706640
 Root     22 :    12.040665840314550
 Root     23 :    12.199040529456190
 Root     24 :    12.559895620176020
 Root     25 :    12.826798197390630
 Root     26 :    13.256713113261480
 Root     27 :    13.376754823981620
 Root     28 :    13.457985363480210
 Root     29 :    13.643488900211790
 Root     30 :    13.730365207754860
 Root     31 :    13.746002738450570
 Root     32 :    13.963441157869900
 Root     33 :    13.992628220426270
 Root     34 :    14.147352805722980
 Root     35 :    14.248893267587260
 Root     36 :    14.360393936610060
 Root     37 :    14.703639791771910
 Root     38 :    14.753466212290670
 Root     39 :    14.783584434979680
 Root     40 :    14.897431238674110
 Root     41 :    14.918139848636540
 Root     42 :    15.014863482922990
 Root     43 :    15.043315342484510
 Root     44 :    15.128608438707440
 Root     45 :    15.404991076378360
 Root     46 :    15.449056295212380
 Root     47 :    15.528307432176610
 Root     48 :    15.636562343494250
 Root     49 :    15.677303559850690
 Root     50 :    15.855788555324970
 Root     51 :    15.929519547488580
 Root     52 :    15.986687022121930
 Root     53 :    16.015999843462470
 Root     54 :    16.289349814589030
 Root     55 :    16.314134652826430
 Root     56 :    16.558585764692940
 Root     57 :    16.713390907647510
 Root     58 :    17.316922736588330
 Root     59 :    17.812500338048920
 Root     60 :    18.063874802240400
 Iteration     2 Dimension   120 NMult    60 NNew     60
 CISAX will form    60 AO SS matrices at one time.
 NMat=    60 NSing=    60 JSym2X= 0.
 New state      1 was old state      2
 Root      1 not converged, maximum delta is    0.058588001653233
 New state      2 was old state      1
 Root      2 not converged, maximum delta is    0.045857433962123
 Root      3 not converged, maximum delta is    0.056504145844496
 Root      4 not converged, maximum delta is    0.015161848614809
 Root      5 not converged, maximum delta is    0.046909042394863
 New state      6 was old state     15
 Root      6 not converged, maximum delta is    0.216686246254652
 New state      7 was old state      6
 Root      7 not converged, maximum delta is    0.167408238201134
 New state      8 was old state      7
 Root      8 not converged, maximum delta is    0.268723816855712
 New state      9 was old state     11
 Root      9 not converged, maximum delta is    0.452934682701785
 New state     10 was old state      8
 Root     10 not converged, maximum delta is    0.382844067297064
 New state     11 was old state      9
 Root     11 not converged, maximum delta is    0.082222945516409
 New state     12 was old state     10
 Root     12 not converged, maximum delta is    0.064937259128148
 New state     13 was old state     12
 Root     13 not converged, maximum delta is    0.139761549624013
 New state     14 was old state     13
 Root     14 not converged, maximum delta is    0.057598267550700
 New state     15 was old state     14
 Root     15 not converged, maximum delta is    0.101199494990219
 Excitation Energies [eV] at current iteration:
 Root      1 :     6.815480691249983   Change is   -0.849643592279033
 Root      2 :     7.011636738293348   Change is   -0.133806491634744
 Root      3 :     8.156385000772040   Change is   -0.013518925602588
 Root      4 :     8.535041038655541   Change is   -0.027317250730467
 Root      5 :     9.066965613436386   Change is   -0.031709861014226
 Root      6 :     9.376764493788908   Change is   -1.401081145521828
 Root      7 :     9.567888406743155   Change is    0.008536073094617
 Root      8 :     9.787387656437485   Change is    0.002586474561359
 Root      9 :     9.854112877179029   Change is   -0.628076287384741
 Root     10 :     9.942544048802786   Change is    0.028784495993231
 Root     11 :    10.183543650210630   Change is   -0.007978358258059
 Root     12 :    10.263265064026060   Change is   -0.017311051071125
 Root     13 :    10.599282287051170   Change is   -0.028372750170490
 Root     14 :    10.689803914068890   Change is   -0.020888495152362
 Root     15 :    10.738510168160270   Change is   -0.012597356274774
 Root     16 :    10.953382077819180   Change is   -0.046486543952701
 Root     17 :    11.058666268776220   Change is   -0.050064315009572
 Root     18 :    11.391735566371510   Change is   -0.031910064283180
 Root     19 :    11.485772082680280   Change is   -0.031468503879724
 Root     20 :    11.588120711484870   Change is   -0.284933525121295
 Root     21 :    11.931743361696620   Change is   -0.044180063010024
 Root     22 :    12.018970893968950   Change is   -0.021694946345605
 Root     23 :    12.167120962056530   Change is   -0.031919567399669
 Root     24 :    12.535053752575840   Change is   -0.024841867600183
 Root     25 :    12.593124412705600   Change is   -0.233673784685032
 Root     26 :    12.917721175358090   Change is   -0.459033648623534
 Root     27 :    13.230000882129270   Change is   -0.026712231132211
 Root     28 :    13.251765111016070   Change is   -0.478600096738793
 Root     29 :    13.378129529919450   Change is   -0.367873208531126
 Root     30 :    13.418777946320730   Change is   -0.039207417159486
 Root     31 :    13.596548641602400   Change is   -0.046940258609390
 Root     32 :    13.786076092495100   Change is   -0.206552127931177
 Root     33 :    13.905793152779360   Change is   -0.057648005090541
 Root     34 :    13.988303931953330   Change is   -0.159048873769653
 Root     35 :    14.164701348414660   Change is   -0.195692588195399
 Root     36 :    14.239318090621660   Change is   -0.009575176965602
 Root     37 :    14.566720129224840   Change is   -0.136919662547067
 Root     38 :    14.626844286289370   Change is   -0.126621926001300
 Root     39 :    14.747998017628710   Change is   -0.035586417350976
 Root     40 :    14.757594963728200   Change is   -0.160544884908340
 Root     41 :    14.853865895898290   Change is   -0.160997587024705
 Root     42 :    14.889871063566180   Change is   -0.007560175107924
 Root     43 :    14.942661054382740   Change is   -0.185947384324700
 Root     44 :    14.994308670003430   Change is   -0.049006672481073
 Root     45 :    15.259809097474200   Change is   -0.145181978904154
 Root     46 :    15.348861113845750   Change is   -0.179446318330862
 Root     47 :    15.386127285314910   Change is   -0.250435058179341
 Root     48 :    15.445282372909120   Change is   -0.003773922303261
 Root     49 :    15.545235864512650   Change is   -0.132067695338042
 Root     50 :    15.592617671417120   Change is   -0.263170883907851
 Root     51 :    15.856986110862170   Change is   -0.072533436626401
 Root     52 :    15.895196670102580   Change is   -0.091490352019346
 Root     53 :    15.936999257558310   Change is   -0.079000585904153
 Root     54 :    15.993488151718040   Change is   -0.719902755929478
 Root     55 :    16.199120440648450   Change is   -0.090229373940587
 Root     56 :    16.307081026324410   Change is   -0.007053626502019
 Root     57 :    16.373875683232360   Change is   -0.184710081460577
 Root     58 :    16.450285797623630   Change is   -0.866636938964698
 Root     59 :    16.585856966947270   Change is   -1.226643371101658
 Root     60 :    16.970871245006880   Change is   -1.093003557233519
 Iteration     3 Dimension   135 NMult   120 NNew     15
 CISAX will form    15 AO SS matrices at one time.
 NMat=    15 NSing=    15 JSym2X= 0.
 Root      1 not converged, maximum delta is    0.003017254071489
 Root      2 not converged, maximum delta is    0.001486302612303
 Root      3 not converged, maximum delta is    0.000177250445265
 Root      4 not converged, maximum delta is    0.000236556736088
 Root      5 not converged, maximum delta is    0.001020357766849
 Root      6 not converged, maximum delta is    0.005616751909808
 Root      7 not converged, maximum delta is    0.003334982811849
 Root      8 not converged, maximum delta is    0.006558220274836
 Root      9 not converged, maximum delta is    0.008635937650796
 Root     10 not converged, maximum delta is    0.005908869213166
 Root     11 not converged, maximum delta is    0.000251011201943
 Root     12 not converged, maximum delta is    0.000635391655680
 Root     13 not converged, maximum delta is    0.000416178950588
 Root     14 not converged, maximum delta is    0.000289114562062
 Root     15 not converged, maximum delta is    0.000209855238775
 Excitation Energies [eV] at current iteration:
 Root      1 :     6.813242820756491   Change is   -0.002237870493492
 Root      2 :     7.010691010058451   Change is   -0.000945728234897
 Root      3 :     8.156368402212840   Change is   -0.000016598559201
 Root      4 :     8.535017965968112   Change is   -0.000023072687428
 Root      5 :     9.066851562038014   Change is   -0.000114051398372
 Root      6 :     9.371863069629867   Change is   -0.004901424159040
 Root      7 :     9.567375476450971   Change is   -0.000512930292183
 Root      8 :     9.786347371681105   Change is   -0.001040284756381
 Root      9 :     9.852860325960854   Change is   -0.001252551218175
 Root     10 :     9.941875034932368   Change is   -0.000669013870418
 Root     11 :    10.183522437283980   Change is   -0.000021212926648
 Root     12 :    10.263183005850910   Change is   -0.000082058175154
 Root     13 :    10.599248454731570   Change is   -0.000033832319598
 Root     14 :    10.689781218895540   Change is   -0.000022695173350
 Root     15 :    10.738496158251150   Change is   -0.000014009909123
 Iteration     4 Dimension   150 NMult   135 NNew     15
 CISAX will form    15 AO SS matrices at one time.
 NMat=    15 NSing=    15 JSym2X= 0.
 Root      1 not converged, maximum delta is    0.000105926003001
 Root      2 not converged, maximum delta is    0.000053718553845
 Root      3 not converged, maximum delta is    0.000005414749314
 Root      4 not converged, maximum delta is    0.000003355604146
 Root      5 not converged, maximum delta is    0.000012020431279
 Root      6 not converged, maximum delta is    0.000086687175008
 Root      7 not converged, maximum delta is    0.000032562271184
 Root      8 not converged, maximum delta is    0.000044274734680
 Root      9 not converged, maximum delta is    0.000056811978643
 Root     10 not converged, maximum delta is    0.000044432011643
 Root     11 not converged, maximum delta is    0.000005970363209
 Root     12 not converged, maximum delta is    0.000010595960631
 Root     13 not converged, maximum delta is    0.000007082048688
 Root     14 not converged, maximum delta is    0.000006623941016
 Root     15 not converged, maximum delta is    0.000004108124556
 Excitation Energies [eV] at current iteration:
 Root      1 :     6.813240303752400   Change is   -0.000002517004091
 Root      2 :     7.010689579562452   Change is   -0.000001430496000
 Root      3 :     8.156368383381681   Change is   -0.000000018831159
 Root      4 :     8.535017957626943   Change is   -0.000000008341170
 Root      5 :     9.066851425320429   Change is   -0.000000136717584
 Root      6 :     9.371855874638788   Change is   -0.000007194991080
 Root      7 :     9.567374727333405   Change is   -0.000000749117567
 Root      8 :     9.786345804965130   Change is   -0.000001566715973
 Root      9 :     9.852858449935598   Change is   -0.000001876025257
 Root     10 :     9.941874029175999   Change is   -0.000001005756368
 Root     11 :    10.183522409555420   Change is   -0.000000027728563
 Root     12 :    10.263182927028360   Change is   -0.000000078822555
 Root     13 :    10.599248426429600   Change is   -0.000000028301974
 Root     14 :    10.689781197079890   Change is   -0.000000021815648
 Root     15 :    10.738496143658950   Change is   -0.000000014592196
 Iteration     5 Dimension   165 NMult   150 NNew     15
 CISAX will form    15 AO SS matrices at one time.
 NMat=    15 NSing=    15 JSym2X= 0.
 Root      1 not converged, maximum delta is    0.000002067295894
 Root      2 not converged, maximum delta is    0.000001259238857
 Root      3 has converged.
 Root      4 has converged.
 Root      5 has converged.
 Root      6 not converged, maximum delta is    0.000002743083647
 Root      7 has converged.
 Root      8 not converged, maximum delta is    0.000001827409518
 Root      9 not converged, maximum delta is    0.000003175595411
 Root     10 not converged, maximum delta is    0.000002095363392
 Root     11 has converged.
 Root     12 has converged.
 Root     13 has converged.
 Root     14 has converged.
 Root     15 has converged.
 Excitation Energies [eV] at current iteration:
 Root      1 :     6.813240301526387   Change is   -0.000000002226012
 Root      2 :     7.010689578251896   Change is   -0.000000001310555
 Root      3 :     8.156368383366626   Change is   -0.000000000015056
 Root      4 :     8.535017957623214   Change is   -0.000000000003728
 Root      5 :     9.066851425225199   Change is   -0.000000000095230
 Root      6 :     9.371855869360500   Change is   -0.000000005278287
 Root      7 :     9.567374726713911   Change is   -0.000000000619493
 Root      8 :     9.786345803442954   Change is   -0.000000001522177
 Root      9 :     9.852858447926325   Change is   -0.000000002009272
 Root     10 :     9.941874028072466   Change is   -0.000000001103534
 Root     11 :    10.183522409520810   Change is   -0.000000000034612
 Root     12 :    10.263182926927060   Change is   -0.000000000101295
 Root     13 :    10.599248426405130   Change is   -0.000000000024475
 Root     14 :    10.689781197057040   Change is   -0.000000000022854
 Root     15 :    10.738496143641790   Change is   -0.000000000017158
 Iteration     6 Dimension   171 NMult   165 NNew      6
 CISAX will form     6 AO SS matrices at one time.
 NMat=     6 NSing=     6 JSym2X= 0.
 Root      1 has converged.
 Root      2 has converged.
 Root      3 has converged.
 Root      4 has converged.
 Root      5 has converged.
 Root      6 has converged.
 Root      7 has converged.
 Root      8 has converged.
 Root      9 has converged.
 Root     10 has converged.
 Root     11 has converged.
 Root     12 has converged.
 Root     13 has converged.
 Root     14 has converged.
 Root     15 has converged.
 Excitation Energies [eV] at current iteration:
 Root      1 :     6.813240301525576   Change is   -0.000000000000811
 Root      2 :     7.010689578251449   Change is   -0.000000000000447
 Root      3 :     8.156368383366598   Change is   -0.000000000000027
 Root      4 :     8.535017957623198   Change is   -0.000000000000017
 Root      5 :     9.066851425225156   Change is   -0.000000000000042
 Root      6 :     9.371855869356219   Change is   -0.000000000004281
 Root      7 :     9.567374726713412   Change is   -0.000000000000498
 Root      8 :     9.786345803441979   Change is   -0.000000000000976
 Root      9 :     9.852858447925049   Change is   -0.000000000001275
 Root     10 :     9.941874028071776   Change is   -0.000000000000689
 Root     11 :    10.183522409520770   Change is   -0.000000000000032
 Root     12 :    10.263182926926990   Change is   -0.000000000000066
 Root     13 :    10.599248426405110   Change is   -0.000000000000014
 Root     14 :    10.689781197057020   Change is   -0.000000000000015
 Root     15 :    10.738496143641760   Change is   -0.000000000000030
 Convergence achieved on expansion vectors.
 ***********************************************************************
 Excited states from <AA,BB:AA,BB> singles matrix:
 ***********************************************************************
 
 1PDM for each excited state written to RWF  633
 Ground to excited state transition densities written to RWF  633
 Ground to excited state transition electric dipole moments (Au):
       state          X           Y           Z        Dip. S.      Osc.
         1         0.7880     -0.8678      0.0173      1.3742      0.2294
         2         0.0218     -0.0494     -0.0049      0.0029      0.0005
         3        -0.0011     -0.0775     -0.0146      0.0062      0.0012
         4        -0.0030     -0.0220     -0.1240      0.0159      0.0033
         5         0.1388      0.1428     -0.0043      0.0397      0.0088
         6         0.9966      0.9856     -0.0547      1.9676      0.4518
         7         0.2636      0.3441      0.0255      0.1886      0.0442
         8        -0.5931      0.0255     -0.0078      0.3525      0.0845
         9         0.3308     -0.5714      0.0240      0.4365      0.1054
        10         0.4475     -0.2283     -0.0031      0.2524      0.0615
        11        -0.0070      0.0726      0.1024      0.0158      0.0039
        12         0.0905      0.0363     -0.0047      0.0095      0.0024
        13        -0.0266      0.0597     -0.1296      0.0211      0.0055
        14         0.0056      0.0406      0.0204      0.0021      0.0005
        15        -0.0073      0.0182     -0.0208      0.0008      0.0002
 Ground to excited state transition velocity dipole moments (Au):
       state          X           Y           Z        Dip. S.      Osc.
         1         0.0188     -0.0157      0.0003      0.0006      0.0016
         2        -0.0396     -0.0345      0.0017      0.0028      0.0071
         3        -0.0019     -0.0010     -0.0040      0.0000      0.0000
         4        -0.0003      0.0016      0.0742      0.0055      0.0117
         5        -0.0007     -0.0043     -0.0161      0.0003      0.0006
         6        -0.0104     -0.0282      0.0036      0.0009      0.0018
         7         0.0021     -0.0182     -0.0164      0.0006      0.0011
         8         0.0377     -0.0235     -0.0160      0.0022      0.0041
         9        -0.0424      0.0622     -0.0267      0.0064      0.0118
        10        -0.0432      0.0352      0.0039      0.0031      0.0057
        11         0.0071     -0.0087     -0.0441      0.0021      0.0037
        12        -0.0062      0.0017      0.0144      0.0002      0.0004
        13         0.0067     -0.0082     -0.0143      0.0003      0.0005
        14        -0.0045     -0.0064      0.0013      0.0001      0.0001
        15         0.0002     -0.0010     -0.0539      0.0029      0.0049
 Ground to excited state transition magnetic dipole moments (Au):
       state          X           Y           Z
         1         0.0020     -0.0163      0.3930
         2        -0.0210     -0.0172      0.0312
         3         0.4161      0.3267      0.0290
         4        -1.1454      1.1776      0.0227
         5        -0.1804     -0.0314     -0.0062
         6        -0.0404      0.0225      0.0072
         7         0.1356      0.1962      0.0273
         8        -0.1523      0.1954      0.0369
         9        -0.1722      0.1077     -0.0629
        10         0.0053      0.1249     -0.0206
        11         0.1187     -0.0344     -0.0216
        12         0.1316     -0.0280     -0.0289
        13         0.3867      0.2512     -0.0013
        14         0.3575      0.0708      0.0770
        15        -0.0291     -0.1158      0.0434
 Ground to excited state transition velocity quadrupole moments (Au):
       state          XX          YY          ZZ          XY          XZ          YZ
         1         0.1636     -0.2111      0.0040     -0.0094     -0.0008      0.0018
         2        -0.0053     -0.0095      0.0205      0.0023      0.0000     -0.0011
         3         0.0233     -0.0141      0.0032     -0.0003     -0.0323      0.0200
         4         0.0097     -0.0082      0.0021      0.0035     -0.1355     -0.1401
         5        -0.0069      0.0091     -0.0049     -0.0320     -0.1180      0.1611
         6        -0.0298     -0.0001     -0.0438     -0.2307     -0.0103     -0.0345
         7         0.0246     -0.0273     -0.0188     -0.0832      0.0126     -0.0416
         8         0.1850     -0.1769      0.0090      0.0445     -0.0715     -0.0593
         9        -0.2751      0.2748     -0.0015      0.0717     -0.0534     -0.0666
        10        -0.2176      0.1995     -0.0012     -0.0109      0.0175      0.0220
        11         0.0168     -0.0148     -0.0050     -0.0103      0.0647      0.0067
        12        -0.0204      0.0174     -0.0076     -0.0176     -0.1667      0.0047
        13         0.0114     -0.0125     -0.0013     -0.0121     -0.0426     -0.0237
        14         0.0048     -0.0024      0.0035      0.0037      0.0040      0.0290
        15         0.0254     -0.0431      0.0031      0.0024      0.0396      0.0367
 <0|del|b> * <b|rxdel|0> + <0|del|b> * <b|delr+rdel|0>
 Rotatory Strengths (R) in cgs (10**-40 erg-esu-cm/Gauss)
       state          XX          YY          ZZ    R(velocity)    E-M Angle
         1         0.4846      0.2516      0.3827      0.3730       87.64
         2         0.8925      1.2737      1.8925      1.3529       47.13
         3        -0.5609     -1.0919     -1.2156     -0.9561      120.55
         4         4.6320      2.0054      2.2550      2.9641       88.15
         5         0.2589     -0.4273      0.9545      0.2620       83.06
         6        -1.7684      1.6762     -0.2873     -0.1265       97.50
         7        -2.4362     -1.6192     -3.4386     -2.4980      129.15
         8        -7.4401     -7.7299     -6.3081     -7.1594      157.40
         9         9.5588     13.4007      7.6719     10.2105       22.61
        10         3.5313     -1.1772      5.5451      2.6331       54.75
        11         2.1415      1.3148      0.5057      1.3207       68.46
        12        -0.4096     -0.9413     -1.0410     -0.7973      126.01
        13        -2.0094      2.0539      0.9294      0.3246       86.25
        14        -0.2906     -1.4868     -1.7621     -1.1799      131.98
        15        -2.0736     -1.9779      0.0542     -1.3324      109.03
 1/2[<0|r|b>*<b|rxdel|0> + (<0|rxdel|b>*<b|r|0>)*]
 Rotatory Strengths (R) in cgs (10**-40 erg-esu-cm/Gauss)
       state          XX          YY          ZZ     R(length)
         1        -1.1238     -9.9840     -4.8047     -5.3042
         2         0.3234     -0.5996      0.1089     -0.0558
         3         0.3329     17.8972      0.2999      6.1767
         4        -2.3948     18.2836      1.9876      5.9588
         5        17.7093      3.1756     -0.0188      6.9554
         6        28.4863    -15.6521      0.2773      4.3705
         7       -25.2781    -47.7498     -0.4912    -24.5064
         8       -63.8712     -3.5226      0.2044    -22.3964
         9        40.2845     43.5148      1.0682     28.2892
        10        -1.6656     20.1590     -0.0457      6.1492
        11         0.5836      1.7655      1.5607      1.3032
        12        -8.4224      0.7186     -0.0967     -2.6002
        13         7.2707    -10.6023     -0.1191     -1.1502
        14        -1.4112     -2.0354     -1.1090     -1.5185
        15        -0.1508      1.4917      0.6380      0.6596
  1/2[<0|del|b>*<b|r|0> + (<0|r|b>*<b|del|0>)*] (Au)
       state          X           Y           Z        Dip. S.   Osc.(frdel)
         1         0.0148      0.0136      0.0000     -0.0284     -0.0189
         2        -0.0009      0.0017      0.0000     -0.0008     -0.0006
         3         0.0000      0.0001      0.0001     -0.0001     -0.0001
         4         0.0000      0.0000     -0.0092      0.0092      0.0062
         5        -0.0001     -0.0006      0.0001      0.0007      0.0004
         6        -0.0104     -0.0278     -0.0002      0.0384      0.0256
         7         0.0006     -0.0063     -0.0004      0.0061      0.0041
         8        -0.0224     -0.0006      0.0001      0.0229      0.0152
         9        -0.0140     -0.0356     -0.0006      0.0502      0.0335
        10        -0.0193     -0.0080      0.0000      0.0274      0.0182
        11         0.0000     -0.0006     -0.0045      0.0052      0.0035
        12        -0.0006      0.0001     -0.0001      0.0006      0.0004
        13        -0.0002     -0.0005      0.0019     -0.0012     -0.0008
        14         0.0000     -0.0003      0.0000      0.0003      0.0002
        15         0.0000      0.0000      0.0011     -0.0011     -0.0007

 Excitation energies and oscillator strengths:
 
 Excited State   1:      Singlet-A      6.8132 eV  181.98 nm  f=0.2294  <S**2>=0.000
      18 -> 19         0.68184
 This state for optimization and/or second-order correction.
 Total Energy, E(CIS) =  -228.485503830    
 Copying the excited state density for this state as the 1-particle RhoCI density.
 
 Excited State   2:      Singlet-A      7.0107 eV  176.85 nm  f=0.0005  <S**2>=0.000
      17 -> 19         0.50374
      18 -> 20         0.48629
 
 Excited State   3:      Singlet-A      8.1564 eV  152.01 nm  f=0.0012  <S**2>=0.000
      18 -> 21         0.69708
 
 Excited State   4:      Singlet-A      8.5350 eV  145.27 nm  f=0.0033  <S**2>=0.000
      16 -> 19         0.70254
 
 Excited State   5:      Singlet-A      9.0669 eV  136.74 nm  f=0.0088  <S**2>=0.000
      18 -> 22         0.67733
 
 Excited State   6:      Singlet-A      9.3719 eV  132.29 nm  f=0.4518  <S**2>=0.000
      15 -> 19        -0.19127
      17 -> 19        -0.41570
      18 -> 20         0.44205
      18 -> 22        -0.12705
      18 -> 23        -0.10387
 
 Excited State   7:      Singlet-A      9.5674 eV  129.59 nm  f=0.0442  <S**2>=0.000
      15 -> 19         0.65556
      16 -> 20         0.11904
      17 -> 19        -0.12128
      18 -> 20         0.12062
 
 Excited State   8:      Singlet-A      9.7863 eV  126.69 nm  f=0.0845  <S**2>=0.000
      17 -> 19         0.10367
      17 -> 20        -0.34308
      17 -> 21         0.55494
      18 -> 20        -0.10989
      18 -> 23        -0.14350
 
 Excited State   9:      Singlet-A      9.8529 eV  125.84 nm  f=0.1054  <S**2>=0.000
      17 -> 20         0.48868
      17 -> 21         0.17569
      18 -> 23        -0.44233
 
 Excited State  10:      Singlet-A      9.9419 eV  124.71 nm  f=0.0615  <S**2>=0.000
      17 -> 20         0.31394
      17 -> 21         0.34886
      18 -> 23         0.50671
 
 Excited State  11:      Singlet-A     10.1835 eV  121.75 nm  f=0.0039  <S**2>=0.000
      14 -> 19         0.49834
      16 -> 20        -0.11643
      17 -> 21        -0.11382
      18 -> 24        -0.44285
      18 -> 26         0.11654
 
 Excited State  12:      Singlet-A     10.2632 eV  120.80 nm  f=0.0024  <S**2>=0.000
      14 -> 19         0.47154
      18 -> 24         0.49261
      18 -> 26        -0.10448
 
 Excited State  13:      Singlet-A     10.5992 eV  116.97 nm  f=0.0055  <S**2>=0.000
      17 -> 22         0.16038
      18 -> 25         0.66966
 
 Excited State  14:      Singlet-A     10.6898 eV  115.98 nm  f=0.0005  <S**2>=0.000
      12 -> 19         0.10118
      14 -> 19         0.10363
      15 -> 19        -0.12020
      16 -> 20         0.66935
 
 Excited State  15:      Singlet-A     10.7385 eV  115.46 nm  f=0.0002  <S**2>=0.000
      17 -> 22         0.66964
      18 -> 25        -0.14724
      18 -> 26        -0.11170
 SavETr:  write IOETrn=   770 NScale= 10 NData=  16 NLR=1 NState=   15 LETran=     280.
 The selected state is a singlet
 CISAX will form     1 AO SS matrices at one time.
 NMat=     1 NSing=     1 JSym2X= 0.
 CISAX will form     1 AO SS matrices at one time.
 NMat=     1 NSing=     1 JSym2X= 0.
 Leave Link  914 at Tue Dec 15 16:23:46 2015, MaxMem=    33554432 cpu:        33.9
 (Enter /home/Applications/g09/g09/l1002.exe)
 Minotr:  Closed shell wavefunction.
          Computing CIS/TD-HF/TD-KS derivatives.
          Using Z-Vector for PSCF gradient.
          Skipping F1 and S1 gradient terms here.
          IDoAtm=111111111
          Frozen-core window.
          Direct CPHF calculation.
          Differentiating once with respect to electric field.
                with respect to dipole field.
          Differentiating once with respect to nuclear coordinates.
          Requested convergence is 1.0D-10 RMS, and 1.0D-09 maximum.
          NewPWx=F KeepS1=T KeepF1=T KeepIn=T MapXYZ=F SortEE=F KeepMc=T.
          MDV=      33554290 using IRadAn=       0.
 Using stored XC quadrature information.
 Keep R1 ints in memory in canonical form, NReq=1898913.
 FoFCou: FMM=F IPFlag=           0 FMFlag=           0 FMFlg1=           0
         NFxFlg=           0 DoJE=F BraDBF=F KetDBF=F FulRan=T
         wScrn=  0.000000 ICntrl=     600 IOpCl=  0 I1Cent=           0 NGrid=           0
         NMat0=    1 NMatS0=   1431 NMatT0=    0 NMatD0=    1 NMtDS0=    0 NMtDT0=    0
 Symmetry not used in FoFCou.
          Solving linear equations separately, MaxMat=       0.
          There are     1 degrees of freedom in the 1st order CPHF.  IDoFFX=0 NUNeed=     1.
 LinEq1:  Iter=  0 NonCon=     1 RMS=2.78D-02 Max=4.74D-01 NDo=     1
 AX will form     1 AO Fock derivatives at one time.
 LinEq1:  Iter=  1 NonCon=     1 RMS=2.72D-02 Max=5.35D-01 NDo=     1
 LinEq1:  Iter=  2 NonCon=     1 RMS=1.10D-02 Max=1.95D-01 NDo=     1
 LinEq1:  Iter=  3 NonCon=     1 RMS=3.94D-03 Max=2.76D-02 NDo=     1
 LinEq1:  Iter=  4 NonCon=     1 RMS=1.72D-03 Max=2.85D-02 NDo=     1
 LinEq1:  Iter=  5 NonCon=     1 RMS=1.13D-03 Max=1.31D-02 NDo=     1
 LinEq1:  Iter=  6 NonCon=     1 RMS=5.01D-04 Max=6.33D-03 NDo=     1
 LinEq1:  Iter=  7 NonCon=     1 RMS=1.68D-04 Max=1.64D-03 NDo=     1
 LinEq1:  Iter=  8 NonCon=     1 RMS=7.56D-05 Max=5.51D-04 NDo=     1
 LinEq1:  Iter=  9 NonCon=     1 RMS=1.43D-05 Max=1.03D-04 NDo=     1
 LinEq1:  Iter= 10 NonCon=     1 RMS=1.57D-06 Max=8.85D-06 NDo=     1
 LinEq1:  Iter= 11 NonCon=     1 RMS=1.85D-07 Max=1.08D-06 NDo=     1
 LinEq1:  Iter= 12 NonCon=     1 RMS=1.62D-08 Max=1.01D-07 NDo=     1
 LinEq1:  Iter= 13 NonCon=     1 RMS=2.28D-09 Max=1.99D-08 NDo=     1
 LinEq1:  Iter= 14 NonCon=     1 RMS=3.50D-10 Max=2.38D-09 NDo=     1
 LinEq1:  Iter= 15 NonCon=     0 RMS=4.05D-11 Max=3.42D-10 NDo=     1
 Linear equations converged to 1.000D-10 1.000D-09 after    15 iterations.
 End of Minotr F.D. properties file   721 does not exist.
 End of Minotr F.D. properties file   722 does not exist.
 End of Minotr F.D. properties file   788 does not exist.
 Leave Link 1002 at Tue Dec 15 16:23:56 2015, MaxMem=    33554432 cpu:         9.5
 (Enter /home/Applications/g09/g09/l601.exe)
 Copying SCF densities to generalized density rwf, IOpCl= 0 IROHF=0.

 **********************************************************************

            Population analysis using the SCF density.

 **********************************************************************

 Orbital symmetries:
       Occupied  (A) (A) (A) (A) (A) (A) (A) (A) (A) (A) (A) (A)
                 (A) (A) (A) (A) (A) (A)
       Virtual   (A) (A) (A) (A) (A) (A) (A) (A) (A) (A) (A) (A)
                 (A) (A) (A) (A) (A) (A) (A) (A) (A) (A) (A) (A)
                 (A) (A) (A) (A) (A) (A) (A) (A) (A) (A) (A)
 The electronic state is 1-A.
 Alpha  occ. eigenvalues --  -19.11959 -10.17769 -10.16912 -10.13120 -10.12995
 Alpha  occ. eigenvalues --   -1.11854  -0.80849  -0.74234  -0.59639  -0.58270
 Alpha  occ. eigenvalues --   -0.53876  -0.45446  -0.44294  -0.42071  -0.39827
 Alpha  occ. eigenvalues --   -0.36509  -0.28453  -0.22260
 Alpha virt. eigenvalues --    0.00792   0.07939   0.12485   0.15308   0.17936
 Alpha virt. eigenvalues --    0.19949   0.21486   0.22606   0.32248   0.41280
 Alpha virt. eigenvalues --    0.46744   0.67768   0.70192   0.71987   0.73819
 Alpha virt. eigenvalues --    0.77339   0.78562   0.79566   0.80363   0.83649
 Alpha virt. eigenvalues --    0.95110   0.97808   1.00734   1.04555   1.17415
 Alpha virt. eigenvalues --    1.25211   1.32106   1.38417   1.49594   1.59249
 Alpha virt. eigenvalues --    1.60286   1.71737   1.96448   2.13010   3.16087
     Molecular Orbital Coefficients:
                           1         2         3         4         5
                           O         O         O         O         O
     Eigenvalues --   -19.11959 -10.17769 -10.16912 -10.13120 -10.12995
   1 1   C  1S          0.00021  -0.00031  -0.01455   0.69840   0.69600
   2        2S          0.00095  -0.00012  -0.00511   0.08121   0.07443
   3        2PX         0.00130   0.00036   0.00212   0.00041  -0.00089
   4        2PY        -0.00048   0.00041   0.00035  -0.00262  -0.00025
   5        2PZ        -0.00004  -0.00002   0.00001   0.00004   0.00012
   6        3S         -0.00415  -0.01533   0.03376  -0.10318  -0.04401
   7        3PX         0.00220   0.00668  -0.01474  -0.00252   0.00990
   8        3PY         0.00820   0.00719  -0.00933   0.03909   0.00544
   9        3PZ         0.00019   0.00002   0.00007  -0.00011  -0.00039
  10 2   C  1S         -0.00047  -0.02676   0.98502   0.00939   0.01068
  11        2S         -0.00074  -0.00611   0.10678  -0.00136  -0.00187
  12        2PX        -0.00007  -0.00133   0.00051  -0.00054  -0.00182
  13        2PY        -0.00249   0.00044  -0.00173   0.00027  -0.00068
  14        2PZ         0.00003   0.00001   0.00002   0.00001   0.00003
  15        3S          0.01542   0.01443  -0.07223   0.02878   0.01872
  16        3PX         0.00931   0.02050  -0.01700   0.02010   0.01477
  17        3PY        -0.01119  -0.00563  -0.00237  -0.00266   0.00137
  18        3PZ        -0.00010  -0.00011   0.00004  -0.00016  -0.00008
  19 3   O  1S          0.98276   0.00024   0.00022   0.00000   0.00012
  20        2S          0.10752   0.00175   0.00173   0.00001   0.00061
  21        2PX         0.00326   0.00090   0.00014  -0.00004  -0.00006
  22        2PY         0.00279   0.00001   0.00101   0.00000  -0.00005
  23        2PZ        -0.00001   0.00001   0.00001  -0.00001   0.00001
  24        3S         -0.05968  -0.00053   0.00020  -0.00030  -0.00534
  25        3PX        -0.01056  -0.00321  -0.00221   0.00201  -0.00214
  26        3PY        -0.00882  -0.00155  -0.00240  -0.00214  -0.00177
  27        3PZ         0.00003  -0.00003  -0.00005   0.00005  -0.00001
  28 4   C  1S         -0.00043   0.98511   0.02567  -0.00788   0.00878
  29        2S         -0.00056   0.10637  -0.00053   0.00144  -0.00242
  30        2PX        -0.00250  -0.00181   0.00037  -0.00013  -0.00104
  31        2PY         0.00020   0.00153  -0.00131   0.00049  -0.00164
  32        2PZ        -0.00002  -0.00012  -0.00003   0.00000   0.00000
  33        3S          0.01582  -0.07138   0.01333  -0.03061   0.02113
  34        3PX        -0.01142  -0.00618  -0.00375  -0.00120   0.00340
  35        3PY         0.01014  -0.01635   0.01896  -0.01768   0.01461
  36        3PZ        -0.00008   0.00047   0.00003   0.00024  -0.00007
  37 5   C  1S          0.00020  -0.01206  -0.00119  -0.69636   0.69808
  38        2S          0.00092  -0.00489  -0.00015  -0.08097   0.07469
  39        2PX        -0.00033   0.00066   0.00056   0.00276  -0.00039
  40        2PY         0.00138   0.00217   0.00036  -0.00065  -0.00086
  41        2PZ        -0.00002  -0.00002  -0.00001  -0.00001   0.00007
  42        3S         -0.00396   0.03266  -0.01525   0.10197  -0.04549
  43        3PX         0.00830  -0.01034   0.00982  -0.03985   0.00743
  44        3PY        -0.00095  -0.01445   0.00380   0.00726   0.00860
  45        3PZ        -0.00002   0.00016  -0.00013   0.00003  -0.00029
  46 6   H  1S         -0.00098  -0.00116  -0.00052   0.00230  -0.00231
  47        2S         -0.00277   0.00123  -0.00163   0.00095   0.00634
  48 7   H  1S          0.00029  -0.00346   0.00130   0.00016  -0.00020
  49        2S          0.00368   0.00924   0.00787  -0.00302   0.00385
  50 8   H  1S          0.00011   0.00170  -0.00541   0.00003  -0.00026
  51        2S          0.00421   0.00938   0.01092   0.00534   0.00465
  52 9   H  1S         -0.00097  -0.00026  -0.00108  -0.00219  -0.00254
  53        2S         -0.00290  -0.00089   0.00170  -0.00006   0.00668
                           6         7         8         9        10
                           O         O         O         O         O
     Eigenvalues --    -1.11854  -0.80849  -0.74234  -0.59639  -0.58270
   1 1   C  1S         -0.02622   0.14813  -0.06459  -0.11832  -0.00048
   2        2S          0.02433  -0.15979   0.06898   0.12053  -0.00085
   3        2PX        -0.01581  -0.01728  -0.08475  -0.02246  -0.16889
   4        2PY        -0.02657   0.09233   0.00598   0.05321   0.07552
   5        2PZ         0.00050  -0.00314   0.00189   0.00618   0.00119
   6        3S          0.04345  -0.29814   0.13399   0.40544   0.01801
   7        3PX        -0.01225   0.00946   0.01347  -0.01830  -0.06576
   8        3PY        -0.04162   0.03819  -0.00442  -0.01803   0.02740
   9        3PZ        -0.00070  -0.00224   0.00149   0.00489   0.00079
  10 2   C  1S         -0.07201   0.04757  -0.15307   0.05436  -0.09135
  11        2S          0.08003  -0.05567   0.16336  -0.05698   0.10230
  12        2PX         0.02668  -0.08873  -0.01288   0.17889  -0.05896
  13        2PY        -0.07972  -0.06174  -0.01412   0.09076   0.18100
  14        2PZ         0.00030   0.00044   0.00049  -0.00046  -0.00002
  15        3S          0.06691  -0.06558   0.37562  -0.19716   0.25962
  16        3PX        -0.03234  -0.03012   0.03954   0.05099  -0.03599
  17        3PY         0.01925  -0.00996   0.00144   0.03322   0.09231
  18        3PZ         0.00054   0.00033  -0.00012  -0.00036   0.00033
  19 3   O  1S         -0.21202  -0.08449   0.00332  -0.01810   0.04866
  20        2S          0.19370   0.08134  -0.00331   0.01851  -0.04877
  21        2PX         0.08535  -0.01593  -0.14227   0.14800   0.08289
  22        2PY         0.07194  -0.01345   0.15682  -0.14883  -0.10361
  23        2PZ        -0.00032   0.00031  -0.00075   0.00170   0.00009
  24        3S          0.67550   0.30657  -0.01448   0.07871  -0.20658
  25        3PX         0.10799  -0.00190  -0.11899   0.13094   0.06931
  26        3PY         0.09227  -0.00192   0.13000  -0.12891  -0.09541
  27        3PZ        -0.00041   0.00009  -0.00072   0.00139   0.00020
  28 4   C  1S         -0.07506   0.05454   0.13933   0.03487  -0.10926
  29        2S          0.08314  -0.06372  -0.14849  -0.04163   0.11931
  30        2PX        -0.08115  -0.08068   0.02434  -0.19543   0.00479
  31        2PY         0.03823  -0.08773  -0.00505  -0.05456  -0.13757
  32        2PZ        -0.00088   0.00138   0.00251   0.00177  -0.00305
  33        3S          0.07046  -0.08347  -0.34656  -0.06756   0.35362
  34        3PX         0.02182  -0.01353  -0.00739  -0.08168   0.02688
  35        3PY        -0.03129  -0.03146  -0.03758   0.00539  -0.05669
  36        3PZ        -0.00036   0.00064   0.00185   0.00114  -0.00248
  37 5   C  1S         -0.02560   0.15162   0.06096   0.08300   0.07738
  38        2S          0.02424  -0.16410  -0.06526  -0.08357  -0.07907
  39        2PX        -0.02837   0.09618   0.00957  -0.06746  -0.00365
  40        2PY        -0.01239  -0.01993   0.07965   0.15155  -0.11042
  41        2PZ         0.00029  -0.00174  -0.00113  -0.00229  -0.00101
  42        3S          0.03852  -0.30551  -0.12635  -0.30073  -0.25823
  43        3PX        -0.03925   0.03925   0.00676   0.00584   0.01978
  44        3PY         0.00268   0.00473  -0.01401   0.05967  -0.03039
  45        3PZ         0.00030  -0.00106  -0.00059  -0.00221  -0.00123
  46 6   H  1S          0.00667  -0.05291  -0.03337  -0.09368  -0.06075
  47        2S          0.01237  -0.01063  -0.01122  -0.05714  -0.03747
  48 7   H  1S          0.01305  -0.01663  -0.08363  -0.03308   0.15559
  49        2S         -0.02148  -0.00596  -0.03380  -0.00641   0.07845
  50 8   H  1S          0.01770  -0.01659   0.11661  -0.11628   0.15444
  51        2S         -0.02455  -0.00542   0.04306  -0.06173   0.06496
  52 9   H  1S          0.00703  -0.05459   0.03657   0.11264   0.02314
  53        2S          0.01392  -0.01102   0.00997   0.06591   0.01396
                          11        12        13        14        15
                           O         O         O         O         O
     Eigenvalues --    -0.53876  -0.45446  -0.44294  -0.42071  -0.39827
   1 1   C  1S         -0.04702  -0.03739   0.00151   0.02336   0.00063
   2        2S          0.04432   0.03998  -0.00221  -0.02759  -0.00539
   3        2PX         0.14250  -0.06103  -0.01746  -0.23767   0.09808
   4        2PY         0.16652   0.07757   0.02648   0.17049   0.28029
   5        2PZ         0.00858  -0.00043   0.11370  -0.00137   0.01364
   6        3S          0.20367   0.13161  -0.00189  -0.08236  -0.00481
   7        3PX         0.05216  -0.01722  -0.00673  -0.11096   0.04385
   8        3PY         0.11172   0.05959   0.01927   0.09657   0.21191
   9        3PZ         0.00694   0.00059   0.08438  -0.00225   0.01090
  10 2   C  1S          0.02338   0.01672   0.00091  -0.02002   0.04254
  11        2S         -0.02821  -0.01852  -0.00078   0.02333  -0.04806
  12        2PX        -0.16846   0.20026   0.01839   0.16457  -0.17042
  13        2PY         0.04871  -0.17681  -0.01130   0.04621  -0.05585
  14        2PZ         0.00386  -0.01069   0.18180  -0.01545  -0.00381
  15        3S         -0.04935  -0.03768  -0.00178   0.07861  -0.15015
  16        3PX        -0.14735   0.12539   0.01467   0.13745  -0.10513
  17        3PY         0.00796  -0.10968  -0.00425   0.05245  -0.02117
  18        3PZ         0.00219  -0.01061   0.17493  -0.01540  -0.00722
  19 3   O  1S         -0.05871  -0.00446   0.00162   0.00128   0.00137
  20        2S          0.05770   0.00341  -0.00193  -0.00532  -0.00298
  21        2PX        -0.12838  -0.18745   0.00214   0.14487   0.01492
  22        2PY        -0.14106   0.19258   0.02531   0.04551   0.08344
  23        2PZ         0.00359  -0.02572   0.38108  -0.03377  -0.02809
  24        3S          0.23032   0.01972  -0.00476   0.02281   0.00649
  25        3PX        -0.11628  -0.17697   0.00280   0.14835   0.01355
  26        3PY        -0.12813   0.18166   0.02439   0.04721   0.08904
  27        3PZ         0.00360  -0.02534   0.38391  -0.03458  -0.02913
  28 4   C  1S          0.02234  -0.02540  -0.00433   0.01738  -0.04346
  29        2S         -0.02664   0.02495   0.00508  -0.01847   0.05131
  30        2PX         0.00699   0.19398   0.01196  -0.04451   0.07314
  31        2PY        -0.15414  -0.18546   0.00864   0.09119   0.24390
  32        2PZ         0.00279  -0.01417   0.18935  -0.01180  -0.01292
  33        3S         -0.05280   0.09349   0.01350  -0.04925   0.15758
  34        3PX        -0.02036   0.11653   0.00936   0.00239   0.05788
  35        3PY        -0.13830  -0.12461   0.01266   0.09228   0.18399
  36        3PZ         0.00151  -0.01263   0.18104  -0.01306  -0.01306
  37 5   C  1S         -0.04994   0.04213   0.00443  -0.00026   0.01440
  38        2S          0.04661  -0.04712  -0.00491  -0.00459  -0.01223
  39        2PX         0.17406   0.02216   0.01412   0.29697  -0.13710
  40        2PY         0.11279  -0.04754  -0.02519  -0.17583  -0.20173
  41        2PZ         0.00401  -0.00631   0.11416   0.00131  -0.00030
  42        3S          0.21785  -0.13841  -0.01693  -0.00647  -0.06229
  43        3PX         0.10543   0.00498   0.01085   0.21433  -0.11078
  44        3PY         0.03246  -0.03610  -0.01318  -0.09077  -0.08357
  45        3PZ         0.00325  -0.00506   0.08176   0.00023  -0.00213
  46 6   H  1S          0.12686  -0.03148   0.00624   0.20078  -0.11941
  47        2S          0.07405  -0.01632   0.00449   0.17681  -0.11023
  48 7   H  1S          0.05348   0.18046  -0.00052  -0.09584  -0.09825
  49        2S          0.01859   0.13810   0.00268  -0.07551  -0.09351
  50 8   H  1S          0.06925  -0.19586  -0.01535  -0.07347   0.03845
  51        2S          0.02077  -0.13764  -0.01095  -0.05482   0.03871
  52 9   H  1S          0.13230   0.08076   0.01860   0.06023   0.21215
  53        2S          0.07309   0.05383   0.01217   0.06076   0.19687
                          16        17        18        19        20
                           O         O         O         V         V
     Eigenvalues --    -0.36509  -0.28453  -0.22260   0.00792   0.07939
   1 1   C  1S          0.01603  -0.00325   0.00279  -0.00333  -0.01058
   2        2S         -0.01499   0.00339  -0.00332   0.00301   0.01041
   3        2PX         0.17746   0.00062  -0.00384   0.00205   0.00665
   4        2PY         0.04776   0.02183  -0.00949   0.01054   0.02690
   5        2PZ         0.00315  -0.29179   0.18235  -0.17887  -0.33718
   6        3S         -0.11255   0.01000  -0.00410   0.01300   0.05641
   7        3PX         0.15743   0.00168  -0.00431   0.00725   0.01213
   8        3PY         0.00194   0.01992  -0.01815   0.03236   0.10320
   9        3PZ         0.00112  -0.29484   0.20466  -0.28301  -0.67584
  10 2   C  1S         -0.01670   0.00171  -0.00063   0.00049   0.00511
  11        2S          0.02210  -0.00230   0.00137  -0.00189  -0.00683
  12        2PX        -0.11356  -0.00385   0.00641   0.00170  -0.00610
  13        2PY        -0.15891  -0.00226   0.00396   0.00303   0.01225
  14        2PZ         0.00231  -0.05717   0.33510   0.32391   0.20116
  15        3S          0.05589  -0.00295  -0.00306   0.00876  -0.01003
  16        3PX         0.00398  -0.00063   0.00062   0.01586   0.01778
  17        3PY        -0.02571   0.00172   0.00422   0.00340   0.01772
  18        3PZ         0.00038  -0.02208   0.36813   0.47715   0.38289
  19 3   O  1S          0.06763  -0.00047  -0.00058  -0.00091  -0.00502
  20        2S         -0.06850   0.00017   0.00081   0.00034   0.00383
  21        2PX         0.29283   0.00422  -0.00013   0.00099   0.00358
  22        2PY         0.28368   0.00903  -0.00411   0.00280   0.01159
  23        2PZ        -0.00588   0.29987  -0.00359  -0.29446   0.01133
  24        3S         -0.25387   0.00474   0.00165   0.00831   0.03802
  25        3PX         0.31721   0.00468  -0.00119   0.00312   0.00679
  26        3PY         0.30559   0.01030  -0.00426   0.00261   0.01587
  27        3PZ        -0.00620   0.33744  -0.00339  -0.40252   0.01596
  28 4   C  1S         -0.01812  -0.00092   0.00381  -0.00342  -0.00005
  29        2S          0.02229   0.00104  -0.00457   0.00239   0.00194
  30        2PX        -0.15511   0.00116  -0.00249   0.00549   0.00869
  31        2PY        -0.13007   0.00588  -0.00184  -0.00258   0.00980
  32        2PZ        -0.00272  -0.06430  -0.32478   0.32224  -0.21660
  33        3S          0.07288   0.00668  -0.01287   0.02691  -0.00954
  34        3PX        -0.00315   0.00453  -0.00490   0.01563   0.02335
  35        3PY        -0.01969   0.00671   0.00381  -0.01235   0.01379
  36        3PZ        -0.00343  -0.02865  -0.35395   0.47072  -0.40973
  37 5   C  1S          0.01936  -0.00071  -0.00229  -0.00018   0.00430
  38        2S         -0.01791   0.00049   0.00340  -0.00172  -0.00527
  39        2PX         0.08534   0.00663   0.00246   0.00743  -0.00390
  40        2PY         0.17894  -0.01149  -0.00106  -0.00025  -0.00041
  41        2PZ        -0.00097  -0.29684  -0.17724  -0.15628   0.34937
  42        3S         -0.14508   0.00336   0.00025   0.01704  -0.00676
  43        3PX         0.04858   0.00499   0.01132   0.00194  -0.03856
  44        3PY         0.15616  -0.00518  -0.00285   0.00291   0.02031
  45        3PZ        -0.00104  -0.30133  -0.19918  -0.24473   0.69955
  46 6   H  1S          0.04250  -0.00158   0.00168  -0.00545   0.00340
  47        2S          0.06267  -0.00086  -0.00016  -0.01323   0.01844
  48 7   H  1S          0.08948  -0.00330   0.00193  -0.00668   0.00480
  49        2S          0.09115  -0.00489   0.00467  -0.02528   0.01037
  50 8   H  1S          0.06094  -0.00191   0.00063  -0.00034   0.00035
  51        2S          0.05830  -0.00196  -0.00126   0.00250   0.00806
  52 9   H  1S          0.03932   0.00545   0.00018  -0.00896  -0.02330
  53        2S          0.06051   0.00891   0.00233  -0.02998  -0.11533
                          21        22        23        24        25
                           V         V         V         V         V
     Eigenvalues --     0.12485   0.15308   0.17936   0.19949   0.21486
   1 1   C  1S          0.03118   0.00659   0.11643  -0.01391  -0.08587
   2        2S         -0.01638   0.00664  -0.09423   0.03348   0.02806
   3        2PX        -0.05277   0.00632  -0.05660  -0.02067  -0.00742
   4        2PY        -0.15991  -0.01070  -0.15339  -0.13668   0.08286
   5        2PZ        -0.03166   0.00766  -0.03962  -0.00481   0.00388
   6        3S         -0.43968  -0.15765  -1.08444  -0.24362   1.50751
   7        3PX        -0.16256   0.01552  -0.16243   0.01468   0.14567
   8        3PY        -0.43386   0.03536  -0.89530  -0.16731   0.05937
   9        3PZ        -0.07795   0.01830  -0.12666  -0.01886   0.02260
  10 2   C  1S          0.01323   0.07817  -0.04939   0.08972  -0.01476
  11        2S         -0.00805  -0.05599   0.05133  -0.06254   0.02291
  12        2PX         0.01310   0.03367   0.06212   0.22358   0.01969
  13        2PY        -0.14793   0.17877  -0.04038  -0.06730  -0.30359
  14        2PZ         0.01640  -0.00632   0.01199  -0.00158   0.00250
  15        3S         -0.31883  -0.74000   0.30490  -1.36814  -0.17779
  16        3PX         0.00044   0.27713  -0.08217   1.04626   0.04310
  17        3PY        -0.35210   0.42086   0.14699  -0.34111  -0.94026
  18        3PZ         0.03834  -0.01547   0.04687  -0.00446  -0.00204
  19 3   O  1S          0.05333  -0.09387   0.01410  -0.03680   0.05391
  20        2S         -0.03610   0.06629  -0.00959   0.02321  -0.02303
  21        2PX        -0.08750   0.10078   0.01627   0.04779   0.12485
  22        2PY        -0.08966   0.09362  -0.06132   0.02721  -0.18125
  23        2PZ        -0.00534  -0.00349  -0.00123   0.00295  -0.00023
  24        3S         -0.44308   0.78103  -0.12312   0.33625  -0.57026
  25        3PX        -0.15448   0.15898  -0.02043   0.09339   0.18428
  26        3PY        -0.16387   0.16689  -0.05799   0.03980  -0.40475
  27        3PZ        -0.01005  -0.00620  -0.00412   0.00612   0.00101
  28 4   C  1S          0.01302   0.12344   0.03706  -0.01530   0.08479
  29        2S         -0.00397  -0.08669  -0.04252   0.01033  -0.05238
  30        2PX        -0.14084   0.08622  -0.02113   0.15111  -0.05441
  31        2PY         0.08312   0.17837  -0.03913  -0.18757   0.02846
  32        2PZ         0.00228   0.01465  -0.00410  -0.00540   0.00260
  33        3S         -0.33828  -1.27987  -0.18923   0.40342  -1.17073
  34        3PX        -0.31331   0.13414  -0.26130   0.52716  -0.38496
  35        3PY         0.10919   0.73818   0.07505  -0.61718  -0.01827
  36        3PZ         0.00759   0.03648  -0.02462  -0.01848   0.01172
  37 5   C  1S          0.06331  -0.02186  -0.10253   0.01938  -0.02538
  38        2S         -0.04212   0.03663   0.08149  -0.01930   0.01216
  39        2PX        -0.19707  -0.06380   0.13271   0.06188   0.13825
  40        2PY        -0.04830  -0.00028   0.01779   0.01767  -0.18902
  41        2PZ         0.00470  -0.00899   0.02445   0.00401   0.00671
  42        3S         -0.69742  -0.02556   0.93618  -0.06748   0.40126
  43        3PX        -0.59839   0.02076   0.80032   0.06491   0.53303
  44        3PY        -0.11071  -0.00961   0.02918   0.02370  -0.93018
  45        3PZ         0.01146  -0.02798   0.08642   0.01794   0.01249
  46 6   H  1S          0.11800  -0.02364  -0.05287  -0.01035   0.00312
  47        2S          1.18084  -0.02461  -1.28683  -0.10484  -0.71880
  48 7   H  1S          0.02207   0.10595   0.02167  -0.01664  -0.02316
  49        2S          0.44528   1.49872   0.23534  -1.01461   0.62628
  50 8   H  1S          0.02312   0.04754  -0.02674   0.05086   0.03104
  51        2S          0.36639   0.58204  -0.27701   2.04292   0.53207
  52 9   H  1S          0.09863  -0.02090   0.06528  -0.00339   0.05294
  53        2S          0.90405  -0.01520   1.53811   0.33039  -0.64657
                          26        27        28        29        30
                           V         V         V         V         V
     Eigenvalues --     0.22606   0.32248   0.41280   0.46744   0.67768
   1 1   C  1S          0.00218   0.07393   0.02428   0.12595   0.02124
   2        2S          0.00334  -0.04138   0.00970  -0.01550  -0.03951
   3        2PX        -0.18438   0.06130   0.30600   0.04320   0.55106
   4        2PY         0.13393   0.14230   0.00272   0.22329  -0.02744
   5        2PZ         0.00841   0.00687   0.00325   0.01975   0.00251
   6        3S         -0.11564  -1.16547  -0.68895  -3.25042   0.22437
   7        3PX        -0.96330   1.02694   1.96899  -0.37995  -0.55468
   8        3PY         0.69560   0.65288   0.26292   2.52359   0.02907
   9        3PZ         0.02832   0.01434  -0.00167   0.02023  -0.00054
  10 2   C  1S          0.09597  -0.07662  -0.04653  -0.08072  -0.04378
  11        2S         -0.06796   0.00322   0.00916   0.02307  -0.02617
  12        2PX         0.02931   0.27059   0.13570   0.07520   0.07616
  13        2PY         0.01202   0.00259   0.10669  -0.28581  -0.29857
  14        2PZ        -0.00230  -0.00394  -0.00007   0.00516   0.00865
  15        3S         -1.34066   1.10831   1.15686   1.17108  -0.01659
  16        3PX         0.01509   1.36578   1.44221   1.43476  -0.17874
  17        3PY        -0.21058  -0.14857   0.97949  -0.36469   0.31010
  18        3PZ        -0.00916  -0.01800  -0.01836  -0.01763  -0.00386
  19 3   O  1S          0.04916   0.05106   0.00860   0.00037   0.02368
  20        2S         -0.02295  -0.02684  -0.00465  -0.00180  -0.08866
  21        2PX        -0.21020  -0.11307  -0.13691   0.15316  -0.12387
[...]
     2  C    0.479654   5.097388   0.282008  -0.159528  -0.135753   0.004013
     3  O   -0.064683   0.282008   8.074228   0.297738  -0.069959   0.001438
     4  C   -0.148134  -0.159528   0.297738   5.115365   0.454573  -0.029278
     5  C    0.431765  -0.135753  -0.069959   0.454573   5.241068   0.378855
     6  H   -0.021632   0.004013   0.001438  -0.029278   0.378855   0.476943
     7  H    0.003334   0.004140  -0.026384   0.383640  -0.039372  -0.000300
     8  H   -0.037683   0.400611  -0.028288   0.003965   0.002921  -0.000028
     9  H    0.378818  -0.030842   0.001758   0.005514  -0.027704  -0.001248
               7          8          9
     1  C    0.003334  -0.037683   0.378818
     2  C    0.004140   0.400611  -0.030842
     3  O   -0.026384  -0.028288   0.001758
     4  C    0.383640   0.003965   0.005514
     5  C   -0.039372   0.002921  -0.027704
     6  H   -0.000300  -0.000028  -0.001248
     7  H    0.459955  -0.000081  -0.000039
     8  H   -0.000081   0.441215  -0.000441
     9  H   -0.000039  -0.000441   0.486697
 Mulliken charges:
               1
     1  C   -0.241843
     2  C    0.058309
     3  O   -0.467856
     4  C    0.076145
     5  C   -0.236393
     6  H    0.191237
     7  H    0.215106
     8  H    0.217809
     9  H    0.187487
 Sum of Mulliken charges =   0.00000
 Mulliken charges with hydrogens summed into heavy atoms:
               1
     1  C   -0.054357
     2  C    0.276117
     3  O   -0.467856
     4  C    0.291251
     5  C   -0.045156
 Electronic spatial extent (au):  <R**2>=            293.4674
 Charge=              0.0000 electrons
 Dipole moment (field-independent basis, Debye):
    X=              0.5864    Y=              0.4507    Z=              0.0861  Tot=              0.7445
 Quadrupole moment (field-independent basis, Debye-Ang):
   XX=            -25.9567   YY=            -25.8099   ZZ=            -31.8877
   XY=             -2.4262   XZ=              0.0843   YZ=              0.2608
 Traceless Quadrupole moment (field-independent basis, Debye-Ang):
   XX=              1.9280   YY=              2.0749   ZZ=             -4.0029
   XY=             -2.4262   XZ=              0.0843   YZ=              0.2608
 Octapole moment (field-independent basis, Debye-Ang**2):
  XXX=             -2.8285  YYY=             -3.8156  ZZZ=              0.1456  XYY=              1.3542
  XXY=              2.0159  XXZ=              0.2419  XZZ=             -2.7905  YZZ=             -2.2658
  YYZ=              0.3899  XYZ=              0.1133
 Hexadecapole moment (field-independent basis, Debye-Ang**3):
 XXXX=           -149.4979 YYYY=           -147.6725 ZZZZ=            -31.0715 XXXY=             -4.3263
 XXXZ=              0.4424 YYYX=             -1.8521 YYYZ=              1.4644 ZZZX=              0.0419
 ZZZY=              0.2604 XXYY=            -56.7102 XXZZ=            -37.2409 YYZZ=            -37.0842
 XXYZ=              0.1706 YYXZ=              0.1110 ZZXY=              1.6448
 N-N= 1.597894513008D+02 E-N=-8.520551472163D+02  KE= 2.268170760366D+02
 Orbital energies and kinetic energies (alpha):
                                 1                 2
   1         O               -19.119591         28.829849
   2         O               -10.177691         15.802315
   3         O               -10.169117         15.799105
   4         O               -10.131197         15.802702
   5         O               -10.129947         15.811486
   6         O                -1.118535          2.520981
   7         O                -0.808492          1.776168
   8         O                -0.742339          1.748144
   9         O                -0.596386          1.564137
  10         O                -0.582704          1.507321
  11         O                -0.538761          1.344432
  12         O                -0.454462          1.569920
  13         O                -0.442938          1.598364
  14         O                -0.420709          1.392299
  15         O                -0.398266          1.374012
  16         O                -0.365091          2.240126
  17         O                -0.284527          1.516140
  18         O                -0.222604          1.211035
  19         V                 0.007918          1.846644
  20         V                 0.079393          1.495136
  21         V                 0.124852          1.258366
  22         V                 0.153076          1.764289
  23         V                 0.179360          1.355180
  24         V                 0.199490          1.179798
  25         V                 0.214858          1.808280
  26         V                 0.226060          2.028996
  27         V                 0.322478          2.015001
  28         V                 0.412799          1.777320
  29         V                 0.467442          2.640353
  30         V                 0.677683          2.508188
  31         V                 0.701921          2.517055
  32         V                 0.719869          2.805981
  33         V                 0.738185          2.650142
  34         V                 0.773385          2.531863
  35         V                 0.785618          2.556326
  36         V                 0.795660          2.598236
  37         V                 0.803625          2.522645
  38         V                 0.836493          2.599274
  39         V                 0.951098          2.820533
  40         V                 0.978080          3.290839
  41         V                 1.007338          3.084771
  42         V                 1.045545          3.170163
  43         V                 1.174149          2.701158
  44         V                 1.252109          2.941709
  45         V                 1.321057          2.547418
  46         V                 1.384173          2.862100
  47         V                 1.495935          4.949364
  48         V                 1.592486          3.487591
  49         V                 1.602857          3.484954
  50         V                 1.717369          4.555835
  51         V                 1.964485          4.172121
  52         V                 2.130104          4.107916
  53         V                 3.160866          6.820262
 Total kinetic energy from orbitals= 2.268170760366D+02
 No NMR shielding tensors so no spin-rotation constants.
 Leave Link  601 at Tue Dec 15 16:23:56 2015, MaxMem=    33554432 cpu:         0.1
 (Enter /home/Applications/g09/g09/l701.exe)
 Compute integral first derivatives.
 ... and contract with generalized density number  6.
 Leave Link  701 at Tue Dec 15 16:23:56 2015, MaxMem=    33554432 cpu:         0.1
 (Enter /home/Applications/g09/g09/l702.exe)
 L702 exits ... SP integral derivatives will be done elsewhere.
 Leave Link  702 at Tue Dec 15 16:23:56 2015, MaxMem=    33554432 cpu:         0.0
 (Enter /home/Applications/g09/g09/l703.exe)
 Compute integral first derivatives, UseDBF=F ICtDFT=           0.
 Integral derivatives from FoFJK, PRISM(SPDF).
 Calling FoFJK, ICntrl=  10005127 FMM=F ISym2X=0 I1Cent= 0 IOpClX= 0 NMat=1 NMatS=1 NMatT=0.
 FoFJK:  IHMeth= 1 ICntrl=10005127 DoSepK=F KAlg= 0 I1Cent=   0 FoldK=F
 IRaf=         0 NMat=   1 IRICut=       1 DoRegI=T DoRafI=F ISym2E= 0.
 FoFCou: FMM=F IPFlag=           0 FMFlag=      100000 FMFlg1=         800
         NFxFlg=           0 DoJE=F BraDBF=F KetDBF=F FulRan=T
         wScrn=  0.000000 ICntrl=10005127 IOpCl=  0 I1Cent=           0 NGrid=           0
         NMat0=    1 NMatS0=      1 NMatT0=    0 NMatD0=    1 NMtDS0=    0 NMtDT0=    0
 Symmetry not used in FoFCou.
 Leave Link  703 at Tue Dec 15 16:23:57 2015, MaxMem=    33554432 cpu:         1.3
 (Enter /home/Applications/g09/g09/l716.exe)
 Dipole        = 2.05095462D-01 2.14527804D-01 4.14820619D-02
 ***** Axes restored to original set *****
 -------------------------------------------------------------------
 Center     Atomic                   Forces (Hartrees/Bohr)
 Number     Number              X              Y              Z
 -------------------------------------------------------------------
      1        6           0.050467864   -0.030547865   -0.002130202
      2        6           0.054213980    0.054007279    0.003149902
      3        8          -0.085824694   -0.000438091   -0.003876300
      4        6           0.002269751    0.057044746    0.003341476
      5        6           0.043323150    0.023457027   -0.000374934
      6        1          -0.013084171   -0.022191151    0.000149345
      7        1          -0.002172691   -0.001512941   -0.000726651
      8        1          -0.043356610   -0.090076959   -0.002473496
      9        1          -0.005836579    0.010257955    0.002940860
 -------------------------------------------------------------------
 Cartesian Forces:  Max     0.090076959 RMS     0.035091562
 Z-matrix is all fixed cartesians, so copy forces.
 Force constants in Cartesian coordinates: 
                1             2             3             4             5 
      1  0.809661D+00
      2 -0.319601D-01  0.870044D+00
      3  0.231882D-02  0.179185D-01  0.204955D+00
      4 -0.415691D+00 -0.870732D-01 -0.120611D-01  0.873255D+00
      5 -0.666186D-01 -0.201497D+00 -0.512510D-02  0.824638D-01  0.973287D+00
      6 -0.154780D-01 -0.610983D-02 -0.886681D-01  0.277655D-01  0.105862D-01
      7 -0.872610D-02  0.274028D-01 -0.488665D-03 -0.267796D+00  0.149462D+00
      8 -0.644397D-02  0.202219D-01 -0.230917D-03  0.189063D+00 -0.340335D+00
      9 -0.831341D-03  0.172054D-02  0.748597D-02 -0.794484D-02  0.457403D-02
     10  0.101373D-01 -0.187098D-03  0.547440D-03  0.232247D-01  0.171202D-01
     11  0.348757D-01 -0.643200D-03  0.202042D-02 -0.183313D-01 -0.135092D-01
     12 -0.448868D-03  0.154279D-04  0.873341D-04  0.947577D-03  0.591519D-03
     13 -0.180846D+00  0.542301D-02 -0.734930D-03  0.109479D-01 -0.343311D-01
     14 -0.195242D-01 -0.495778D+00 -0.317069D-02 -0.200624D-03  0.632003D-03
     15 -0.137967D-02  0.288589D-02 -0.993542D-01  0.549268D-03 -0.152108D-02
     16  0.196163D-01 -0.358745D-03 -0.126917D-03 -0.270945D-05  0.000000D+00
     17 -0.216726D-01  0.395749D-03  0.391132D-03  0.000000D+00  0.000000D+00
     18  0.110215D-02 -0.820506D-04  0.257591D-01 -0.242614D-03 -0.103759D-04
     19  0.133159D-04  0.000000D+00 -0.302804D-03  0.000000D+00  0.000000D+00
     20  0.100928D-04  0.000000D+00 -0.229511D-03  0.275455D-05  0.000000D+00
     21 -0.238744D-03 -0.867149D-05  0.542905D-02 -0.141742D-03  0.486514D-05
     22  0.882544D-02 -0.275352D-01 -0.959896D-03 -0.218160D+00 -0.165957D+00
     23 -0.456697D-02  0.143445D-01 -0.269197D-03 -0.159246D+00 -0.439454D+00
     24 -0.260171D-03 -0.224919D-02  0.245279D-01 -0.766352D-02 -0.103761D-01
     25 -0.242990D+00  0.114288D+00  0.118081D-01 -0.577917D-02  0.178611D-01
     26  0.115901D+00 -0.207088D+00 -0.113047D-01 -0.667876D-02  0.208772D-01
     27  0.152159D-01 -0.140906D-01 -0.802225D-01 -0.120849D-02  0.127597D-02
                6             7             8             9            10 
      6  0.181669D+00
      7 -0.772938D-02  0.530944D+00
      8  0.581396D-02  0.157928D-01  0.666017D+00
      9 -0.413410D-01  0.152449D-01  0.437937D-03  0.475888D-01
     10  0.674415D-03 -0.291812D+00 -0.205047D+00 -0.594831D-02  0.856073D+00
     11 -0.392134D-03 -0.162699D+00 -0.350839D+00 -0.390495D-02  0.674770D-03
     12 -0.392078D-02 -0.722973D-02 -0.641834D-02 -0.429657D-01  0.220812D-01
     13  0.231313D-03 -0.796420D-02  0.629719D-02 -0.877206D-03 -0.437328D+00
     14 -0.331732D-04 -0.275066D-01  0.217206D-01 -0.161871D-02  0.873544D-01
     15 -0.234683D-02 -0.324812D-03  0.781041D-04  0.902546D-02 -0.167139D-01
     16  0.688835D-04  0.621559D-05 -0.131894D-05 -0.151640D-03 -0.537926D-02
     17 -0.160775D-04 -0.883516D-05  0.187480D-05  0.215549D-03  0.593372D-02
     18  0.616809D-02 -0.201747D-03  0.428103D-04  0.492197D-02 -0.127068D-02
     19 -0.239925D-04  0.217020D-01 -0.170967D-01 -0.427276D-03 -0.154903D+00
     20 -0.879523D-04  0.981656D-02 -0.773143D-02 -0.278884D-03  0.941492D-01
     21  0.452580D-02  0.255748D-03 -0.320147D-03  0.502073D-02  0.102616D-02
     22 -0.749645D-02  0.236449D-01  0.174362D-01  0.965761D-03  0.618902D-05
     23 -0.101703D-01 -0.122777D-01 -0.905816D-02 -0.681961D-03  0.117399D-05
     24 -0.761835D-01  0.645645D-03  0.615471D-03  0.579962D-02 -0.140180D-03
     25  0.198778D-02  0.115791D-05  0.000000D+00 -0.300593D-04 -0.200633D-04
     26  0.409307D-03  0.178563D-04  0.196038D-05 -0.463548D-03  0.000000D+00
     27  0.200974D-01 -0.171964D-03 -0.188793D-04  0.446417D-02 -0.256163D-03
               11            12            13            14            15 
     11  0.860160D+00
     12  0.661299D-02  0.168003D+00
     13  0.655018D-01 -0.163744D-01  0.812575D+00
     14 -0.197305D+00  0.419133D-02  0.399023D-01  0.865160D+00
     15  0.385166D-02 -0.862868D-01  0.167508D-01 -0.441666D-02  0.207991D+00
     16 -0.185103D-01  0.228521D-03 -0.224098D+00 -0.105634D+00  0.668062D-03
     17  0.204448D-01 -0.745512D-04 -0.108787D+00 -0.205735D+00  0.160837D-02
     18 -0.163785D-02  0.182842D-01  0.176045D-02  0.314474D-02 -0.815327D-01
     19  0.984888D-01  0.537135D-03  0.750505D-02  0.259598D-01  0.578510D-03
     20 -0.318308D+00 -0.485855D-02  0.340226D-02  0.117142D-01 -0.989647D-04
     21 -0.654564D-02 -0.635019D-01 -0.349788D-03  0.197097D-02  0.211783D-01
     22  0.000000D+00 -0.197615D-03  0.863578D-05  0.000000D+00 -0.219551D-03
     23  0.000000D+00 -0.374854D-04  0.306031D-05  0.000000D+00 -0.778036D-04
     24  0.481151D-05  0.447592D-02 -0.241090D-03 -0.103108D-04  0.612933D-02
     25  0.000000D+00  0.456240D-03  0.191993D-01 -0.351637D-03  0.913019D-04
     26  0.000000D+00 -0.223438D-04  0.225888D-01 -0.407911D-03 -0.230951D-02
     27 -0.930417D-05  0.582516D-02 -0.165078D-03 -0.575039D-04  0.251964D-01
               16            17            18            19            20 
     16  0.209879D+00
     17  0.124514D+00  0.184878D+00
     18 -0.813243D-03 -0.181628D-02  0.437023D-01
     19 -0.130818D-04  0.185952D-04  0.424613D-03  0.125695D+00
     20 -0.991541D-05  0.140943D-04  0.321836D-03 -0.107371D+00  0.314311D+00
     21  0.234548D-03 -0.333398D-03 -0.761300D-02 -0.786186D-03  0.523202D-02
     22  0.000000D+00  0.000000D+00  0.000000D+00  0.000000D+00  0.000000D+00
     23  0.000000D+00  0.000000D+00  0.000000D+00  0.000000D+00  0.000000D+00
     24  0.000000D+00  0.000000D+00  0.000000D+00  0.000000D+00  0.000000D+00
     25 -0.847557D-05  0.197821D-05 -0.758934D-03  0.000000D+00  0.000000D+00
     26  0.000000D+00  0.000000D+00  0.371679D-04  0.000000D+00  0.000000D+00
     27 -0.108214D-03  0.252573D-04 -0.968988D-02  0.000000D+00  0.000000D+00
               21            22            23            24            25 
     21  0.349610D-01
     22  0.000000D+00  0.185677D+00
     23  0.000000D+00  0.176088D+00  0.434179D+00
     24  0.000000D+00  0.760180D-02  0.111284D-01  0.437920D-01
     25  0.000000D+00 -0.206009D-05  0.000000D+00  0.575127D-04  0.229600D+00
     26  0.000000D+00 -0.317689D-04 -0.112581D-04  0.886911D-03 -0.131798D+00
     27  0.000000D+00  0.305949D-03  0.108421D-03 -0.854134D-02 -0.136119D-01
               26            27 
     26  0.186628D+00
     27  0.127667D-01  0.428706D-01
 Leave Link  716 at Tue Dec 15 16:23:57 2015, MaxMem=    33554432 cpu:         0.0
 (Enter /home/Applications/g09/g09/l103.exe)

 GradGradGradGradGradGradGradGradGradGradGradGradGradGradGradGradGradGrad
 Berny optimization.
 Search for a local minimum.
 Step number   1 out of a maximum of    2
 All quantities printed in internal units (Hartrees-Bohrs-Radians)
 Second derivative matrix not updated -- first step.
 ITU=  0
     Eigenvalues ---    0.01853   0.02745   0.06871   0.07034   0.07457
     Eigenvalues ---    0.08365   0.12863   0.13969   0.16446   0.22837
     Eigenvalues ---    0.24396   0.26998   0.38344   0.44568   0.62492
     Eigenvalues ---    0.82237   1.13925   1.33070   1.41200   1.47802
     Eigenvalues ---    1.57939
 Quadratic step=3.590D-01 exceeds max=3.000D-01 adjusted using Lamda=-3.361D-02.
 Angle between NR and scaled steps=   9.63 degrees.
 Angle between quadratic step and forces=  38.69 degrees.
 Linear search not attempted -- first point.
 TrRot= -0.006409  0.013100 -0.002020 -0.990858  0.001006  0.990304
 Variable       Old X    -DE/DX   Delta X   Delta X   Delta X     New X
                                 (Linear)    (Quad)   (Total)
    X1        1.81241   0.05047   0.00000   0.09089   0.08376   1.89617
    Y1       -1.33567  -0.03055   0.00000  -0.02686  -0.01487  -1.35054
    Z1        0.07094  -0.00213   0.00000  -0.00415  -0.00836   0.06258
    X2       -0.72302   0.05421   0.00000   0.01771   0.01010  -0.71293
    Y2       -2.14479   0.05401   0.00000  -0.00125   0.01227  -2.13252
    Z2       -0.03015   0.00315   0.00000  -0.00173  -0.00516  -0.03531
    X3       -2.27812  -0.08582   0.00000  -0.13470  -0.14116  -2.41928
    Y3       -0.03313  -0.00044   0.00000   0.02385   0.03837   0.00524
    Z3       -0.08112  -0.00388   0.00000  -0.01139  -0.01209  -0.09321
    X4       -0.67410   0.00227   0.00000  -0.02530  -0.03057  -0.70467
    Y4        2.00175   0.05704   0.00000   0.07072   0.08422   2.08597
    Z4       -0.03307   0.00334   0.00000   0.01392   0.01403  -0.01904
    X5        1.86004   0.04332   0.00000   0.04668   0.04102   1.90105
    Y5        1.26667   0.02346   0.00000   0.00723   0.01921   1.28588
    Z5        0.07719  -0.00037   0.00000  -0.00781  -0.00981   0.06738
    X6        3.42014  -0.01308   0.00000   0.03617   0.03123   3.45137
    Y6        2.67805  -0.02219   0.00000  -0.08991  -0.07877   2.59928
    Z6        0.06345   0.00015   0.00000  -0.00587  -0.00762   0.05583
    X7       -1.51348  -0.00217   0.00000  -0.02094  -0.02517  -1.53865
    Y7        3.85659  -0.00151   0.00000   0.06373   0.07768   3.93426
    Z7       -0.00148  -0.00073   0.00000   0.00694   0.00906   0.00759
    X8       -1.56974  -0.04336   0.00000  -0.03235  -0.04100  -1.61074
    Y8       -3.77813  -0.09008   0.00000  -0.17756  -0.16351  -3.94164
    Z8       -0.08121  -0.00247   0.00000   0.00319  -0.00127  -0.08248
    X9        3.38509  -0.00584   0.00000   0.07969   0.07179   3.45688
    Y9       -2.67330   0.01026   0.00000   0.01420   0.02540  -2.64790
    Z9       -0.05736   0.00294   0.00000   0.02741   0.02124  -0.03613
         Item               Value     Threshold  Converged?
 Maximum Force            0.090077     0.000450     NO 
 RMS     Force            0.035092     0.000300     NO 
 Maximum Displacement     0.163508     0.001800     NO 
 RMS     Displacement     0.057142     0.001200     NO 
 Predicted change in Energy=-2.288064D-02
 GradGradGradGradGradGradGradGradGradGradGradGradGradGradGradGradGradGrad

 Leave Link  103 at Tue Dec 15 16:23:57 2015, MaxMem=    33554432 cpu:         0.0
 (Enter /home/Applications/g09/g09/l9999.exe)
 1\1\GINC-DUSTIN-DESKTOP\Force\RB3LYP-FC\3-21G\C4H4O1\DUSTIN\15-Dec-201
 5\0\\#P B3LYP/3-21G CIS(Singlets,NStates=15) pop(full) force\\FuranDFT
 \\0,1\C,0.959084,-0.706808,0.037541\C,-0.382606,-1.134975,-0.015953\O,
 -1.205527,-0.017532,-0.042927\C,-0.356718,1.05928,-0.017501\C,0.98429,
 0.670291,0.040849\H,1.809862,1.417162,0.033576\H,-0.800899,2.040817,-0
 .000781\H,-0.830671,-1.999299,-0.042974\H,1.79131,-1.414652,-0.030356\
 \Version=ES64L-G09RevD.01\State=1-A\HF=-228.7358858\RMSD=3.783e-09\RMS
 F=3.509e-02\Dipole=0.2966533,-0.027188,-0.0326305\PG=C01 [X(C4H4O1)]\\
 @


 THE DIFFICULTY IN SCIENCE IS OFTEN NOT SO MUCH HOW
 TO MAKE A DISCOVERY BUT RATHER TO KNOW ONE HAS MADE IT.

                                                   -- J. D. BERNAL
 Job cpu time:       0 days  0 hours  0 minutes 50.3 seconds.
 File lengths (MBytes):  RWF=     14 Int=      0 D2E=      0 Chk=      3 Scr=      1
 Normal termination of Gaussian 09 at Tue Dec 15 16:23:57 2015.
