 Entering Gaussian System, Link 0=g09
 Input=FuranAM1_38P5.com
 Output=FuranAM1_38P5.log
 Initial command:
 /home/Applications/g09/g09/l1.exe "/home/Applications/g09/scratch/Gau-7859.inp" -scrdir="/home/Applications/g09/scratch/"
 Entering Link 1 = /home/Applications/g09/g09/l1.exe PID=      7861.
  
 Copyright (c) 1988,1990,1992,1993,1995,1998,2003,2009,2013,
            Gaussian, Inc.  All Rights Reserved.
  
 This is part of the Gaussian(R) 09 program.  It is based on
 the Gaussian(R) 03 system (copyright 2003, Gaussian, Inc.),
 the Gaussian(R) 98 system (copyright 1998, Gaussian, Inc.),
 the Gaussian(R) 94 system (copyright 1995, Gaussian, Inc.),
 the Gaussian 92(TM) system (copyright 1992, Gaussian, Inc.),
 the Gaussian 90(TM) system (copyright 1990, Gaussian, Inc.),
 the Gaussian 88(TM) system (copyright 1988, Gaussian, Inc.),
 the Gaussian 86(TM) system (copyright 1986, Carnegie Mellon
 University), and the Gaussian 82(TM) system (copyright 1983,
 Carnegie Mellon University). Gaussian is a federally registered
 trademark of Gaussian, Inc.
  
 This software contains proprietary and confidential information,
 including trade secrets, belonging to Gaussian, Inc.
  
 This software is provided under written license and may be
 used, copied, transmitted, or stored only in accord with that
 written license.
  
 The following legend is applicable only to US Government
 contracts under FAR:
  
                    RESTRICTED RIGHTS LEGEND
  
 Use, reproduction and disclosure by the US Government is
 subject to restrictions as set forth in subparagraphs (a)
 and (c) of the Commercial Computer Software - Restricted
 Rights clause in FAR 52.227-19.
  
 Gaussian, Inc.
 340 Quinnipiac St., Bldg. 40, Wallingford CT 06492
  
  
 ---------------------------------------------------------------
 Warning -- This program may not be used in any manner that
 competes with the business of Gaussian, Inc. or will provide
 assistance to any competitor of Gaussian, Inc.  The licensee
 of this program is prohibited from giving any competitor of
 Gaussian, Inc. access to this program.  By using this program,
 the user acknowledges that Gaussian, Inc. is engaged in the
 business of creating and licensing software in the field of
 computational chemistry and represents and warrants to the
 licensee that it is not a competitor of Gaussian, Inc. and that
 it will not use this program in any manner prohibited above.
 ---------------------------------------------------------------
  

 Cite this work as:
 Gaussian 09, Revision D.01,
 M. J. Frisch, G. W. Trucks, H. B. Schlegel, G. E. Scuseria, 
 M. A. Robb, J. R. Cheeseman, G. Scalmani, V. Barone, B. Mennucci, 
 G. A. Petersson, H. Nakatsuji, M. Caricato, X. Li, H. P. Hratchian, 
 A. F. Izmaylov, J. Bloino, G. Zheng, J. L. Sonnenberg, M. Hada, 
 M. Ehara, K. Toyota, R. Fukuda, J. Hasegawa, M. Ishida, T. Nakajima, 
 Y. Honda, O. Kitao, H. Nakai, T. Vreven, J. A. Montgomery, Jr., 
 J. E. Peralta, F. Ogliaro, M. Bearpark, J. J. Heyd, E. Brothers, 
 K. N. Kudin, V. N. Staroverov, T. Keith, R. Kobayashi, J. Normand, 
 K. Raghavachari, A. Rendell, J. C. Burant, S. S. Iyengar, J. Tomasi, 
 M. Cossi, N. Rega, J. M. Millam, M. Klene, J. E. Knox, J. B. Cross, 
 V. Bakken, C. Adamo, J. Jaramillo, R. Gomperts, R. E. Stratmann, 
 O. Yazyev, A. J. Austin, R. Cammi, C. Pomelli, J. W. Ochterski, 
 R. L. Martin, K. Morokuma, V. G. Zakrzewski, G. A. Voth, 
 P. Salvador, J. J. Dannenberg, S. Dapprich, A. D. Daniels, 
 O. Farkas, J. B. Foresman, J. V. Ortiz, J. Cioslowski, 
 and D. J. Fox, Gaussian, Inc., Wallingford CT, 2013.
 
 ******************************************
 Gaussian 09:  ES64L-G09RevD.01 24-Apr-2013
                15-Dec-2015 
 ******************************************
 ------------------------------------------------------------
 #P AM1(Input,print) CIS(Singlets,NStates=15) pop(full) force
 ------------------------------------------------------------
 1/10=7,30=1,38=1/1,3;
 2/12=2,17=6,18=5,40=1/2;
 3/5=2,16=1,25=1,41=700000,71=1,135=100,136=1/1,2,8,3;
 4/35=1/1;
 5/5=2,35=1,38=5/2;
 8/6=1,10=1,108=15/1;
 9/15=2,41=15,42=1,48=1,49=10/14;
 10/5=4/2;
 6/7=3,18=1/1;
 7/12=6,13=5,29=1/1,2,3,16;
 1/10=7,30=1/3;
 99//99;
 Leave Link    1 at Tue Dec 15 17:05:56 2015, MaxMem=           0 cpu:         0.0
 (Enter /home/Applications/g09/g09/l101.exe)
 -----------------
 AM1-Reparam Input
 -----------------
 Symbolic Z-matrix:
 Charge =  0 Multiplicity = 1
 6                     0.91955  -0.74314  -0.02288 
 6                    -0.33676  -1.12319  -0.00311 
 8                    -1.11104  -0.03365  -0.01513 
 6                    -0.33523   1.12325  -0.00963 
 6                     0.97839   0.69881  -0.00952 
 1                     1.79205   1.40846   0.00283 
 1                    -0.862     2.09616  -0.02925 
 1                    -0.85203  -2.04964   0.00196 
 1                     1.84107  -1.36846   0.01861 
 
 NAtoms=      9 NQM=        9 NQMF=       0 NMMI=      0 NMMIF=      0
                NMic=       0 NMicF=      0.
                    Isotopes and Nuclear Properties:
 (Nuclear quadrupole moments (NQMom) in fm**2, nuclear magnetic moments (NMagM)
  in nuclear magnetons)

  Atom         1           2           3           4           5           6           7           8           9
 IAtWgt=          12          12          16          12          12           1           1           1           1
 AtmWgt=  12.0000000  12.0000000  15.9949146  12.0000000  12.0000000   1.0078250   1.0078250   1.0078250   1.0078250
 NucSpn=           0           0           0           0           0           1           1           1           1
 AtZEff=   0.0000000   0.0000000   0.0000000   0.0000000   0.0000000   0.0000000   0.0000000   0.0000000   0.0000000
 NQMom=    0.0000000   0.0000000   0.0000000   0.0000000   0.0000000   0.0000000   0.0000000   0.0000000   0.0000000
 NMagM=    0.0000000   0.0000000   0.0000000   0.0000000   0.0000000   2.7928460   2.7928460   2.7928460   2.7928460
 AtZNuc=   6.0000000   6.0000000   8.0000000   6.0000000   6.0000000   1.0000000   1.0000000   1.0000000   1.0000000
 Leave Link  101 at Tue Dec 15 17:05:56 2015, MaxMem=    33554432 cpu:         0.1
 (Enter /home/Applications/g09/g09/l103.exe)

 GradGradGradGradGradGradGradGradGradGradGradGradGradGradGradGradGradGrad
 Berny optimization.
 Initialization pass.
 Trust Radius=3.00D-01 FncErr=1.00D-07 GrdErr=1.00D-07
 Number of steps in this run=      2 maximum allowed number of steps=      2.
 GradGradGradGradGradGradGradGradGradGradGradGradGradGradGradGradGradGrad

 Leave Link  103 at Tue Dec 15 17:05:56 2015, MaxMem=    33554432 cpu:         0.0
 (Enter /home/Applications/g09/g09/l202.exe)
                          Input orientation:                          
 ---------------------------------------------------------------------
 Center     Atomic      Atomic             Coordinates (Angstroms)
 Number     Number       Type             X           Y           Z
 ---------------------------------------------------------------------
      1          6           0        0.919546   -0.743135   -0.022882
      2          6           0       -0.336756   -1.123186   -0.003107
      3          8           0       -1.111042   -0.033650   -0.015129
      4          6           0       -0.335225    1.123247   -0.009630
      5          6           0        0.978390    0.698811   -0.009515
      6          1           0        1.792051    1.408458    0.002828
      7          1           0       -0.861999    2.096164   -0.029252
      8          1           0       -0.852033   -2.049644    0.001961
      9          1           0        1.841070   -1.368460    0.018606
 ---------------------------------------------------------------------
                    Distance matrix (angstroms):
                    1          2          3          4          5
     1  C    0.000000
     2  C    1.312678   0.000000
     3  O    2.150980   1.336694   0.000000
     4  C    2.249001   2.246443   1.392958   0.000000
     5  C    1.443208   2.247070   2.214104   1.380482   0.000000
     6  H    2.321913   3.307730   3.241596   2.146347   1.079720
     7  H    3.351949   3.262021   2.144372   1.106546   2.310848
     8  H    2.201380   1.060123   2.032636   3.214726   3.302209
     9  H    1.114432   2.191702   3.240034   3.308423   2.240227
                    6          7          8          9
     6  H    0.000000
     7  H    2.741888   0.000000
     8  H    4.353120   4.145937   0.000000
     9  H    2.777395   4.394598   2.777966   0.000000
 Stoichiometry    C4H4O
 Framework group  C1[X(C4H4O)]
 Deg. of freedom    21
 Full point group                 C1      NOp   1
 Largest Abelian subgroup         C1      NOp   1
 Largest concise Abelian subgroup C1      NOp   1
                         Standard orientation:                         
 ---------------------------------------------------------------------
 Center     Atomic      Atomic             Coordinates (Angstroms)
 Number     Number       Type             X           Y           Z
 ---------------------------------------------------------------------
      1          6           0       -0.665865    0.957278    0.014724
      2          6           0       -1.132175   -0.269605   -0.006172
      3          8           0       -0.098945   -1.117611    0.002424
      4          6           0        1.108963   -0.423892   -0.004289
      5          6           0        0.776661    0.915995   -0.001533
      6          1           0        1.541009    1.678498   -0.014108
      7          1           0        2.043037   -1.016907    0.012523
      8          1           0       -2.092149   -0.719377   -0.010107
      9          1           0       -1.225847    1.920021   -0.024073
 ---------------------------------------------------------------------
 Rotational constants (GHZ):      9.6979410      9.1195469      4.7003003
 Leave Link  202 at Tue Dec 15 17:05:56 2015, MaxMem=    33554432 cpu:         0.0
 (Enter /home/Applications/g09/g09/l301.exe)

 Semi-emprical parameters in input format:
 Method=8 CoreType=1 PeptideFC=0.0111590000 RIJScale=0.5404210000
 ****
 H       
 PQN=1 NValence=1 F0ss=0.4980120000 ZetaOverlap=1.0856700000 U=-0.4186260000
 Beta=-0.2268830000 CoreKO=1.0354420000 KON=0,0,0,1.0458670000 KON=1,0,1,1.0879310000
 KON=0,1,1,1.0589200000 KON=2,1,1,1.0697690000 EISol=-0.4188110042 EHeat=0.0830298228
 Alpha=1.4609850000
 GCore=0.0085280000,1.5127750000,2.2676710000
 GCore=0.0003530000,1.4551640000,3.4779940000
 GCore=-0.0013010000,0.5600570000,3.5861320000
 ****
 C       
 PQN=2,2 NValence=4 F0ss=0.4494440000 F0sp=0.4215150000 F0pp=0.3497590000 F2pp=0.1898720000
 G1sp=0.2701540000
 ZetaOverlap=1.8086650000,1.3781170000
 U=-1.7687090000,-1.4557970000
 Beta=-0.5012330000,-0.3063130000 DDN=0,1,0.7474020000 DDN=1,1,0.7268010000
 CoreKO=1.1356210000 KON=0,0,0,1.0966100000 KON=1,0,1,0.8998210000 KON=0,1,1,1.1124280000
 KON=2,1,1,0.7957910000 EISol=-4.4398989268 EHeat=0.2723305520 Alpha=1.2756240000
 DipHyp=1.4947180026
 GCore=0.0007890000,1.4001430000,2.6678360000
 GCore=0.0028980000,1.4001430000,3.2840710000
 GCore=-0.0013930000,1.3017660000,3.7634120000
 GCore=-0.0000850000,1.4001430000,4.6744780000
 ****
 O       
 PQN=2,2 NValence=6 F0ss=0.5596260000 F0sp=0.5321300000 F0pp=0.4958710000 F2pp=0.2543430000
 G1sp=0.4216980000
 ZetaOverlap=2.6354490000,2.4967270000
 U=-3.3169990000,-2.0345890000
 Beta=-1.1573400000,-1.1944970000 DDN=0,1,0.4953610000 DDN=1,1,0.5082060000
 CoreKO=0.8822960000 KON=0,0,0,0.8822960000 KON=1,0,1,0.5019540000 KON=0,1,1,0.7875880000
 KON=2,1,1,0.5515580000 EISol=-11.6164441184 EHeat=0.0949133088 Alpha=2.3677360000
 DipHyp=0.9906650029
 GCore=0.0205230000,1.2640290000,1.6023330000
 GCore=0.0056550000,1.9602000000,2.7307880000
 ****
 
 Standard basis: VSTO-6G (5D, 7F)
 Ernie: Thresh=  0.10000D-02 Tol=  0.10000D-05 Strict=F.
  NNHCO=     0 NNPyr=     0 NCTC=     0               EPep=         0.000000000
    EC=        68.514246545  ECS=         2.433055068   EG=         0.379610123
   EHC=         0.000000000  EAt=       -31.051283842  AtH=         1.516354808
 EPDDG=         0.000000000  ECC=        71.326911735 EAtT=        32.567638650
 There are    24 symmetry adapted cartesian basis functions of A   symmetry.
 There are    24 symmetry adapted basis functions of A   symmetry.
    24 basis functions,   144 primitive gaussians,    24 cartesian basis functions
    13 alpha electrons       13 beta electrons
       nuclear repulsion energy       103.8945503855 Hartrees.
 IExCor=    0 DFT=F Ex=HF Corr=None ExCW=0 ScaHFX=  1.000000
 ScaDFX=  1.000000  1.000000  1.000000  1.000000 ScalE2=  1.000000  1.000000
 IRadAn=      0 IRanWt=     -1 IRanGd=            0 ICorTp=0 IEmpDi=  4
 Integral buffers will be    131072 words long.
 Regular integral format.
 Two-electron integral symmetry is turned off.
 Leave Link  301 at Tue Dec 15 17:05:56 2015, MaxMem=    33554432 cpu:         0.0
 (Enter /home/Applications/g09/g09/l302.exe)
 Do NDO integrals.
 NPDir=0 NMtPBC=     1 NCelOv=     1 NCel=       1 NClECP=     1 NCelD=      1
         NCelK=      1 NCelE2=     1 NClLst=     1 CellRange=     0.0.
 One-electron integrals computed using PRISM.
 NBasis=    24 RedAO= F EigKep=  0.00D+00  NBF=    24
 NBsUse=    24 1.00D-04 EigRej=  0.00D+00 NBFU=    24
 Leave Link  302 at Tue Dec 15 17:05:56 2015, MaxMem=    33554432 cpu:         0.0
 (Enter /home/Applications/g09/g09/l308.exe)
 Leave Link  308 at Tue Dec 15 17:05:56 2015, MaxMem=    33554432 cpu:         0.0
 (Enter /home/Applications/g09/g09/l303.exe)
 DipDrv:  MaxL=1.
 Leave Link  303 at Tue Dec 15 17:05:56 2015, MaxMem=    33554432 cpu:         0.0
 (Enter /home/Applications/g09/g09/l401.exe)
 Simple Huckel Guess.
 JPrj=0 DoOrth=F DoCkMO=F.
 Leave Link  401 at Tue Dec 15 17:05:56 2015, MaxMem=    33554432 cpu:         0.0
 (Enter /home/Applications/g09/g09/l502.exe)
 Closed shell SCF:
 Using DIIS extrapolation, IDIIS=  1040.
 Overlap will be assumed to be unity.
 Two-electron integral symmetry not used.
 Keep J ints in memory in canonical form, NReq=888082.
 IVT=       79475 IEndB=       79475 NGot=    33554432 MDV=    33473473
 LenX=    33473473 LenY=    33472456
 Requested convergence on RMS density matrix=1.00D-08 within 128 cycles.
 Requested convergence on MAX density matrix=1.00D-06.
 Requested convergence on             energy=1.00D-06.
 No special actions if energy rises.
 FoFCou: FMM=F IPFlag=           0 FMFlag=           0 FMFlg1=           0
         NFxFlg=           0 DoJE=F BraDBF=F KetDBF=F FulRan=T
         wScrn=  0.000000 ICntrl=     600 IOpCl=  2 I1Cent=           0 NGrid=           0
         NMat0=    1 NMatS0=     54 NMatT0=    0 NMatD0=    1 NMtDS0=    0 NMtDT0=    0
 Symmetry not used in FoFCou.

 Cycle   1  Pass 1  IDiag  1:
 E=  4.96835952406313    
 DIIS: error= 1.16D-01 at cycle   1 NSaved=   1.
 NSaved= 1 IEnMin= 1 EnMin=  4.96835952406313     IErMin= 1 ErrMin= 1.16D-01
 ErrMax= 1.16D-01  0.00D+00 EMaxC= 1.00D-01 BMatC= 4.10D-01 BMatP= 4.10D-01
 IDIUse=3 WtCom= 0.00D+00 WtEn= 1.00D+00
 Coeff-Com:  0.100D+01
 Coeff-En:   0.100D+01
 Coeff:      0.100D+01
 GapD=    2.000 DampG=2.000 DampE=0.250 DampFc=0.5000 IDamp=-1.
 Damping current iteration by 5.00D-01
 RMSDP=6.35D-02 MaxDP=7.10D-01              OVMax= 0.00D+00

 Cycle   2  Pass 1  IDiag  1:
 E=  4.07862728158128     Delta-E=       -0.889732242482 Rises=F Damp=T
 DIIS: error= 6.48D-02 at cycle   2 NSaved=   2.
 NSaved= 2 IEnMin= 2 EnMin=  4.07862728158128     IErMin= 2 ErrMin= 6.48D-02
 ErrMax= 6.48D-02  0.00D+00 EMaxC= 1.00D-01 BMatC= 1.50D-01 BMatP= 4.10D-01
 IDIUse=3 WtCom= 3.52D-01 WtEn= 6.48D-01
 Coeff-Com: -0.115D+01 0.215D+01
 Coeff-En:   0.000D+00 0.100D+01
 Coeff:     -0.406D+00 0.141D+01
 RMSDP=3.79D-02 MaxDP=3.82D-01 DE=-8.90D-01 OVMax= 0.00D+00

 Cycle   3  Pass 1  IDiag  1:
 E=  2.87711150733982     Delta-E=       -1.201515774241 Rises=F Damp=F
 DIIS: error= 1.53D-02 at cycle   3 NSaved=   3.
 NSaved= 3 IEnMin= 3 EnMin=  2.87711150733982     IErMin= 3 ErrMin= 1.53D-02
 ErrMax= 1.53D-02  0.00D+00 EMaxC= 1.00D-01 BMatC= 1.29D-02 BMatP= 1.50D-01
 IDIUse=3 WtCom= 8.47D-01 WtEn= 1.53D-01
 Coeff-Com:  0.401D+00-0.935D+00 0.153D+01
 Coeff-En:   0.000D+00 0.000D+00 0.100D+01
 Coeff:      0.339D+00-0.791D+00 0.145D+01
 RMSDP=1.19D-02 MaxDP=6.13D-02 DE=-1.20D+00 OVMax= 0.00D+00

 Cycle   4  Pass 1  IDiag  3:
 E=  2.82295379390413     Delta-E=       -0.054157713436 Rises=F Damp=F
 DIIS: error= 3.21D-03 at cycle   4 NSaved=   4.
 NSaved= 4 IEnMin= 4 EnMin=  2.82295379390413     IErMin= 4 ErrMin= 3.21D-03
 ErrMax= 3.21D-03  0.00D+00 EMaxC= 1.00D-01 BMatC= 7.44D-04 BMatP= 1.29D-02
 IDIUse=3 WtCom= 9.68D-01 WtEn= 3.21D-02
 Coeff-Com: -0.701D-01 0.143D+00-0.388D+00 0.131D+01
 Coeff-En:   0.000D+00 0.000D+00 0.000D+00 0.100D+01
 Coeff:     -0.679D-01 0.139D+00-0.376D+00 0.130D+01
 Gap=     0.393 Goal=   None    Shift=    0.000
 RMSDP=3.26D-03 MaxDP=1.80D-02 DE=-5.42D-02 OVMax= 3.05D-02

 Cycle   5  Pass 1  IDiag  3:
 E=  2.81960424985827     Delta-E=       -0.003349544046 Rises=F Damp=F
 DIIS: error= 8.15D-04 at cycle   5 NSaved=   5.
 NSaved= 5 IEnMin= 5 EnMin=  2.81960424985827     IErMin= 5 ErrMin= 8.15D-04
 ErrMax= 8.15D-04  0.00D+00 EMaxC= 1.00D-01 BMatC= 2.88D-05 BMatP= 7.44D-04
 IDIUse=3 WtCom= 9.92D-01 WtEn= 8.15D-03
 Coeff-Com:  0.167D-01-0.315D-01 0.874D-01-0.445D+00 0.137D+01
 Coeff-En:   0.000D+00 0.000D+00 0.000D+00 0.000D+00 0.100D+01
 Coeff:      0.165D-01-0.312D-01 0.867D-01-0.441D+00 0.137D+01
 Gap=     0.394 Goal=   None    Shift=    0.000
 RMSDP=7.13D-04 MaxDP=3.75D-03 DE=-3.35D-03 OVMax= 5.44D-03

 Cycle   6  Pass 1  IDiag  3:
 E=  2.81945837510475     Delta-E=       -0.000145874754 Rises=F Damp=F
 DIIS: error= 1.73D-04 at cycle   6 NSaved=   6.
 NSaved= 6 IEnMin= 6 EnMin=  2.81945837510475     IErMin= 6 ErrMin= 1.73D-04
 ErrMax= 1.73D-04  0.00D+00 EMaxC= 1.00D-01 BMatC= 1.19D-06 BMatP= 2.88D-05
 IDIUse=3 WtCom= 9.98D-01 WtEn= 1.73D-03
 Coeff-Com: -0.100D-02 0.218D-02-0.142D-01 0.104D+00-0.497D+00 0.141D+01
 Coeff-En:   0.000D+00 0.000D+00 0.000D+00 0.000D+00 0.000D+00 0.100D+01
 Coeff:     -0.100D-02 0.218D-02-0.142D-01 0.104D+00-0.496D+00 0.141D+01
 Gap=     0.394 Goal=   None    Shift=    0.000
 RMSDP=1.47D-04 MaxDP=1.04D-03 DE=-1.46D-04 OVMax= 1.12D-03

 Cycle   7  Pass 1  IDiag  3:
 E=  2.81945275505663     Delta-E=       -0.000005620048 Rises=F Damp=F
 DIIS: error= 2.08D-05 at cycle   7 NSaved=   7.
 NSaved= 7 IEnMin= 7 EnMin=  2.81945275505663     IErMin= 7 ErrMin= 2.08D-05
 ErrMax= 2.08D-05  0.00D+00 EMaxC= 1.00D-01 BMatC= 2.79D-08 BMatP= 1.19D-06
 IDIUse=1 WtCom= 1.00D+00 WtEn= 0.00D+00
 Coeff-Com:  0.587D-04-0.191D-03 0.464D-02-0.393D-01 0.203D+00-0.646D+00
 Coeff-Com:  0.148D+01
 Coeff:      0.587D-04-0.191D-03 0.464D-02-0.393D-01 0.203D+00-0.646D+00
 Coeff:      0.148D+01
 Gap=     0.394 Goal=   None    Shift=    0.000
 RMSDP=2.09D-05 MaxDP=1.32D-04 DE=-5.62D-06 OVMax= 1.43D-04

 Cycle   8  Pass 1  IDiag  3:
 E=  2.81945263182963     Delta-E=       -0.000000123227 Rises=F Damp=F
 DIIS: error= 2.57D-06 at cycle   8 NSaved=   8.
 NSaved= 8 IEnMin= 8 EnMin=  2.81945263182963     IErMin= 8 ErrMin= 2.57D-06
 ErrMax= 2.57D-06  0.00D+00 EMaxC= 1.00D-01 BMatC= 5.17D-10 BMatP= 2.79D-08
 IDIUse=1 WtCom= 1.00D+00 WtEn= 0.00D+00
 Coeff-Com: -0.244D-04 0.288D-04-0.115D-02 0.110D-01-0.598D-01 0.194D+00
 Coeff-Com: -0.489D+00 0.135D+01
 Coeff:     -0.244D-04 0.288D-04-0.115D-02 0.110D-01-0.598D-01 0.194D+00
 Coeff:     -0.489D+00 0.135D+01
 Gap=     0.394 Goal=   None    Shift=    0.000
 RMSDP=2.48D-06 MaxDP=1.56D-05 DE=-1.23D-07 OVMax= 1.43D-05

 Cycle   9  Pass 1  IDiag  3:
 E=  2.81945262985097     Delta-E=       -0.000000001979 Rises=F Damp=F
 DIIS: error= 5.70D-07 at cycle   9 NSaved=   9.
 NSaved= 9 IEnMin= 9 EnMin=  2.81945262985097     IErMin= 9 ErrMin= 5.70D-07
 ErrMax= 5.70D-07  0.00D+00 EMaxC= 1.00D-01 BMatC= 1.14D-11 BMatP= 5.17D-10
 IDIUse=1 WtCom= 1.00D+00 WtEn= 0.00D+00
 Coeff-Com:  0.494D-05-0.376D-05 0.196D-03-0.188D-02 0.103D-01-0.327D-01
 Coeff-Com:  0.806D-01-0.281D+00 0.122D+01
 Coeff:      0.494D-05-0.376D-05 0.196D-03-0.188D-02 0.103D-01-0.327D-01
 Coeff:      0.806D-01-0.281D+00 0.122D+01
 Gap=     0.394 Goal=   None    Shift=    0.000
 RMSDP=3.89D-07 MaxDP=2.69D-06 DE=-1.98D-09 OVMax= 1.99D-06

 Cycle  10  Pass 1  IDiag  3:
 E=  2.81945262980008     Delta-E=       -0.000000000051 Rises=F Damp=F
 DIIS: error= 1.40D-07 at cycle  10 NSaved=  10.
 NSaved=10 IEnMin=10 EnMin=  2.81945262980008     IErMin=10 ErrMin= 1.40D-07
 ErrMax= 1.40D-07  0.00D+00 EMaxC= 1.00D-01 BMatC= 8.29D-13 BMatP= 1.14D-11
 IDIUse=1 WtCom= 1.00D+00 WtEn= 0.00D+00
 Coeff-Com:  0.553D-06-0.181D-05-0.246D-04 0.224D-03-0.120D-02 0.352D-02
 Coeff-Com: -0.800D-02 0.358D-01-0.383D+00 0.135D+01
 Coeff:      0.553D-06-0.181D-05-0.246D-04 0.224D-03-0.120D-02 0.352D-02
 Coeff:     -0.800D-02 0.358D-01-0.383D+00 0.135D+01
 Gap=     0.394 Goal=   None    Shift=    0.000
 RMSDP=1.26D-07 MaxDP=7.91D-07 DE=-5.09D-11 OVMax= 6.57D-07

 Cycle  11  Pass 1  IDiag  3:
 E=  2.81945262979548     Delta-E=       -0.000000000005 Rises=F Damp=F
 DIIS: error= 3.95D-08 at cycle  11 NSaved=  11.
 NSaved=11 IEnMin=11 EnMin=  2.81945262979548     IErMin=11 ErrMin= 3.95D-08
 ErrMax= 3.95D-08  0.00D+00 EMaxC= 1.00D-01 BMatC= 6.63D-14 BMatP= 8.29D-13
 IDIUse=1 WtCom= 1.00D+00 WtEn= 0.00D+00
 Coeff-Com: -0.173D-06 0.301D-06 0.243D-05-0.232D-05-0.309D-04 0.325D-03
 Coeff-Com: -0.133D-02 0.690D-03 0.122D+00-0.710D+00 0.159D+01
 Coeff:     -0.173D-06 0.301D-06 0.243D-05-0.232D-05-0.309D-04 0.325D-03
 Coeff:     -0.133D-02 0.690D-03 0.122D+00-0.710D+00 0.159D+01
 Gap=     0.394 Goal=   None    Shift=    0.000
 RMSDP=4.44D-08 MaxDP=2.69D-07 DE=-4.60D-12 OVMax= 2.94D-07

 Cycle  12  Pass 1  IDiag  3:
 E=  2.81945262979492     Delta-E=       -0.000000000001 Rises=F Damp=F
 DIIS: error= 8.14D-09 at cycle  12 NSaved=  12.
 NSaved=12 IEnMin=12 EnMin=  2.81945262979492     IErMin=12 ErrMin= 8.14D-09
 ErrMax= 8.14D-09  0.00D+00 EMaxC= 1.00D-01 BMatC= 2.20D-15 BMatP= 6.63D-14
 IDIUse=1 WtCom= 1.00D+00 WtEn= 0.00D+00
 Coeff-Com: -0.310D-07 0.588D-07-0.489D-06-0.510D-05 0.478D-04-0.252D-03
 Coeff-Com:  0.871D-03-0.156D-02-0.424D-01 0.274D+00-0.722D+00 0.149D+01
 Coeff:     -0.310D-07 0.588D-07-0.489D-06-0.510D-05 0.478D-04-0.252D-03
 Coeff:      0.871D-03-0.156D-02-0.424D-01 0.274D+00-0.722D+00 0.149D+01
 Gap=     0.394 Goal=   None    Shift=    0.000
 RMSDP=7.72D-09 MaxDP=5.77D-08 DE=-5.54D-13 OVMax= 7.00D-08

 Cycle  13  Pass 2  IDiag  1:
 SCF Done:  E(RAM1) =   2.81945262979     A.U. after   13 cycles
            NFock= 12  Conv=0.77D-08     -V/T= 1.1911
 KE=-1.475358270948D+01 PE=-1.689481211747D+02 EE= 8.262660612850D+01
 Leave Link  502 at Tue Dec 15 17:05:56 2015, MaxMem=    33554432 cpu:         0.0
 (Enter /home/Applications/g09/g09/l801.exe)
 Range of M.O.s used for correlation:     1    24
 NBasis=    24 NAE=    13 NBE=    13 NFC=     0 NFV=     0
 NROrb=     24 NOA=    13 NOB=    13 NVA=    11 NVB=    11
 Leave Link  801 at Tue Dec 15 17:05:56 2015, MaxMem=    33554432 cpu:         0.0
 (Enter /home/Applications/g09/g09/l914.exe)
 RHF ground state
 MDV=    33554432 DFT=F DoStab=F Mixed=F DoRPA=F DoScal=F NonHer=F
 Making orbital integer symmetry assigments:
 Orbital symmetries:
       Occupied  (A) (A) (A) (A) (A) (A) (A) (A) (A) (A) (A) (A)
                 (A)
       Virtual   (A) (A) (A) (A) (A) (A) (A) (A) (A) (A) (A)
    60 initial guesses have been made.
 Convergence on wavefunction:    0.000001000000000
 Davidson Disk Diagonalization:  ConvIn= 1.00D-06 SkipCon=T Conv= 1.00D-06.
 Max sub-space:   240 roots to seek:    60 dimension of matrix:          286
 Iteration     1 Dimension    60 NMult     0 NNew     60
 CISAX will form    60 AO SS matrices at one time.
 NMat=    60 NSing=    60 JSym2X= 0.
 FoFJK:  IHMeth= 8 ICntrl=       0 DoSepK=F KAlg= 0 I1Cent=   0 FoldK=F
 IRaf=         1 NMat= 120 IRICut=       1 DoRegI=T DoRafI=F ISym2E= 0.
 FoFCou: FMM=F IPFlag=           0 FMFlag=      100000 FMFlg1=           0
         NFxFlg=           0 DoJE=F BraDBF=F KetDBF=F FulRan=T
         wScrn=  0.000000 ICntrl=       0 IOpCl=  0 I1Cent=           0 NGrid=           0
         NMat0=  120 NMatS0=     60 NMatT0=    0 NMatD0=  120 NMtDS0=    0 NMtDT0=    0
 Symmetry not used in FoFCou.
 New state      5 was old state      6
 New state      6 was old state      8
 New state      7 was old state      5
 New state      8 was old state      9
 New state      9 was old state      7
 New state     10 was old state     12
 New state     12 was old state     10
 New state     15 was old state     17
 Excitation Energies [eV] at current iteration:
 Root      1 :     5.267390747135138
 Root      2 :     6.440202873317790
 Root      3 :     6.660966853718386
 Root      4 :     6.694105703321251
 Root      5 :     7.614531685994149
 Root      6 :     7.671130408854483
 Root      7 :     7.912312565895926
 Root      8 :     8.483534646913130
 Root      9 :     8.632332918237960
 Root     10 :     8.959017438310665
 Root     11 :     9.394904439316415
 Root     12 :     9.443844418903300
 Root     13 :     9.707282500111731
 Root     14 :     9.938525397795626
 Root     15 :     9.955008256822131
 Root     16 :    10.182133035622790
 Root     17 :    10.417999369267510
 Root     18 :    10.434022111284910
 Root     19 :    10.678044355859230
 Root     20 :    11.015342177618450
 Root     21 :    11.116279871668550
 Root     22 :    11.313917883893630
 Root     23 :    11.366598403495450
 Root     24 :    11.641279907256640
 Root     25 :    11.692276908106380
 Root     26 :    11.694217605710130
 Root     27 :    12.038476051215840
 Root     28 :    12.190950175149970
 Root     29 :    12.261351070774960
 Root     30 :    12.481060224056250
 Root     31 :    12.702866093368220
 Root     32 :    12.849943817135590
 Root     33 :    12.911911511684210
 Root     34 :    12.996949015701150
 Root     35 :    13.197404055239290
 Root     36 :    13.209065509160600
 Root     37 :    13.487340553785530
 Root     38 :    13.708903581418410
 Root     39 :    13.911727002419540
 Root     40 :    13.935178921238800
 Root     41 :    13.958676953424620
 Root     42 :    13.979668408684220
 Root     43 :    14.104586163234810
 Root     44 :    14.166967368993390
 Root     45 :    14.390379547790810
 Root     46 :    14.442830180452210
 Root     47 :    14.836174024717420
 Root     48 :    14.842974203477770
 Root     49 :    15.232808660828710
 Root     50 :    15.417063410855820
 Root     51 :    15.744020032215140
 Root     52 :    15.795098362187880
 Root     53 :    16.067605323553030
 Root     54 :    16.106300521968900
 Root     55 :    16.203402826669980
 Root     56 :    17.012740747613190
 Root     57 :    17.291536746266990
 Root     58 :    17.480215749355510
 Root     59 :    17.543852721589360
 Root     60 :    17.857692429324720
 Iteration     2 Dimension   120 NMult    60 NNew     60
 CISAX will form    60 AO SS matrices at one time.
 NMat=    60 NSing=    60 JSym2X= 0.
 Root      1 not converged, maximum delta is    0.022208011338511
 Root      2 not converged, maximum delta is    0.019423651927013
 Root      3 not converged, maximum delta is    0.038787131527491
 Root      4 not converged, maximum delta is    0.035308385788920
 Root      5 not converged, maximum delta is    0.076415712355868
 Root      6 not converged, maximum delta is    0.060723325777977
 Root      7 not converged, maximum delta is    0.020841317383817
 Root      8 not converged, maximum delta is    0.027550132617765
 Root      9 not converged, maximum delta is    0.019892302546590
 Root     10 not converged, maximum delta is    0.037850356776411
 New state     11 was old state     12
 Root     11 not converged, maximum delta is    0.213319177229816
 New state     12 was old state     11
 Root     12 not converged, maximum delta is    0.184549654499440
 Root     13 not converged, maximum delta is    0.228266455163542
 New state     14 was old state     15
 Root     14 not converged, maximum delta is    0.385126949565444
 New state     15 was old state     14
 Root     15 not converged, maximum delta is    0.272307146054852
 Excitation Energies [eV] at current iteration:
 Root      1 :     5.186135326996420   Change is   -0.081255420138717
 Root      2 :     6.413159887107651   Change is   -0.027042986210139
 Root      3 :     6.617606104180791   Change is   -0.043360749537594
 Root      4 :     6.660336842055324   Change is   -0.033768861265927
 Root      5 :     7.591390981824411   Change is   -0.023140704169739
 Root      6 :     7.647315794905460   Change is   -0.023814613949024
 Root      7 :     7.887190755824400   Change is   -0.025121810071526
 Root      8 :     8.466147250552556   Change is   -0.017387396360575
 Root      9 :     8.607409214735489   Change is   -0.024923703502472
 Root     10 :     8.902780545805726   Change is   -0.056236892504940
 Root     11 :     9.307513324649557   Change is   -0.136331094253744
 Root     12 :     9.343249558653005   Change is   -0.051654880663408
 Root     13 :     9.513352378113614   Change is   -0.193930121998117
 Root     14 :     9.839450679266415   Change is   -0.115557577555715
 Root     15 :     9.841480342140905   Change is   -0.097045055654722
 Root     16 :    10.130964589912170   Change is   -0.051168445710615
 Root     17 :    10.201851739193530   Change is   -0.216147630073984
 Root     18 :    10.414584775133210   Change is   -0.019437336151702
 Root     19 :    10.537576094120860   Change is   -0.140468261738376
 Root     20 :    10.731437483356190   Change is   -0.283904694262259
 Root     21 :    10.946974213040230   Change is   -0.169305658628323
 Root     22 :    11.016880484950320   Change is   -0.349717918545132
 Root     23 :    11.243930344451410   Change is   -0.069987539442221
 Root     24 :    11.515680681419260   Change is   -0.125599225837376
 Root     25 :    11.619080516013100   Change is   -0.073196392093280
 Root     26 :    11.642331186696470   Change is   -0.051886419013661
 Root     27 :    11.835857055969950   Change is   -0.202618995245889
 Root     28 :    11.897306071053110   Change is   -0.293644104096861
 Root     29 :    12.003532681804210   Change is   -0.257818388970750
 Root     30 :    12.241195859538110   Change is   -0.239864364518143
 Root     31 :    12.474859064934210   Change is   -0.228007028434013
 Root     32 :    12.717860560461360   Change is   -0.132083256674227
 Root     33 :    12.754715603227180   Change is   -0.157195908457022
 Root     34 :    12.851338651987500   Change is   -0.145610363713650
 Root     35 :    13.062366683938650   Change is   -0.146698825221943
 Root     36 :    13.093430353780850   Change is   -0.103973701458438
 Root     37 :    13.237230425229330   Change is   -0.250110128556206
 Root     38 :    13.353166047252160   Change is   -0.582012873986643
 Root     39 :    13.447379268747290   Change is   -0.261524312671123
 Root     40 :    13.744247115759030   Change is   -0.167479886660507
 Root     41 :    13.765646917164640   Change is   -0.214021491519587
 Root     42 :    13.919542048846240   Change is   -0.039134904578382
 Root     43 :    13.978790222785470   Change is   -0.188177146207918
 Root     44 :    13.984851395114040   Change is   -0.119734768120774
 Root     45 :    14.246882895187890   Change is   -0.143496652602918
 Root     46 :    14.348134280584220   Change is   -0.094695899867989
 Root     47 :    14.680743106883500   Change is   -0.162231096594266
 Root     48 :    14.723956749970830   Change is   -0.112217274746590
 Root     49 :    15.012921583150470   Change is   -0.219887077678249
 Root     50 :    15.152490583979950   Change is   -0.264572826875871
 Root     51 :    15.467759948624190   Change is   -0.276260083590953
 Root     52 :    15.556339109999410   Change is   -0.238759252188470
 Root     53 :    15.859156238168420   Change is   -0.208449085384612
 Root     54 :    15.945433413791670   Change is   -0.160867108177232
 Root     55 :    15.975954567332210   Change is   -0.227448259337775
 Root     56 :    16.395519082754750   Change is   -0.617221664858445
 Root     57 :    16.778125584392280
 Root     58 :    16.876208751295640
 Root     59 :    16.942951572453140   Change is   -0.348585173813847
 Root     60 :    17.024850695571660
 Iteration     3 Dimension   135 NMult   120 NNew     15
 CISAX will form    15 AO SS matrices at one time.
 NMat=    15 NSing=    15 JSym2X= 0.
 Root      1 not converged, maximum delta is    0.002106080117183
 Root      2 not converged, maximum delta is    0.000024158489948
 Root      3 not converged, maximum delta is    0.000068616782662
 Root      4 not converged, maximum delta is    0.000096463149566
 Root      5 not converged, maximum delta is    0.000023806376141
 Root      6 not converged, maximum delta is    0.000020976704730
 Root      7 not converged, maximum delta is    0.000032339684593
 Root      8 not converged, maximum delta is    0.000026229315712
 Root      9 not converged, maximum delta is    0.000960982130306
 Root     10 not converged, maximum delta is    0.000065011689019
 Root     11 not converged, maximum delta is    0.004367845787627
 Root     12 not converged, maximum delta is    0.003190731255821
 Root     13 not converged, maximum delta is    0.001770439429516
 Root     14 not converged, maximum delta is    0.083725108137977
 Root     15 not converged, maximum delta is    0.061177143555085
 Excitation Energies [eV] at current iteration:
 Root      1 :     5.185624051273824   Change is   -0.000511275722596
 Root      2 :     6.413159651807078   Change is   -0.000000235300573
 Root      3 :     6.617605733109246   Change is   -0.000000371071545
 Root      4 :     6.660336178458881   Change is   -0.000000663596442
 Root      5 :     7.591390795604293   Change is   -0.000000186220117
 Root      6 :     7.647315646018882   Change is   -0.000000148886577
 Root      7 :     7.887190388840188   Change is   -0.000000366984211
 Root      8 :     8.466146855051690   Change is   -0.000000395500866
 Root      9 :     8.607266496435319   Change is   -0.000142718300169
 Root     10 :     8.902779311917635   Change is   -0.000001233888091
 Root     11 :     9.306471793864443   Change is   -0.001041530785114
 Root     12 :     9.343183760181656   Change is   -0.000065798471349
 Root     13 :     9.512726052631686   Change is   -0.000626325481927
 Root     14 :     9.838905504942035   Change is   -0.000545174324379
 Root     15 :     9.841301292949778   Change is   -0.000179049191126
 Iteration     4 Dimension   143 NMult   135 NNew      8
 CISAX will form     8 AO SS matrices at one time.
 NMat=     8 NSing=     8 JSym2X= 0.
 Root      1 not converged, maximum delta is    0.000127182799741
 Root      2 not converged, maximum delta is    0.000001453064020
 Root      3 not converged, maximum delta is    0.000003356429954
 Root      4 not converged, maximum delta is    0.000004713382141
 Root      5 not converged, maximum delta is    0.000001422217133
 Root      6 not converged, maximum delta is    0.000001633743863
 Root      7 not converged, maximum delta is    0.000002424745787
 Root      8 not converged, maximum delta is    0.000002295661574
 Root      9 not converged, maximum delta is    0.000096460383570
 Root     10 not converged, maximum delta is    0.000006110231220
 Root     11 not converged, maximum delta is    0.000101928972448
 Root     12 not converged, maximum delta is    0.000028051747655
 Root     13 not converged, maximum delta is    0.000178946301081
 Root     14 not converged, maximum delta is    0.000601215194699
 Root     15 not converged, maximum delta is    0.000440619678440
 Excitation Energies [eV] at current iteration:
 Root      1 :     5.185622106413676   Change is   -0.000001944860149
 Root      2 :     6.413159651141898   Change is   -0.000000000665179
 Root      3 :     6.617605731583770   Change is   -0.000000001525477
 Root      4 :     6.660336175097926   Change is   -0.000000003360955
 Root      5 :     7.591390794915492   Change is   -0.000000000688801
 Root      6 :     7.647315645459076   Change is   -0.000000000559806
 Root      7 :     7.887190388074393   Change is   -0.000000000765795
 Root      8 :     8.466146853999113   Change is   -0.000000001052577
 Root      9 :     8.607265674991369   Change is   -0.000000821443951
 Root     10 :     8.902779307819705   Change is   -0.000000004097930
 Root     11 :     9.306469279709516   Change is   -0.000002514154926
 Root     12 :     9.343183575190336   Change is   -0.000000184991321
 Root     13 :     9.512722537826139   Change is   -0.000003514805547
 Root     14 :     9.838900561317015   Change is   -0.000004943625021
 Root     15 :     9.841300174320837   Change is   -0.000001118628942
 Convergence achieved on expansion vectors.
 ***********************************************************************
 Excited states from <AA,BB:AA,BB> singles matrix:
 ***********************************************************************
 
 1PDM for each excited state written to RWF  633
 Ground to excited state transition densities written to RWF  633
 Ground to excited state transition electric dipole moments (Au):
       state          X           Y           Z        Dip. S.      Osc.
         1        -1.6417      0.0731      0.0287      2.7013      0.3432
         2        -0.0128     -0.0012      0.1571      0.0249      0.0039
         3        -0.0160      0.0052      0.1114      0.0127      0.0021
         4        -0.0265      0.0140     -0.0660      0.0052      0.0009
         5         0.0017     -0.0089     -0.1207      0.0146      0.0027
         6        -0.0002     -0.0074     -0.1728      0.0299      0.0056
         7        -0.0031     -0.0017      0.2502      0.0626      0.0121
         8         0.0058     -0.0095      0.0407      0.0018      0.0004
         9        -0.0570     -0.6673     -0.0144      0.4487      0.0946
        10         0.0074      0.0212      0.2051      0.0426      0.0093
        11         0.3345      0.3754      0.1366      0.2715      0.0619
        12         0.1251      0.1003     -0.5782      0.3600      0.0824
        13         0.4890      0.0618      0.0488      0.2453      0.0572
        14        -0.6778      0.3283      0.0081      0.5673      0.1367
        15        -0.3067      0.1625     -0.0255      0.1211      0.0292
 Ground to excited state transition velocity dipole moments (Au):
       state          X           Y           Z        Dip. S.      Osc.
         1         0.1788     -0.0088     -0.0020      0.0321      0.1121
         2         0.0034      0.0036     -0.1555      0.0242      0.0684
         3         0.0024     -0.0016     -0.1137      0.0129      0.0354
         4         0.0066     -0.0041      0.0356      0.0013      0.0036
         5        -0.0004      0.0013      0.0037      0.0000      0.0000
         6         0.0011      0.0026      0.0118      0.0001      0.0003
         7         0.0009      0.0012     -0.0363      0.0013      0.0030
         8        -0.0033      0.0035      0.0126      0.0002      0.0004
         9         0.0192      0.2318      0.0026      0.0541      0.1140
        10        -0.0063     -0.0037      0.0108      0.0002      0.0003
        11        -0.0770     -0.0398      0.0105      0.0076      0.0148
        12        -0.0251     -0.0087     -0.0349      0.0019      0.0037
        13        -0.0574      0.0360     -0.0052      0.0046      0.0088
        14         0.1075      0.0003     -0.0036      0.0116      0.0213
        15         0.0455     -0.0060     -0.0049      0.0021      0.0039
 Ground to excited state transition magnetic dipole moments (Au):
       state          X           Y           Z
         1        -0.0101     -0.0155     -0.5574
         2        -0.1362     -0.2262     -0.0084
         3        -0.1294      0.4076     -0.0061
         4         0.2295      0.6711     -0.0242
         5         0.6598      0.4732      0.0032
         6         0.7045     -0.4660      0.0019
         7        -0.3525      0.1255     -0.0013
         8        -0.0473     -0.1750      0.0148
         9        -0.0097      0.0141      0.0146
        10         0.0237      0.2031      0.0194
        11         0.0196     -0.0560      0.0693
        12        -0.0816      0.1447      0.0259
        13         0.0087     -0.0093      0.0353
        14        -0.0047      0.3436     -0.0913
        15         0.0164     -0.6215     -0.0230
 Ground to excited state transition velocity quadrupole moments (Au):
       state          XX          YY          ZZ          XY          XZ          YZ
         1         0.0369     -0.0269     -0.0018      0.2855     -0.0054     -0.0056
         2        -0.0108      0.0023      0.0025     -0.0021      0.1392     -0.1087
         3         0.0013     -0.0097     -0.0036      0.0043     -0.0979     -0.0746
         4        -0.0043     -0.0126     -0.0034      0.0096      0.2655     -0.0058
         5        -0.0044     -0.0013      0.0014      0.0026     -0.3955      0.0129
         6        -0.0062     -0.0076     -0.0040      0.0022      0.2069     -0.1316
         7        -0.0174     -0.0023      0.0034      0.0044     -0.0687     -0.1972
         8        -0.0034      0.0009      0.0023     -0.0060     -0.0741     -0.0135
         9        -0.2374      0.2995     -0.0203      0.0983     -0.0070      0.0073
        10         0.0038     -0.0040     -0.0036     -0.0151     -0.2170      0.0512
        11         0.1449     -0.0682     -0.0030     -0.1414      0.0346      0.0247
        12         0.0445     -0.0118      0.0048     -0.0463     -0.1164     -0.0915
        13         0.3390      0.1848      0.0489     -0.1808      0.0216      0.0115
        14         0.3602      0.0408      0.0334      0.1718      0.0326      0.0247
        15         0.1831      0.0146      0.0187      0.0692     -0.1427     -0.0221
 <0|del|b> * <b|rxdel|0> + <0|del|b> * <b|delr+rdel|0>
 Rotatory Strengths (R) in cgs (10**-40 erg-esu-cm/Gauss)
       state          XX          YY          ZZ    R(velocity)    E-M Angle
         1         1.1975     -1.9902     -1.1445     -0.6457       90.30
         2         0.4996      0.2001     -0.6097      0.0300       90.00
         3        -0.9100      1.0120     -0.9305     -0.2762       90.34
         4        -3.1708      0.3807     -3.3514     -2.0472       94.71
         5         1.4815     -0.3235     -0.1839      0.3247       83.15
         6        -2.1167      0.7550      0.2683     -0.3644       92.43
         7         0.1477     -0.3539     -0.0883     -0.0982       90.51
         8        -0.2768      0.5266     -0.8680     -0.2061       96.34
         9         5.7952     -0.2968      1.4707      2.3231       53.47
        10        -1.6153     -0.1059      0.2424     -0.4929      104.77
        11         2.9457     -1.2424      1.2870      0.9968       79.53
        12        -1.6143      1.8818     -0.5108     -0.0811       90.92
        13        -0.3630     -2.3026      0.6134     -0.6841      113.44
        14        -0.1805      3.0302     -2.9567     -0.0357       90.00
        15         2.5797      0.1849      6.1835      2.9827       80.83
 1/2[<0|r|b>*<b|rxdel|0> + (<0|rxdel|b>*<b|r|0>)*]
 Rotatory Strengths (R) in cgs (10**-40 erg-esu-cm/Gauss)
       state          XX          YY          ZZ     R(length)
         1       -11.6835      0.8017     11.3216      0.1466
         2        -1.2314     -0.1885      0.9354     -0.1615
         3        -1.4653     -1.5120      0.4802     -0.8323
         4         4.3003     -6.6560     -1.1307     -1.1621
         5        -0.8165      2.9893      0.2754      0.8161
         6         0.0838     -2.4497      0.2377     -0.7094
         7        -0.7851      0.1477      0.2320     -0.1351
         8         0.1955     -1.1795     -0.4254     -0.4698
         9        -0.3917      6.6479      0.1484      2.1348
        10        -0.1231     -3.0425     -2.8127     -1.9927
        11        -4.6341     14.8607     -6.6938      1.1776
        12         7.2158    -10.2615     10.5903      2.5149
        13        -2.9992      0.4061     -1.2192     -1.2708
        14        -2.2384    -79.7893      0.5199    -27.1693
        15         3.5631     71.4051     -0.4152     24.8510
  1/2[<0|del|b>*<b|r|0> + (<0|r|b>*<b|del|0>)*] (Au)
       state          X           Y           Z        Dip. S.   Osc.(frdel)
         1        -0.2935     -0.0006     -0.0001      0.2942      0.1962
         2         0.0000      0.0000     -0.0244      0.0245      0.0163
         3         0.0000      0.0000     -0.0127      0.0127      0.0085
         4        -0.0002     -0.0001     -0.0023      0.0026      0.0017
         5         0.0000      0.0000     -0.0004      0.0005      0.0003
         6         0.0000      0.0000     -0.0020      0.0021      0.0014
         7         0.0000      0.0000     -0.0091      0.0091      0.0060
         8         0.0000      0.0000      0.0005     -0.0005     -0.0003
         9        -0.0011     -0.1547      0.0000      0.1558      0.1039
        10         0.0000     -0.0001      0.0022     -0.0021     -0.0014
        11        -0.0257     -0.0149      0.0014      0.0392      0.0262
        12        -0.0031     -0.0009      0.0202     -0.0162     -0.0108
        13        -0.0281      0.0022     -0.0003      0.0261      0.0174
        14        -0.0729      0.0001      0.0000      0.0728      0.0485
        15        -0.0139     -0.0010      0.0001      0.0148      0.0099

 Excitation energies and oscillator strengths:
 
 Excited State   1:      Singlet-A      5.1856 eV  239.09 nm  f=0.3432  <S**2>=0.000
      13 -> 14         0.69546
 This state for optimization and/or second-order correction.
 Total Energy, E(CIS) =   3.01002074397    
 Copying the excited state density for this state as the 1-particle RhoCI density.
 
 Excited State   2:      Singlet-A      6.4132 eV  193.33 nm  f=0.0039  <S**2>=0.000
      10 -> 15         0.10457
      13 -> 15         0.65180
      13 -> 17         0.17024
      13 -> 18         0.13901
 
 Excited State   3:      Singlet-A      6.6176 eV  187.36 nm  f=0.0021  <S**2>=0.000
      12 -> 14         0.20578
      13 -> 16         0.58667
      13 -> 17         0.21299
      13 -> 18        -0.16734
      13 -> 19         0.10204
 
 Excited State   4:      Singlet-A      6.6603 eV  186.15 nm  f=0.0009  <S**2>=0.000
       9 -> 14        -0.11273
      12 -> 14         0.65976
      13 -> 16        -0.18588
 
 Excited State   5:      Singlet-A      7.5914 eV  163.32 nm  f=0.0027  <S**2>=0.000
      11 -> 14         0.33715
      13 -> 16         0.21207
      13 -> 17        -0.26733
      13 -> 18         0.32833
      13 -> 19         0.16773
      13 -> 20         0.10899
      13 -> 21        -0.31414
 
 Excited State   6:      Singlet-A      7.6473 eV  162.13 nm  f=0.0056  <S**2>=0.000
      10 -> 14        -0.13629
      11 -> 14         0.56315
      13 -> 18        -0.25656
      13 -> 20        -0.14737
      13 -> 21         0.21784
 
 Excited State   7:      Singlet-A      7.8872 eV  157.20 nm  f=0.0121  <S**2>=0.000
      11 -> 14         0.17663
      13 -> 15        -0.17641
      13 -> 16        -0.11062
      13 -> 17         0.57773
      13 -> 18         0.21996
      13 -> 21        -0.13308
 
 Excited State   8:      Singlet-A      8.4661 eV  146.45 nm  f=0.0004  <S**2>=0.000
      13 -> 16        -0.15446
      13 -> 18        -0.19563
      13 -> 19         0.63443
 
 Excited State   9:      Singlet-A      8.6073 eV  144.05 nm  f=0.0946  <S**2>=0.000
      10 -> 14         0.66163
      11 -> 14         0.15773
      12 -> 15         0.11476
 
 Excited State  10:      Singlet-A      8.9028 eV  139.26 nm  f=0.0093  <S**2>=0.000
      13 -> 18         0.42652
      13 -> 19         0.18702
      13 -> 20        -0.21062
      13 -> 21         0.47747
 
 Excited State  11:      Singlet-A      9.3065 eV  133.22 nm  f=0.0619  <S**2>=0.000
       8 -> 15        -0.10546
      11 -> 17        -0.19710
      12 -> 15         0.43824
      12 -> 16        -0.24942
      12 -> 18         0.28383
      12 -> 21        -0.11466
      13 -> 20        -0.15449
 
 Excited State  12:      Singlet-A      9.3432 eV  132.70 nm  f=0.0824  <S**2>=0.000
      12 -> 15         0.13766
      13 -> 20         0.61145
      13 -> 21         0.27921
 
 Excited State  13:      Singlet-A      9.5127 eV  130.34 nm  f=0.0572  <S**2>=0.000
       9 -> 15         0.15297
      11 -> 15         0.23025
      11 -> 17         0.22060
      12 -> 15         0.43728
      12 -> 16         0.17703
      12 -> 17         0.19826
      12 -> 18        -0.13046
      12 -> 19        -0.14785
      12 -> 20        -0.12711
 
 Excited State  14:      Singlet-A      9.8389 eV  126.01 nm  f=0.1367  <S**2>=0.000
       9 -> 14        -0.29731
      11 -> 16        -0.33131
      11 -> 17        -0.13983
      12 -> 16         0.44888
      12 -> 19         0.14588
 
 Excited State  15:      Singlet-A      9.8413 eV  125.98 nm  f=0.0292  <S**2>=0.000
       9 -> 14         0.61446
      11 -> 16        -0.16494
      12 -> 14         0.10791
      12 -> 16         0.21583
 SavETr:  write IOETrn=   770 NScale= 10 NData=  16 NLR=1 NState=   15 LETran=     280.
 The selected state is a singlet
 CISAX will form     1 AO SS matrices at one time.
 NMat=     1 NSing=     1 JSym2X= 0.
 Leave Link  914 at Tue Dec 15 17:05:56 2015, MaxMem=    33554432 cpu:         0.1
 (Enter /home/Applications/g09/g09/l1002.exe)
 Minotr:  Closed shell wavefunction.
          Computing CIS/TD-HF/TD-KS derivatives.
          Using Z-Vector for PSCF gradient.
          Skipping F1 and S1 gradient terms here.
          IDoAtm=111111111
          Direct CPHF calculation.
          Differentiating once with respect to electric field.
                with respect to dipole field.
          Differentiating once with respect to nuclear coordinates.
          Electric field/nuclear overlap derivatives assumed to be zero.
          Requested convergence is 1.0D-10 RMS, and 1.0D-09 maximum.
          NewPWx=T KeepS1=F KeepF1=F KeepIn=T MapXYZ=F SortEE=F KeepMc=T.
          MDV=      33495423 using IRadAn=       0.
 Keep J ints in memory in canonical form, NReq=871704.
 FoFCou: FMM=F IPFlag=           0 FMFlag=           0 FMFlg1=           0
         NFxFlg=           0 DoJE=F BraDBF=F KetDBF=F FulRan=T
         wScrn=  0.000000 ICntrl=     600 IOpCl=  2 I1Cent=           0 NGrid=           0
         NMat0=    1 NMatS0=     54 NMatT0=    0 NMatD0=    1 NMtDS0=    0 NMtDT0=    0
 Symmetry not used in FoFCou.
          Solving linear equations separately, MaxMat=       0.
          There are     1 degrees of freedom in the 1st order CPHF.  IDoFFX=0 NUNeed=     1.
 LinEq1:  Iter=  0 NonCon=     1 RMS=6.69D-03 Max=5.01D-02 NDo=     1
 AX will form     1 AO Fock derivatives at one time.
 LinEq1:  Iter=  1 NonCon=     1 RMS=5.10D-04 Max=2.00D-03 NDo=     1
 LinEq1:  Iter=  2 NonCon=     1 RMS=5.81D-05 Max=4.09D-04 NDo=     1
 LinEq1:  Iter=  3 NonCon=     1 RMS=7.23D-06 Max=4.12D-05 NDo=     1
 LinEq1:  Iter=  4 NonCon=     1 RMS=1.34D-06 Max=8.35D-06 NDo=     1
 LinEq1:  Iter=  5 NonCon=     1 RMS=1.61D-07 Max=4.85D-07 NDo=     1
 LinEq1:  Iter=  6 NonCon=     1 RMS=2.07D-08 Max=7.51D-08 NDo=     1
 LinEq1:  Iter=  7 NonCon=     1 RMS=2.44D-09 Max=9.06D-09 NDo=     1
 LinEq1:  Iter=  8 NonCon=     1 RMS=2.78D-10 Max=9.73D-10 NDo=     1
 LinEq1:  Iter=  9 NonCon=     0 RMS=3.06D-11 Max=1.22D-10 NDo=     1
 Linear equations converged to 1.000D-10 1.000D-09 after     9 iterations.
 End of Minotr F.D. properties file   721 does not exist.
 End of Minotr F.D. properties file   722 does not exist.
 End of Minotr F.D. properties file   788 does not exist.
 Leave Link 1002 at Tue Dec 15 17:05:56 2015, MaxMem=    33554432 cpu:         0.0
 (Enter /home/Applications/g09/g09/l601.exe)
 Copying SCF densities to generalized density rwf, IOpCl= 0 IROHF=0.

 **********************************************************************

            Population analysis using the SCF density.

 **********************************************************************

 Orbital symmetries:
       Occupied  (A) (A) (A) (A) (A) (A) (A) (A) (A) (A) (A) (A)
                 (A)
       Virtual   (A) (A) (A) (A) (A) (A) (A) (A) (A) (A) (A)
 The electronic state is 1-A.
 Alpha  occ. eigenvalues --   -1.72342  -1.11160  -0.93302  -0.79483  -0.74897
 Alpha  occ. eigenvalues --   -0.65988  -0.64021  -0.55358  -0.50185  -0.43688
 Alpha  occ. eigenvalues --   -0.43375  -0.40066  -0.28559
 Alpha virt. eigenvalues --    0.10824   0.17796   0.19222   0.24020   0.26748
 Alpha virt. eigenvalues --    0.27498   0.29341   0.29381   0.36990   0.45389
 Alpha virt. eigenvalues --    0.50454
     Molecular Orbital Coefficients:
                           1         2         3         4         5
                           O         O         O         O         O
     Eigenvalues --    -1.72342  -1.11160  -0.93302  -0.79483  -0.74897
   1 1   C  1S          0.11736   0.49464   0.22486   0.26743  -0.12227
   2        1PX         0.06054   0.14494  -0.23744  -0.20632  -0.23214
   3        1PY        -0.13869  -0.10076  -0.13952   0.05955  -0.28086
   4        1PZ        -0.00130  -0.00582  -0.00283  -0.00352   0.00350
   5 2   C  1S          0.29151   0.20552   0.55054  -0.16466   0.32916
   6        1PX         0.26346   0.12353  -0.07777  -0.08910  -0.23788
   7        1PY        -0.14425   0.33445  -0.04248   0.50723   0.00136
   8        1PZ         0.00246   0.00193   0.00416   0.00026   0.00496
   9 3   O  1S          0.77819  -0.32554  -0.03582   0.05159  -0.22208
  10        1PX        -0.00514   0.01517  -0.23710   0.27385   0.05589
  11        1PY         0.07584   0.15024   0.02198  -0.03388   0.08028
  12        1PZ        -0.00040   0.00002  -0.00021   0.00092   0.00121
  13 4   C  1S          0.25169   0.18372  -0.48890   0.08215   0.47274
  14        1PX        -0.26286  -0.08366   0.01620  -0.20562   0.17533
  15        1PY        -0.08650   0.30284   0.02076  -0.46750  -0.13066
  16        1PZ         0.00159   0.00065  -0.00364   0.00262   0.00600
  17 5   C  1S          0.10636   0.46309  -0.26469  -0.28942  -0.12323
  18        1PX        -0.07497  -0.17022  -0.16168  -0.24672   0.20286
  19        1PY        -0.11771  -0.08380   0.12671   0.00108  -0.31710
  20        1PZ         0.00040   0.00070  -0.00080   0.00110   0.00113
  21 6   H  1S          0.00749   0.13996  -0.13177  -0.21908  -0.09328
  22 7   H  1S          0.04601   0.00569  -0.21150   0.04416   0.32501
  23 8   H  1S          0.06192   0.01087   0.28322  -0.10819   0.26998
  24 9   H  1S          0.00715   0.15278   0.10172   0.19324  -0.11391
                           6         7         8         9        10
                           O         O         O         O         O
     Eigenvalues --    -0.65988  -0.64021  -0.55358  -0.50185  -0.43688
   1 1   C  1S         -0.21033   0.01791   0.13776  -0.04852   0.02300
   2        1PX         0.10614  -0.00048  -0.03686  -0.36586  -0.02920
   3        1PY        -0.34347   0.01088  -0.01192  -0.24131   0.08884
   4        1PZ         0.02261   0.41830  -0.00778  -0.00110  -0.16470
   5 2   C  1S         -0.02291  -0.00415   0.07594  -0.09253  -0.03333
   6        1PX         0.41495  -0.01529   0.56068  -0.01654  -0.01022
   7        1PY         0.02536   0.00090   0.02524   0.50558  -0.03724
   8        1PZ         0.02918   0.61509  -0.00326   0.01557  -0.60514
   9 3   O  1S         -0.24570   0.01448  -0.00724   0.31313   0.02854
  10        1PX        -0.00466  -0.00283  -0.16556  -0.00653  -0.02461
  11        1PY         0.22177  -0.01174   0.01141  -0.12548  -0.01589
  12        1PZ         0.00844   0.23354  -0.00307   0.00302   0.00480
  13 4   C  1S         -0.06240  -0.00537  -0.03597  -0.14199   0.01161
  14        1PX        -0.29475   0.02276   0.60496   0.13074   0.04102
  15        1PY         0.08551  -0.00297  -0.16616   0.41261   0.11526
  16        1PZ         0.01806   0.49904  -0.00776  -0.01732   0.68499
  17 5   C  1S         -0.23600   0.01058  -0.11499  -0.02720  -0.03162
  18        1PX        -0.13407   0.00455  -0.01189   0.39152  -0.03910
  19        1PY        -0.29947   0.01791   0.09565  -0.13850  -0.13471
  20        1PZ         0.01697   0.37502  -0.00602  -0.01415   0.26376
  21 6   H  1S         -0.29767   0.01252  -0.01733   0.09899  -0.10934
  22 7   H  1S         -0.20070   0.01255   0.34981  -0.11814   0.00292
  23 8   H  1S         -0.24247   0.00438  -0.29199  -0.14255  -0.00174
  24 9   H  1S         -0.30403   0.00796   0.07521  -0.04171   0.08117
                          11        12        13        14        15
                           O         O         O         V         V
     Eigenvalues --    -0.43375  -0.40066  -0.28559   0.10824   0.17796
   1 1   C  1S         -0.09981   0.04619   0.01085  -0.01320  -0.13725
   2        1PX         0.11239   0.42843  -0.00793   0.00777   0.15342
   3        1PY        -0.37662  -0.27851   0.00436  -0.00459   0.22218
   4        1PZ        -0.04373   0.00448   0.59244  -0.66561   0.00171
   5 2   C  1S          0.12588  -0.12333   0.00336   0.00181  -0.17298
   6        1PX         0.03555  -0.30654   0.00489  -0.00169   0.40218
   7        1PY         0.20545   0.16506   0.00358   0.00251   0.30530
   8        1PZ        -0.16453   0.00002  -0.35686   0.22056   0.00454
   9 3   O  1S         -0.06452   0.20503   0.00061  -0.00003   0.01455
  10        1PX         0.08786  -0.01500   0.00053   0.00014   0.03906
  11        1PY         0.03831  -0.21287  -0.00024   0.00020   0.11315
  12        1PZ        -0.00004  -0.00169  -0.20375   0.00596   0.00200
  13 4   C  1S         -0.08818  -0.14899   0.00248   0.00065  -0.02895
  14        1PX        -0.11373   0.34752  -0.00069   0.00185   0.01225
  15        1PY        -0.37723   0.04993   0.00004  -0.00448   0.07246
  16        1PZ         0.18259  -0.02420  -0.39123  -0.22454  -0.00102
  17 5   C  1S          0.11089   0.07907  -0.00139   0.00197  -0.11770
  18        1PX         0.15652  -0.40378   0.01256   0.00809   0.09249
  19        1PY         0.48366  -0.10274   0.00001  -0.00006   0.05289
  20        1PZ         0.06681  -0.00112   0.57155   0.67628  -0.00140
  21 6   H  1S          0.39260  -0.21983   0.00223  -0.00293  -0.05049
  22 7   H  1S         -0.00685   0.13329  -0.00298  -0.00550   0.05720
  23 8   H  1S          0.00497   0.11848  -0.00041  -0.00098   0.75568
  24 9   H  1S         -0.32889  -0.32667  -0.00053   0.01029  -0.02249
                          16        17        18        19        20
                           V         V         V         V         V
     Eigenvalues --     0.19222   0.24020   0.26748   0.27498   0.29341
   1 1   C  1S         -0.10658  -0.07602  -0.11339  -0.02998   0.51050
   2        1PX        -0.13444  -0.04854   0.59536  -0.03042  -0.08606
   3        1PY         0.04166   0.41503   0.03446  -0.48675  -0.02680
   4        1PZ        -0.00285  -0.00333   0.01121   0.00581  -0.01285
   5 2   C  1S          0.02404   0.32118   0.30337  -0.26236  -0.19123
   6        1PX        -0.07443  -0.02631  -0.13229   0.00959   0.05685
   7        1PY         0.02361   0.19221   0.18138  -0.14342  -0.20209
   8        1PZ         0.00149   0.00285  -0.00073  -0.00394   0.00124
   9 3   O  1S          0.01535   0.04122   0.02039   0.00645  -0.04475
  10        1PX        -0.02090  -0.00255   0.04507  -0.02837  -0.00776
  11        1PY         0.10041  -0.00879   0.03055   0.02057  -0.12102
  12        1PZ        -0.00196   0.00084   0.00360   0.00002  -0.00561
  13 4   C  1S         -0.14402   0.36653  -0.11110   0.33117  -0.12846
  14        1PX        -0.35736   0.12079  -0.06581   0.07216  -0.13513
  15        1PY         0.36910   0.16573  -0.01599   0.19763  -0.10384
  16        1PZ        -0.00596   0.00114  -0.00012   0.00045   0.00155
  17 5   C  1S         -0.08596  -0.00304  -0.10743  -0.06130   0.21373
  18        1PX        -0.15855  -0.05496   0.45492  -0.04390   0.46502
  19        1PY         0.27871   0.37730   0.01632   0.50287   0.05781
  20        1PZ         0.00667   0.00013  -0.01069  -0.00171  -0.00284
  21 6   H  1S         -0.05160  -0.31218  -0.27289  -0.28529  -0.45359
  22 7   H  1S          0.73412  -0.25602   0.08904  -0.14609   0.10431
  23 8   H  1S         -0.09294  -0.15313  -0.18164   0.09150   0.07702
  24 9   H  1S         -0.07866  -0.41084   0.36654   0.38317  -0.31676
                          21        22        23        24
                           V         V         V         V
     Eigenvalues --     0.29381   0.36990   0.45389   0.50454
   1 1   C  1S         -0.45817   0.00399   0.07112   0.01954
   2        1PX        -0.26297  -0.00414  -0.04022  -0.03621
   3        1PY        -0.01200   0.00064   0.03563  -0.03644
   4        1PZ         0.01092   0.02888  -0.00131  -0.00075
   5 2   C  1S          0.09217  -0.00102  -0.13717   0.16965
   6        1PX         0.08199   0.00083  -0.22322   0.13032
   7        1PY         0.11000  -0.00372  -0.01968  -0.20733
   8        1PZ         0.00000  -0.22626  -0.00005   0.00165
   9 3   O  1S         -0.01235  -0.00048   0.15690  -0.01063
  10        1PX         0.00497  -0.00042   0.10414   0.90202
  11        1PY        -0.02998   0.00808   0.89477  -0.10407
  12        1PZ        -0.00128   0.95061  -0.00838   0.00111
  13 4   C  1S         -0.20179  -0.00048  -0.13757  -0.15513
  14        1PX         0.01145  -0.00092   0.22502   0.15412
  15        1PY        -0.22034  -0.00268  -0.03451   0.18075
  16        1PZ         0.00076  -0.20868   0.00044  -0.00145
  17 5   C  1S          0.65478   0.00287   0.06801  -0.01718
  18        1PX        -0.10853   0.00165   0.04269  -0.03307
  19        1PY        -0.02526   0.00042   0.02030   0.03446
  20        1PZ        -0.00144   0.02470  -0.00060   0.00043
  21 6   H  1S         -0.35487  -0.00212  -0.05260  -0.00460
  22 7   H  1S          0.02952   0.00090  -0.04445  -0.01302
  23 8   H  1S          0.02099  -0.00028  -0.03983   0.01809
  24 9   H  1S          0.18566  -0.00333  -0.05416   0.00760
     Density Matrix:
                           1         2         3         4         5
   1 1   C  1S          0.94822
   2        1PX        -0.00646   1.04217
   3        1PY         0.12420  -0.09794   1.07011
   4        1PZ         0.00778  -0.00066   0.00059   1.11131
   5 2   C  1S          0.35218  -0.26969  -0.45393  -0.00545   1.22563
   6        1PX         0.10480   0.05656  -0.10182  -0.00213   0.14609
   7        1PY         0.46872  -0.28696  -0.47116  -0.00643  -0.23692
   8        1PZ         0.00790  -0.00505  -0.00579   0.30679  -0.00331
   9 3   O  1S          0.03103  -0.02257  -0.05174  -0.00072   0.00064
  10        1PX        -0.02319   0.00174   0.01380   0.00058  -0.30745
  11        1PY         0.03212  -0.01579  -0.11199  -0.00127   0.27227
  12        1PZ        -0.00065   0.00019  -0.00246  -0.04720  -0.00459
  13 4   C  1S         -0.01635   0.00763   0.03746   0.00176   0.00560
  14        1PX         0.04545   0.00663  -0.01290  -0.00103  -0.02274
  15        1PY         0.03385   0.00077  -0.00228  -0.00246  -0.05561
  16        1PZ        -0.00654   0.00136  -0.00137  -0.28687   0.00097
  17 5   C  1S          0.29369   0.52227   0.03080  -0.00318  -0.01609
  18        1PX        -0.49504  -0.59681  -0.03942   0.01377  -0.00336
  19        1PY         0.07875   0.10732   0.13208  -0.00025   0.03715
  20        1PZ         0.01783   0.00330   0.00510   0.89911   0.00118
  21 6   H  1S         -0.00578   0.00965  -0.00250  -0.00060   0.08050
  22 7   H  1S          0.07193   0.06912  -0.01396  -0.00349   0.04497
  23 8   H  1S          0.07416  -0.02745  -0.09057  -0.00096   0.53101
  24 9   H  1S          0.52194  -0.42814   0.69732  -0.01422   0.06571
                           6         7         8         9        10
   6        1PX         1.47532
   7        1PY        -0.13099   1.43899
   8        1PZ        -0.00287  -0.00642   1.80021
   9 3   O  1S          0.07795  -0.04461  -0.00038   1.94102
  10        1PX        -0.21074   0.32752  -0.00363  -0.01584   0.34125
  11        1PY         0.37641  -0.12583   0.00322  -0.30172  -0.00647
  12        1PZ        -0.00565   0.00244   0.42754   0.00282  -0.00009
  13 4   C  1S          0.01210  -0.05840   0.00136  -0.00131   0.33545
  14        1PX        -0.00171   0.02314  -0.00065  -0.07675  -0.33237
  15        1PY        -0.01723   0.01721  -0.00074  -0.02906  -0.29503
  16        1PZ        -0.00018   0.00009   0.00464  -0.00011   0.00231
  17 5   C  1S         -0.04236   0.03637   0.00066   0.02508   0.02543
  18        1PX         0.01295  -0.00571  -0.00360   0.01357   0.00143
  19        1PY         0.01112  -0.00815   0.00049  -0.04944  -0.02874
  20        1PZ         0.00175  -0.00001  -0.28717   0.00025   0.00042
  21 6   H  1S          0.03724   0.06119   0.00121   0.01064   0.02435
  22 7   H  1S          0.04299  -0.01683   0.00035   0.01890   0.04268
  23 8   H  1S         -0.71424  -0.27357  -0.00521   0.02001  -0.06550
  24 9   H  1S          0.05385  -0.01560   0.00105   0.01044  -0.02412
                          11        12        13        14        15
  11        1PY         0.29725
  12        1PZ        -0.00184   0.19235
  13 4   C  1S          0.20579  -0.00328   1.24369
  14        1PX        -0.33045   0.00249  -0.17356   1.51046
  15        1PY        -0.03368   0.00342  -0.21444   0.12818   1.39703
  16        1PZ         0.00423   0.39943  -0.00247  -0.00349   0.00207
  17 5   C  1S          0.01859   0.00069   0.31993  -0.04567   0.44619
  18        1PX         0.00670  -0.00168   0.20728   0.08302   0.21749
  19        1PY        -0.09968   0.00016  -0.50175   0.03276  -0.54688
  20        1PZ        -0.00058  -0.05496  -0.00169   0.00056   0.00034
  21 6   H  1S          0.00685  -0.00030   0.06373  -0.04433   0.00032
  22 7   H  1S         -0.06046   0.00132   0.54144   0.66949  -0.36851
  23 8   H  1S         -0.05276  -0.00108   0.05119  -0.05238  -0.01617
  24 9   H  1S          0.00853   0.00003   0.08584  -0.03134   0.06738
                          16        17        18        19        20
  16        1PZ         1.81198
  17 5   C  1S         -0.00092   0.96819
  18        1PX         0.00148   0.02291   1.04681
  19        1PY         0.00221   0.13461   0.09067   1.03689
  20        1PZ         0.31410  -0.00130   0.00335  -0.00129   1.08373
  21 6   H  1S         -0.00003   0.54936   0.53098   0.60248  -0.00577
  22 7   H  1S          0.00714   0.06171   0.01265  -0.08591  -0.00013
  23 8   H  1S         -0.00008   0.07879  -0.07526  -0.00614   0.00160
  24 9   H  1S          0.00369   0.00430  -0.02591   0.00658  -0.00484
                          21        22        23        24
  21 6   H  1S          0.81398
  22 7   H  1S         -0.00231   0.69811
  23 8   H  1S          0.00493   0.01029   0.69443
  24 9   H  1S         -0.00940   0.00500  -0.00698   0.81086
    Full Mulliken population analysis:
                           1         2         3         4         5
   1 1   C  1S          0.94822
   2        1PX         0.00000   1.04217
   3        1PY         0.00000   0.00000   1.07011
   4        1PZ         0.00000   0.00000   0.00000   1.11131
   5 2   C  1S          0.00000   0.00000   0.00000   0.00000   1.22563
   6        1PX         0.00000   0.00000   0.00000   0.00000   0.00000
   7        1PY         0.00000   0.00000   0.00000   0.00000   0.00000
   8        1PZ         0.00000   0.00000   0.00000   0.00000   0.00000
   9 3   O  1S          0.00000   0.00000   0.00000   0.00000   0.00000
  10        1PX         0.00000   0.00000   0.00000   0.00000   0.00000
  11        1PY         0.00000   0.00000   0.00000   0.00000   0.00000
  12        1PZ         0.00000   0.00000   0.00000   0.00000   0.00000
  13 4   C  1S          0.00000   0.00000   0.00000   0.00000   0.00000
  14        1PX         0.00000   0.00000   0.00000   0.00000   0.00000
  15        1PY         0.00000   0.00000   0.00000   0.00000   0.00000
  16        1PZ         0.00000   0.00000   0.00000   0.00000   0.00000
  17 5   C  1S          0.00000   0.00000   0.00000   0.00000   0.00000
  18        1PX         0.00000   0.00000   0.00000   0.00000   0.00000
  19        1PY         0.00000   0.00000   0.00000   0.00000   0.00000
  20        1PZ         0.00000   0.00000   0.00000   0.00000   0.00000
  21 6   H  1S          0.00000   0.00000   0.00000   0.00000   0.00000
  22 7   H  1S          0.00000   0.00000   0.00000   0.00000   0.00000
  23 8   H  1S          0.00000   0.00000   0.00000   0.00000   0.00000
  24 9   H  1S          0.00000   0.00000   0.00000   0.00000   0.00000
                           6         7         8         9        10
   6        1PX         1.47532
   7        1PY         0.00000   1.43899
   8        1PZ         0.00000   0.00000   1.80021
   9 3   O  1S          0.00000   0.00000   0.00000   1.94102
  10        1PX         0.00000   0.00000   0.00000   0.00000   0.34125
  11        1PY         0.00000   0.00000   0.00000   0.00000   0.00000
  12        1PZ         0.00000   0.00000   0.00000   0.00000   0.00000
  13 4   C  1S          0.00000   0.00000   0.00000   0.00000   0.00000
  14        1PX         0.00000   0.00000   0.00000   0.00000   0.00000
  15        1PY         0.00000   0.00000   0.00000   0.00000   0.00000
  16        1PZ         0.00000   0.00000   0.00000   0.00000   0.00000
  17 5   C  1S          0.00000   0.00000   0.00000   0.00000   0.00000
  18        1PX         0.00000   0.00000   0.00000   0.00000   0.00000
  19        1PY         0.00000   0.00000   0.00000   0.00000   0.00000
  20        1PZ         0.00000   0.00000   0.00000   0.00000   0.00000
  21 6   H  1S          0.00000   0.00000   0.00000   0.00000   0.00000
  22 7   H  1S          0.00000   0.00000   0.00000   0.00000   0.00000
  23 8   H  1S          0.00000   0.00000   0.00000   0.00000   0.00000
  24 9   H  1S          0.00000   0.00000   0.00000   0.00000   0.00000
                          11        12        13        14        15
  11        1PY         0.29725
  12        1PZ         0.00000   0.19235
  13 4   C  1S          0.00000   0.00000   1.24369
  14        1PX         0.00000   0.00000   0.00000   1.51046
  15        1PY         0.00000   0.00000   0.00000   0.00000   1.39703
  16        1PZ         0.00000   0.00000   0.00000   0.00000   0.00000
  17 5   C  1S          0.00000   0.00000   0.00000   0.00000   0.00000
  18        1PX         0.00000   0.00000   0.00000   0.00000   0.00000
  19        1PY         0.00000   0.00000   0.00000   0.00000   0.00000
  20        1PZ         0.00000   0.00000   0.00000   0.00000   0.00000
  21 6   H  1S          0.00000   0.00000   0.00000   0.00000   0.00000
  22 7   H  1S          0.00000   0.00000   0.00000   0.00000   0.00000
  23 8   H  1S          0.00000   0.00000   0.00000   0.00000   0.00000
  24 9   H  1S          0.00000   0.00000   0.00000   0.00000   0.00000
                          16        17        18        19        20
  16        1PZ         1.81198
  17 5   C  1S          0.00000   0.96819
  18        1PX         0.00000   0.00000   1.04681
  19        1PY         0.00000   0.00000   0.00000   1.03689
  20        1PZ         0.00000   0.00000   0.00000   0.00000   1.08373
  21 6   H  1S          0.00000   0.00000   0.00000   0.00000   0.00000
  22 7   H  1S          0.00000   0.00000   0.00000   0.00000   0.00000
  23 8   H  1S          0.00000   0.00000   0.00000   0.00000   0.00000
  24 9   H  1S          0.00000   0.00000   0.00000   0.00000   0.00000
                          21        22        23        24
  21 6   H  1S          0.81398
  22 7   H  1S          0.00000   0.69811
  23 8   H  1S          0.00000   0.00000   0.69443
  24 9   H  1S          0.00000   0.00000   0.00000   0.81086
     Gross orbital populations:
                           1
   1 1   C  1S          0.94822
   2        1PX         1.04217
   3        1PY         1.07011
   4        1PZ         1.11131
   5 2   C  1S          1.22563
   6        1PX         1.47532
   7        1PY         1.43899
   8        1PZ         1.80021
   9 3   O  1S          1.94102
  10        1PX         0.34125
  11        1PY         0.29725
  12        1PZ         0.19235
  13 4   C  1S          1.24369
  14        1PX         1.51046
  15        1PY         1.39703
  16        1PZ         1.81198
  17 5   C  1S          0.96819
  18        1PX         1.04681
  19        1PY         1.03689
  20        1PZ         1.08373
  21 6   H  1S          0.81398
  22 7   H  1S          0.69811
  23 8   H  1S          0.69443
  24 9   H  1S          0.81086
          Condensed to atoms (all electrons):
               1          2          3          4          5          6
     1  C    4.171811   0.000000   0.000000   0.000000   0.000000   0.000000
     2  C    0.000000   5.940144   0.000000   0.000000   0.000000   0.000000
     3  O    0.000000   0.000000   2.771875   0.000000   0.000000   0.000000
     4  C    0.000000   0.000000   0.000000   5.963163   0.000000   0.000000
     5  C    0.000000   0.000000   0.000000   0.000000   4.135622   0.000000
     6  H    0.000000   0.000000   0.000000   0.000000   0.000000   0.813983
     7  H    0.000000   0.000000   0.000000   0.000000   0.000000   0.000000
     8  H    0.000000   0.000000   0.000000   0.000000   0.000000   0.000000
     9  H    0.000000   0.000000   0.000000   0.000000   0.000000   0.000000
               7          8          9
     1  C    0.000000   0.000000   0.000000
     2  C    0.000000   0.000000   0.000000
     3  O    0.000000   0.000000   0.000000
     4  C    0.000000   0.000000   0.000000
     5  C    0.000000   0.000000   0.000000
     6  H    0.000000   0.000000   0.000000
     7  H    0.698109   0.000000   0.000000
     8  H    0.000000   0.694432   0.000000
     9  H    0.000000   0.000000   0.810862
 Mulliken charges:
               1
     1  C   -0.171811
     2  C   -1.940144
     3  O    3.228125
     4  C   -1.963163
     5  C   -0.135622
     6  H    0.186017
     7  H    0.301891
     8  H    0.305568
     9  H    0.189138
 Sum of Mulliken charges =   0.00000
 Mulliken charges with hydrogens summed into heavy atoms:
               1
     1  C    0.017327
     2  C   -1.634575
     3  O    3.228125
     4  C   -1.661272
     5  C    0.050395
 Charge=              0.0000 electrons
 Dipole moment (field-independent basis, Debye):
    X=             -1.1601    Y=            -10.0012    Z=              0.0835  Tot=             10.0686
 N-N= 1.038945503855D+02 E-N=-1.689481212149D+02  KE=-1.475358270948D+01
 Orbital energies and kinetic energies (alpha):
                                 1                 2
   1         O                -1.723418         -1.217422
   2         O                -1.111604         -0.968009
   3         O                -0.933021         -0.843617
   4         O                -0.794831         -0.602933
   5         O                -0.748975         -0.679358
   6         O                -0.659881         -0.561490
   7         O                -0.640209         -0.520633
   8         O                -0.553582         -0.402542
   9         O                -0.501853         -0.297449
  10         O                -0.436877         -0.334756
  11         O                -0.433745         -0.407468
  12         O                -0.400665         -0.281002
  13         O                -0.285586         -0.260111
  14         V                 0.108235         -0.172457
  15         V                 0.177963         -0.196986
  16         V                 0.192216         -0.197826
  17         V                 0.240196         -0.167469
  18         V                 0.267485         -0.128462
  19         V                 0.274983         -0.124450
  20         V                 0.293405         -0.146555
  21         V                 0.293812         -0.154245
  22         V                 0.369895          0.489231
  23         V                 0.453891          0.513640
  24         V                 0.504540          0.580933
 Total kinetic energy from orbitals=-1.475358270948D+01
 Leave Link  601 at Tue Dec 15 17:05:56 2015, MaxMem=    33554432 cpu:         0.0
 (Enter /home/Applications/g09/g09/l701.exe)
 Compute integral first derivatives.
 ... and contract with generalized density number  6.
 Leave Link  701 at Tue Dec 15 17:05:56 2015, MaxMem=    33554432 cpu:         0.0
 (Enter /home/Applications/g09/g09/l702.exe)
 L702 exits ... SP integral derivatives will be done elsewhere.
 Leave Link  702 at Tue Dec 15 17:05:56 2015, MaxMem=    33554432 cpu:         0.0
 (Enter /home/Applications/g09/g09/l703.exe)
 Compute integral first derivatives, UseDBF=F ICtDFT=           0.
 Integral derivatives from FoFJK, PRISM(SPDF).
 Calling FoFJK, ICntrl=  10005127 FMM=F ISym2X=0 I1Cent= 0 IOpClX= 0 NMat=1 NMatS=1 NMatT=0.
 FoFJK:  IHMeth= 8 ICntrl=10005127 DoSepK=F KAlg= 0 I1Cent=   0 FoldK=F
 IRaf=         0 NMat=   1 IRICut=       1 DoRegI=T DoRafI=F ISym2E= 0.
 FoFCou: FMM=F IPFlag=           0 FMFlag=      100000 FMFlg1=         800
         NFxFlg=           0 DoJE=F BraDBF=F KetDBF=F FulRan=T
         wScrn=  0.000000 ICntrl=10005127 IOpCl=  0 I1Cent=           0 NGrid=           0
         NMat0=    1 NMatS0=      1 NMatT0=    0 NMatD0=    1 NMtDS0=    0 NMtDT0=    0
 Symmetry not used in FoFCou.
 Leave Link  703 at Tue Dec 15 17:05:56 2015, MaxMem=    33554432 cpu:         0.0
 (Enter /home/Applications/g09/g09/l716.exe)
 Dipole        =-4.55921613D-01-4.34415963D+00 2.42600466D-02
 ***** Axes restored to original set *****
 -------------------------------------------------------------------
 Center     Atomic                   Forces (Hartrees/Bohr)
 Number     Number              X              Y              Z
 -------------------------------------------------------------------
      1        6           0.271184889   -0.031786741   -0.001470017
      2        6          -0.293568056   -0.105057535    0.000262688
      3        8           0.050651700    0.067301598    0.001774594
      4        6          -0.243888532    0.052306057   -0.001349773
      5        6           0.134730184    0.052887653   -0.001818547
      6        1           0.059722332    0.038405057    0.000943419
      7        1           0.001487978    0.049559207    0.000245224
      8        1          -0.017708800   -0.094674218    0.001317246
      9        1           0.037388304   -0.028941079    0.000095166
 -------------------------------------------------------------------
 Cartesian Forces:  Max     0.293568056 RMS     0.102027304
 Z-matrix is all fixed cartesians, so copy forces.
 Force constants in Cartesian coordinates: 
                1             2             3             4             5 
      1  0.991160D+00
      2  0.313846D-01  0.766388D+00
      3  0.658975D-03 -0.438209D-02  0.222993D+00
      4 -0.599888D+00 -0.136300D+00  0.800996D-02  0.105302D+01
      5 -0.109739D+00 -0.238170D+00  0.323965D-02  0.412208D-01  0.964492D+00
      6  0.966052D-02  0.283777D-02 -0.128672D+00 -0.558986D-02 -0.845124D-02
      7 -0.942033D-02  0.311130D-01 -0.512525D-03 -0.301725D+00  0.188103D+00
      8 -0.668811D-02  0.220963D-01 -0.213188D-03  0.232537D+00 -0.420805D+00
      9  0.603616D-03 -0.126373D-02  0.922866D-02 -0.351524D-02  0.463682D-02
     10  0.107939D-01 -0.438805D-03 -0.306535D-04  0.254484D-01  0.180883D-01
     11  0.334052D-01 -0.136116D-02 -0.261341D-03 -0.170671D-01 -0.121317D-01
     12  0.571380D-03 -0.131076D-03 -0.155727D-02  0.344206D-03  0.322632D-03
     13 -0.166600D+00  0.208232D-02 -0.809815D-03  0.106787D-01 -0.353321D-01
     14 -0.221408D-01 -0.390997D+00 -0.266903D-02 -0.433417D-03  0.143311D-02
     15 -0.807060D-03 -0.513858D-02 -0.788085D-01 -0.235542D-03  0.939112D-03
     16  0.188877D-01 -0.770943D-03  0.174026D-04  0.000000D+00  0.000000D+00
     17 -0.216447D-01  0.886309D-03 -0.325290D-03  0.000000D+00  0.000000D+00
     18 -0.651391D-03 -0.136154D-03  0.175550D-01  0.820289D-04 -0.438452D-04
     19  0.000000D+00  0.000000D+00  0.481903D-04  0.000000D+00  0.000000D+00
     20  0.000000D+00 -0.137942D-05  0.150823D-03  0.000000D+00  0.000000D+00
     21 -0.188173D-04 -0.565633D-04  0.618453D-02 -0.466395D-04  0.118806D-04
     22  0.814296D-02 -0.269030D-01  0.277766D-03 -0.182536D+00 -0.118786D+00
     23 -0.452901D-02  0.149739D-01  0.526485D-04 -0.112643D+00 -0.319001D+00
     24 -0.113761D-04  0.200785D-02  0.378656D-01  0.189857D-03  0.148740D-03
     25 -0.253076D+00  0.998334D-01 -0.765930D-02 -0.499634D-02  0.164455D-01
     26  0.999526D-01 -0.173815D+00  0.440782D-02 -0.731246D-02  0.241820D-01
     27 -0.100058D-01  0.626257D-02 -0.847889D-01  0.761227D-03 -0.803747D-03
                6             7             8             9            10 
      6  0.235081D+00
      7 -0.274507D-02  0.524963D+00
      8  0.424741D-02 -0.513013D-01  0.747886D+00
      9 -0.503706D-01  0.481190D-02 -0.301788D-02  0.582409D-01
     10  0.317370D-03 -0.248262D+00 -0.182554D+00 -0.237348D-02  0.837091D+00
     11 -0.191682D-03 -0.138117D+00 -0.351871D+00 -0.134895D-02 -0.394966D-01
     12 -0.962835D-03 -0.193956D-02 -0.120637D-02 -0.442304D-01  0.416145D-02
     13 -0.615695D-03 -0.929739D-02  0.623222D-02 -0.688307D-04 -0.458550D+00
     14  0.270308D-04 -0.287715D-01  0.192951D-01  0.147988D-03  0.105863D+00
     15 -0.194625D-02 -0.282940D-03  0.790085D-05  0.520858D-02  0.644873D-03
     16 -0.320924D-04  0.000000D+00  0.000000D+00 -0.220768D-04 -0.607474D-02
     17 -0.391880D-04  0.000000D+00  0.000000D+00 -0.668905D-04  0.696285D-02
     18  0.436863D-02 -0.707297D-05 -0.204543D-04  0.530111D-02  0.130919D-03
     19 -0.839031D-04  0.212190D-01 -0.142321D-01  0.560623D-03 -0.160448D+00
     20  0.368696D-04  0.114944D-01 -0.771005D-02  0.396820D-03  0.915751D-01
     21  0.408058D-02  0.280678D-03 -0.210207D-03  0.462499D-02 -0.277528D-02
     22  0.442049D-03  0.225232D-01  0.160066D-01  0.281982D-04  0.000000D+00
     23  0.134368D-02 -0.125252D-01 -0.890109D-02  0.480753D-05  0.000000D+00
     24 -0.944925D-01  0.310362D-03  0.261892D-03  0.374583D-02 -0.649510D-04
     25 -0.135332D-02  0.000000D+00  0.000000D+00 -0.247114D-04  0.000000D+00
     26  0.189347D-03  0.521639D-05  0.934553D-05  0.511006D-03  0.000000D+00
     27  0.329136D-01  0.842268D-04  0.150898D-03  0.825099D-02 -0.102467D-04
               11            12            13            14            15 
     11  0.829034D+00
     12 -0.280973D-02  0.177654D+00
     13  0.830199D-01 -0.116758D-03  0.850876D+00
     14 -0.208183D+00 -0.129526D-03  0.423859D-01  0.787851D+00
     15 -0.641245D-03 -0.923886D-01  0.332243D-02  0.568336D-02  0.191244D+00
     16 -0.188012D-01 -0.368047D-03 -0.250624D+00 -0.120801D+00 -0.233438D-02
     17  0.215498D-01  0.299341D-04 -0.125688D+00 -0.221730D+00 -0.228920D-02
     18  0.411298D-03  0.225409D-01 -0.242582D-02 -0.254779D-02 -0.747826D-01
     19  0.970555D-01 -0.245957D-02  0.792804D-02  0.245369D-01 -0.596493D-03
     20 -0.277038D+00  0.390353D-02  0.429088D-02  0.132802D-01  0.209588D-03
     21  0.485591D-02 -0.701064D-01 -0.821669D-04 -0.247149D-03  0.264055D-01
     22  0.000000D+00 -0.249575D-04  0.287147D-05 -0.153483D-05  0.152927D-03
     23  0.000000D+00  0.449668D-04  0.000000D+00  0.000000D+00 -0.356573D-04
     24  0.165452D-04  0.568268D-02  0.169556D-03 -0.906295D-04  0.903010D-02
     25  0.153785D-05 -0.168145D-03  0.155857D-01 -0.637295D-03  0.136185D-03
     26  0.000000D+00 -0.243571D-04  0.230098D-01 -0.950725D-03  0.126472D-02
     27 -0.308008D-04  0.336770D-02  0.627106D-03 -0.174261D-03  0.160375D-01
               16            17            18            19            20 
     16  0.237813D+00
     17  0.140372D+00  0.199291D+00
     18  0.265854D-02  0.252218D-02  0.400183D-01
     19  0.000000D+00  0.000000D+00 -0.723854D-04  0.131300D+00
     20  0.000000D+00  0.285862D-05 -0.226547D-03 -0.107360D+00  0.271466D+00
     21  0.386871D-04  0.117218D-03 -0.928963D-02  0.260354D-02 -0.447108D-02
     22  0.000000D+00  0.000000D+00  0.000000D+00  0.000000D+00  0.000000D+00
     23  0.000000D+00  0.000000D+00  0.000000D+00  0.000000D+00  0.000000D+00
     24  0.000000D+00  0.000000D+00  0.000000D+00  0.000000D+00  0.000000D+00
     25 -0.209496D-05 -0.255816D-05  0.285180D-03  0.000000D+00  0.000000D+00
     26  0.000000D+00  0.000000D+00  0.413105D-04  0.000000D+00  0.000000D+00
     27  0.419589D-04  0.512361D-04 -0.571173D-02  0.000000D+00  0.000000D+00
               21            22            23            24            25 
     21  0.381004D-01
     22  0.000000D+00  0.151866D+00
     23  0.000000D+00  0.129699D+00  0.312925D+00
     24  0.000000D+00 -0.635905D-03 -0.146642D-02  0.523445D-01
     25  0.000000D+00  0.000000D+00  0.000000D+00  0.424573D-04  0.242488D+00
     26  0.000000D+00 -0.148686D-04  0.346686D-05 -0.877972D-03 -0.115640D+00
     27  0.000000D+00 -0.240077D-03  0.559778D-04 -0.141762D-01  0.874165D-02
               26            27 
     26  0.150571D+00
     27 -0.551187D-02  0.441070D-01
 Leave Link  716 at Tue Dec 15 17:05:56 2015, MaxMem=    33554432 cpu:         0.0
 (Enter /home/Applications/g09/g09/l103.exe)

 GradGradGradGradGradGradGradGradGradGradGradGradGradGradGradGradGradGrad
 Berny optimization.
 Search for a local minimum.
 Step number   1 out of a maximum of    2
 All quantities printed in internal units (Hartrees-Bohrs-Radians)
 Second derivative matrix not updated -- first step.
 ITU=  0
     Eigenvalues ---    0.01779   0.03330   0.06886   0.07213   0.07882
     Eigenvalues ---    0.08688   0.12843   0.14567   0.16453   0.23778
     Eigenvalues ---    0.25992   0.31148   0.42021   0.43202   0.62128
     Eigenvalues ---    0.81096   1.03826   1.30042   1.42185   1.52691
     Eigenvalues ---    1.78026
 Quadratic step=1.251D+00 exceeds max=3.000D-01 adjusted using Lamda=-8.639D-01.
 Angle between NR and scaled steps=  28.33 degrees.
 Angle between quadratic step and forces=  22.14 degrees.
 Linear search not attempted -- first point.
 TrRot= -0.004390  0.003437 -0.000155 -0.000118  0.000018 -0.000118
 Variable       Old X    -DE/DX   Delta X   Delta X   Delta X     New X
                                 (Linear)    (Quad)   (Total)
    X1        1.73769   0.27118   0.00000   0.12315   0.11842   1.85611
    Y1       -1.40432  -0.03179   0.00000  -0.04209  -0.03909  -1.44341
    Z1       -0.04324  -0.00147   0.00000   0.00022   0.00003  -0.04321
    X2       -0.63638  -0.29357   0.00000  -0.12428  -0.12918  -0.76556
    Y2       -2.12251  -0.10506   0.00000  -0.06560  -0.06198  -2.18449
    Z2       -0.00587   0.00026   0.00000  -0.00143  -0.00157  -0.00744
    X3       -2.09957   0.05065   0.00000   0.00883   0.00444  -2.09513
    Y3       -0.06359   0.06730   0.00000   0.03545   0.03938  -0.02421
    Z3       -0.02859   0.00177   0.00000   0.00150   0.00138  -0.02721
    X4       -0.63348  -0.24389   0.00000  -0.12143  -0.12531  -0.75880
    Y4        2.12263   0.05231   0.00000   0.04254   0.04616   2.16879
    Z4       -0.01820  -0.00135   0.00000  -0.00077  -0.00091  -0.01911
    X5        1.84889   0.13473   0.00000   0.07024   0.06617   1.91506
    Y5        1.32056   0.05289   0.00000   0.04378   0.04676   1.36732
    Z5       -0.01798  -0.00182   0.00000  -0.00165  -0.00184  -0.01982
    X6        3.38649   0.05972   0.00000   0.06896   0.06521   3.45169
    Y6        2.66160   0.03841   0.00000   0.04558   0.04820   2.70980
    Z6        0.00534   0.00094   0.00000   0.00118   0.00096   0.00630
    X7       -1.62894   0.00149   0.00000  -0.01517  -0.01861  -1.64755
    Y7        3.96118   0.04956   0.00000   0.06000   0.06383   4.02501
    Z7       -0.05528   0.00025   0.00000   0.00014   0.00002  -0.05526
    X8       -1.61011  -0.01771   0.00000  -0.03391  -0.03924  -1.64935
    Y8       -3.87327  -0.09467   0.00000  -0.10672  -0.10289  -3.97616
    Z8        0.00371   0.00132   0.00000   0.00119   0.00107   0.00477
    X9        3.47912   0.03739   0.00000   0.06311   0.05810   3.53722
    Y9       -2.58601  -0.02894   0.00000  -0.04296  -0.04036  -2.62637
    Z9        0.03516   0.00010   0.00000   0.00110   0.00088   0.03604
         Item               Value     Threshold  Converged?
 Maximum Force            0.293568     0.000450     NO 
 RMS     Force            0.102027     0.000300     NO 
 Maximum Displacement     0.129183     0.001800     NO 
 RMS     Displacement     0.057795     0.001200     NO 
 Predicted change in Energy=-1.129249D-01
 GradGradGradGradGradGradGradGradGradGradGradGradGradGradGradGradGradGrad

 Leave Link  103 at Tue Dec 15 17:05:56 2015, MaxMem=    33554432 cpu:         0.0
 (Enter /home/Applications/g09/g09/l9999.exe)
 1\1\GINC-DUSTIN-DESKTOP\Force\RAM1-FC\STO-3G\C4H4O1\DUSTIN\15-Dec-2015
 \0\\#P AM1(Input,print) CIS(Singlets,NStates=15) pop(full) force\\AM1-
 Reparam Input\\0,1\C,0.919546,-0.743135,-0.022882\C,-0.336756,-1.12318
 6,-0.003107\O,-1.111042,-0.03365,-0.015129\C,-0.335225,1.123247,-0.009
 63\C,0.97839,0.698811,-0.009515\H,1.792051,1.408458,0.002828\H,-0.8619
 99,2.096164,-0.029252\H,-0.852033,-2.049644,0.001961\H,1.84107,-1.3684
 6,0.018606\\Version=ES64L-G09RevD.01\State=1-A\HF=2.8194526\RMSD=7.723
 e-09\RMSF=1.020e-01\Dipole=-4.3652784,-0.1535787,-0.0305669\PG=C01 [X(
 C4H4O1)]\\@


 DEMOCRATS BUY MOST OF THE BOOKS THAT HAVE BEEN
 BANNED; REPUBLICANS FORM CENSORSHIP COMMITTEES AND
 READ THEM AS A GROUP.
 Job cpu time:       0 days  0 hours  0 minutes  0.7 seconds.
 File lengths (MBytes):  RWF=      7 Int=      0 D2E=      0 Chk=      2 Scr=      1
 Normal termination of Gaussian 09 at Tue Dec 15 17:05:56 2015.
