 Entering Gaussian System, Link 0=g09
 Input=FuranAM1_5.com
 Output=FuranAM1_5.log
 Initial command:
 /home/Applications/g09/g09/l1.exe "/home/Applications/g09/scratch/Gau-5463.inp" -scrdir="/home/Applications/g09/scratch/"
 Entering Link 1 = /home/Applications/g09/g09/l1.exe PID=      5465.
  
 Copyright (c) 1988,1990,1992,1993,1995,1998,2003,2009,2013,
            Gaussian, Inc.  All Rights Reserved.
  
 This is part of the Gaussian(R) 09 program.  It is based on
 the Gaussian(R) 03 system (copyright 2003, Gaussian, Inc.),
 the Gaussian(R) 98 system (copyright 1998, Gaussian, Inc.),
 the Gaussian(R) 94 system (copyright 1995, Gaussian, Inc.),
 the Gaussian 92(TM) system (copyright 1992, Gaussian, Inc.),
 the Gaussian 90(TM) system (copyright 1990, Gaussian, Inc.),
 the Gaussian 88(TM) system (copyright 1988, Gaussian, Inc.),
 the Gaussian 86(TM) system (copyright 1986, Carnegie Mellon
 University), and the Gaussian 82(TM) system (copyright 1983,
 Carnegie Mellon University). Gaussian is a federally registered
 trademark of Gaussian, Inc.
  
 This software contains proprietary and confidential information,
 including trade secrets, belonging to Gaussian, Inc.
  
 This software is provided under written license and may be
 used, copied, transmitted, or stored only in accord with that
 written license.
  
 The following legend is applicable only to US Government
 contracts under FAR:
  
                    RESTRICTED RIGHTS LEGEND
  
 Use, reproduction and disclosure by the US Government is
 subject to restrictions as set forth in subparagraphs (a)
 and (c) of the Commercial Computer Software - Restricted
 Rights clause in FAR 52.227-19.
  
 Gaussian, Inc.
 340 Quinnipiac St., Bldg. 40, Wallingford CT 06492
  
  
 ---------------------------------------------------------------
 Warning -- This program may not be used in any manner that
 competes with the business of Gaussian, Inc. or will provide
 assistance to any competitor of Gaussian, Inc.  The licensee
 of this program is prohibited from giving any competitor of
 Gaussian, Inc. access to this program.  By using this program,
 the user acknowledges that Gaussian, Inc. is engaged in the
 business of creating and licensing software in the field of
 computational chemistry and represents and warrants to the
 licensee that it is not a competitor of Gaussian, Inc. and that
 it will not use this program in any manner prohibited above.
 ---------------------------------------------------------------
  

 Cite this work as:
 Gaussian 09, Revision D.01,
 M. J. Frisch, G. W. Trucks, H. B. Schlegel, G. E. Scuseria, 
 M. A. Robb, J. R. Cheeseman, G. Scalmani, V. Barone, B. Mennucci, 
 G. A. Petersson, H. Nakatsuji, M. Caricato, X. Li, H. P. Hratchian, 
 A. F. Izmaylov, J. Bloino, G. Zheng, J. L. Sonnenberg, M. Hada, 
 M. Ehara, K. Toyota, R. Fukuda, J. Hasegawa, M. Ishida, T. Nakajima, 
 Y. Honda, O. Kitao, H. Nakai, T. Vreven, J. A. Montgomery, Jr., 
 J. E. Peralta, F. Ogliaro, M. Bearpark, J. J. Heyd, E. Brothers, 
 K. N. Kudin, V. N. Staroverov, T. Keith, R. Kobayashi, J. Normand, 
 K. Raghavachari, A. Rendell, J. C. Burant, S. S. Iyengar, J. Tomasi, 
 M. Cossi, N. Rega, J. M. Millam, M. Klene, J. E. Knox, J. B. Cross, 
 V. Bakken, C. Adamo, J. Jaramillo, R. Gomperts, R. E. Stratmann, 
 O. Yazyev, A. J. Austin, R. Cammi, C. Pomelli, J. W. Ochterski, 
 R. L. Martin, K. Morokuma, V. G. Zakrzewski, G. A. Voth, 
 P. Salvador, J. J. Dannenberg, S. Dapprich, A. D. Daniels, 
 O. Farkas, J. B. Foresman, J. V. Ortiz, J. Cioslowski, 
 and D. J. Fox, Gaussian, Inc., Wallingford CT, 2013.
 
 ******************************************
 Gaussian 09:  ES64L-G09RevD.01 24-Apr-2013
                15-Dec-2015 
 ******************************************
 ------------------------------------------------------------
 #P AM1(Input,print) CIS(Singlets,NStates=15) pop(full) force
 ------------------------------------------------------------
 1/10=7,30=1,38=1/1,3;
 2/12=2,17=6,18=5,40=1/2;
 3/5=2,16=1,25=1,41=700000,71=1,135=100,136=1/1,2,8,3;
 4/35=1/1;
 5/5=2,35=1,38=5/2;
 8/6=1,10=1,108=15/1;
 9/15=2,41=15,42=1,48=1,49=10/14;
 10/5=4/2;
 6/7=3,18=1/1;
 7/12=6,13=5,29=1/1,2,3,16;
 1/10=7,30=1/3;
 99//99;
 Leave Link    1 at Tue Dec 15 16:11:16 2015, MaxMem=           0 cpu:         0.0
 (Enter /home/Applications/g09/g09/l101.exe)
 -----------------
 AM1-Reparam Input
 -----------------
 Symbolic Z-matrix:
 Charge =  0 Multiplicity = 1
 6                     0.92548  -0.7422    0.04123 
 6                    -0.30817  -1.05025   0.02744 
 8                    -1.16592   0.02183   0.04876 
 6                    -0.3009    1.04356   0.03502 
 6                     1.00357   0.67103  -0.0335 
 1                     1.80874   1.38577   0.02463 
 1                    -0.84149   2.02975   0.03805 
 1                    -0.81662  -2.07206  -0.01555 
 1                     1.85961  -1.40758   0.00716 
 
 NAtoms=      9 NQM=        9 NQMF=       0 NMMI=      0 NMMIF=      0
                NMic=       0 NMicF=      0.
                    Isotopes and Nuclear Properties:
 (Nuclear quadrupole moments (NQMom) in fm**2, nuclear magnetic moments (NMagM)
  in nuclear magnetons)

  Atom         1           2           3           4           5           6           7           8           9
 IAtWgt=          12          12          16          12          12           1           1           1           1
 AtmWgt=  12.0000000  12.0000000  15.9949146  12.0000000  12.0000000   1.0078250   1.0078250   1.0078250   1.0078250
 NucSpn=           0           0           0           0           0           1           1           1           1
 AtZEff=   0.0000000   0.0000000   0.0000000   0.0000000   0.0000000   0.0000000   0.0000000   0.0000000   0.0000000
 NQMom=    0.0000000   0.0000000   0.0000000   0.0000000   0.0000000   0.0000000   0.0000000   0.0000000   0.0000000
 NMagM=    0.0000000   0.0000000   0.0000000   0.0000000   0.0000000   2.7928460   2.7928460   2.7928460   2.7928460
 AtZNuc=   6.0000000   6.0000000   8.0000000   6.0000000   6.0000000   1.0000000   1.0000000   1.0000000   1.0000000
 Leave Link  101 at Tue Dec 15 16:11:16 2015, MaxMem=    33554432 cpu:         0.0
 (Enter /home/Applications/g09/g09/l103.exe)

 GradGradGradGradGradGradGradGradGradGradGradGradGradGradGradGradGradGrad
 Berny optimization.
 Initialization pass.
 Trust Radius=3.00D-01 FncErr=1.00D-07 GrdErr=1.00D-07
 Number of steps in this run=      2 maximum allowed number of steps=      2.
 GradGradGradGradGradGradGradGradGradGradGradGradGradGradGradGradGradGrad

 Leave Link  103 at Tue Dec 15 16:11:16 2015, MaxMem=    33554432 cpu:         0.0
 (Enter /home/Applications/g09/g09/l202.exe)
                          Input orientation:                          
 ---------------------------------------------------------------------
 Center     Atomic      Atomic             Coordinates (Angstroms)
 Number     Number       Type             X           Y           Z
 ---------------------------------------------------------------------
      1          6           0        0.925481   -0.742195    0.041232
      2          6           0       -0.308167   -1.050251    0.027437
      3          8           0       -1.165924    0.021831    0.048762
      4          6           0       -0.300895    1.043558    0.035020
      5          6           0        1.003571    0.671026   -0.033497
      6          1           0        1.808737    1.385769    0.024626
      7          1           0       -0.841488    2.029751    0.038051
      8          1           0       -0.816617   -2.072056   -0.015549
      9          1           0        1.859608   -1.407578    0.007160
 ---------------------------------------------------------------------
                    Distance matrix (angstroms):
                    1          2          3          4          5
     1  C    0.000000
     2  C    1.271604   0.000000
     3  O    2.226604   1.373158   0.000000
     4  C    2.166322   2.093835   1.338802   0.000000
     5  C    1.417348   2.164986   2.266038   1.358347   0.000000
     6  H    2.304050   3.227303   3.272540   2.137233   1.078206
     7  H    3.287229   3.125853   2.033990   1.124645   2.292487
     8  H    2.192410   1.142127   2.123797   3.158414   3.292097
     9  H    1.147383   2.197121   3.346459   3.267509   2.248343
                    6          7          8          9
     6  H    0.000000
     7  H    2.727377   0.000000
     8  H    4.341734   4.102233   0.000000
     9  H    2.793865   4.371739   2.757576   0.000000
 Stoichiometry    C4H4O
 Framework group  C1[X(C4H4O)]
 Deg. of freedom    21
 Full point group                 C1      NOp   1
 Largest Abelian subgroup         C1      NOp   1
 Largest concise Abelian subgroup C1      NOp   1
                         Standard orientation:                         
 ---------------------------------------------------------------------
 Center     Atomic      Atomic             Coordinates (Angstroms)
 Number     Number       Type             X           Y           Z
 ---------------------------------------------------------------------
      1          6           0       -1.130919    0.287243   -0.029313
      2          6           0       -0.637332   -0.884118    0.006210
      3          8           0        0.735099   -0.927321   -0.005206
      4          6           0        1.033423    0.377811   -0.009964
      5          6           0       -0.047682    1.198774    0.038390
      6          1           0        0.041450    2.270713   -0.035986
      7          1           0        2.146735    0.537052   -0.008008
      8          1           0       -1.150029   -1.903191    0.061767
      9          1           0       -2.223890    0.635741   -0.008065
 ---------------------------------------------------------------------
 Rotational constants (GHZ):      9.9718092      9.2503721      4.8019160
 Leave Link  202 at Tue Dec 15 16:11:16 2015, MaxMem=    33554432 cpu:         0.0
 (Enter /home/Applications/g09/g09/l301.exe)

 Semi-emprical parameters in input format:
 Method=8 CoreType=1 PeptideFC=0.0114510000 RIJScale=0.5291770000
 ****
 H       
 PQN=1 NValence=1 F0ss=0.4721550000 ZetaOverlap=1.1880780000 U=-0.4188110000
 Beta=-0.2268830000 CoreKO=1.0589200000 KON=0,0,0,1.0589200000 KON=1,0,1,1.0589200000
 KON=0,1,1,1.0589200000 KON=2,1,1,1.0589200000 EISol=-0.4188110042 EHeat=0.0830298228
 Alpha=1.5252600000
 GCore=0.0085280000,1.4001430000,2.2676710000
 GCore=0.0003530000,1.4001430000,3.4015070000
 GCore=-0.0012730000,0.5600570000,3.9684250000
 ****
 C       
 PQN=2,2 NValence=4 F0ss=0.4494440000 F0sp=0.4215150000 F0pp=0.3768030000 F2pp=0.1898720000
 G1sp=0.2679030000
 ZetaOverlap=1.8086650000,1.6851160000
 U=-1.9120180000,-1.4557970000
 Beta=-0.5775440000,-0.2836780000 DDN=0,1,0.8236740000 DDN=1,1,0.7268010000
 CoreKO=1.1124280000 KON=0,0,0,1.1124280000 KON=1,0,1,0.8219700000 KON=0,1,1,1.1124280000
 KON=2,1,1,0.7783930000 EISol=-4.4398989268 EHeat=0.2723305520 Alpha=1.4014060000
 DipHyp=1.6472532266
 GCore=0.0007890000,1.4001430000,3.0235620000
 GCore=0.0031890000,1.4001430000,3.4959930000
 GCore=-0.0013930000,1.4001430000,3.8739390000
 GCore=-0.0000880000,1.4001430000,5.0077740000
 ****
 O       
 PQN=2,2 NValence=6 F0ss=0.5666750000 F0sp=0.5321300000 F0pp=0.4958710000 F2pp=0.2358080000
 G1sp=0.4343770000
 ZetaOverlap=3.1080320000,2.5240390000
 U=-3.5951870000,-2.8760900000
 Beta=-1.0757550000,-1.0757550000 DDN=0,1,0.4988900000 DDN=1,1,0.4852320000
 CoreKO=0.8822960000 KON=0,0,0,0.8822960000 KON=1,0,1,0.5019540000 KON=0,1,1,0.8822960000
 KON=2,1,1,0.5515580000 EISol=-11.6164441184 EHeat=0.0949133088 Alpha=2.3576810000
 DipHyp=0.9977225968
 GCore=0.0195120000,1.4001430000,1.6023330000
 GCore=0.0056550000,1.9602000000,2.7307880000
 ****
 
 Standard basis: VSTO-6G (5D, 7F)
 Ernie: Thresh=  0.10000D-02 Tol=  0.10000D-05 Strict=F.
  NNHCO=     0 NNPyr=     0 NCTC=     0               EPep=         0.000000000
    EC=        69.113049103  ECS=         1.862390995   EG=         0.364105591
   EHC=         0.000000000  EAt=       -31.051283842  AtH=         1.516354808
 EPDDG=         0.000000000  ECC=        71.339545689 EAtT=        32.567638650
 There are    24 symmetry adapted cartesian basis functions of A   symmetry.
 There are    24 symmetry adapted basis functions of A   symmetry.
    24 basis functions,   144 primitive gaussians,    24 cartesian basis functions
    13 alpha electrons       13 beta electrons
       nuclear repulsion energy       103.9071843398 Hartrees.
 IExCor=    0 DFT=F Ex=HF Corr=None ExCW=0 ScaHFX=  1.000000
 ScaDFX=  1.000000  1.000000  1.000000  1.000000 ScalE2=  1.000000  1.000000
 IRadAn=      0 IRanWt=     -1 IRanGd=            0 ICorTp=0 IEmpDi=  4
 Integral buffers will be    131072 words long.
 Regular integral format.
 Two-electron integral symmetry is turned off.
 Leave Link  301 at Tue Dec 15 16:11:16 2015, MaxMem=    33554432 cpu:         0.0
 (Enter /home/Applications/g09/g09/l302.exe)
 Do NDO integrals.
 NPDir=0 NMtPBC=     1 NCelOv=     1 NCel=       1 NClECP=     1 NCelD=      1
         NCelK=      1 NCelE2=     1 NClLst=     1 CellRange=     0.0.
 One-electron integrals computed using PRISM.
 NBasis=    24 RedAO= F EigKep=  0.00D+00  NBF=    24
 NBsUse=    24 1.00D-04 EigRej=  0.00D+00 NBFU=    24
 Leave Link  302 at Tue Dec 15 16:11:16 2015, MaxMem=    33554432 cpu:         0.0
 (Enter /home/Applications/g09/g09/l308.exe)
 Leave Link  308 at Tue Dec 15 16:11:16 2015, MaxMem=    33554432 cpu:         0.0
 (Enter /home/Applications/g09/g09/l303.exe)
 DipDrv:  MaxL=1.
 Leave Link  303 at Tue Dec 15 16:11:16 2015, MaxMem=    33554432 cpu:         0.0
 (Enter /home/Applications/g09/g09/l401.exe)
 Simple Huckel Guess.
 JPrj=0 DoOrth=F DoCkMO=F.
 Leave Link  401 at Tue Dec 15 16:11:16 2015, MaxMem=    33554432 cpu:         0.0
 (Enter /home/Applications/g09/g09/l502.exe)
 Closed shell SCF:
 Using DIIS extrapolation, IDIIS=  1040.
 Overlap will be assumed to be unity.
 Two-electron integral symmetry not used.
 Keep J ints in memory in canonical form, NReq=888082.
 IVT=       79475 IEndB=       79475 NGot=    33554432 MDV=    33473473
 LenX=    33473473 LenY=    33472456
 Requested convergence on RMS density matrix=1.00D-08 within 128 cycles.
 Requested convergence on MAX density matrix=1.00D-06.
 Requested convergence on             energy=1.00D-06.
 No special actions if energy rises.
 FoFCou: FMM=F IPFlag=           0 FMFlag=           0 FMFlg1=           0
         NFxFlg=           0 DoJE=F BraDBF=F KetDBF=F FulRan=T
         wScrn=  0.000000 ICntrl=     600 IOpCl=  2 I1Cent=           0 NGrid=           0
         NMat0=    1 NMatS0=     54 NMatT0=    0 NMatD0=    1 NMtDS0=    0 NMtDT0=    0
 Symmetry not used in FoFCou.

 Cycle   1  Pass 1  IDiag  1:
 E= 0.370386473094115    
 DIIS: error= 6.94D-02 at cycle   1 NSaved=   1.
 NSaved= 1 IEnMin= 1 EnMin= 0.370386473094115     IErMin= 1 ErrMin= 6.94D-02
 ErrMax= 6.94D-02  0.00D+00 EMaxC= 1.00D-01 BMatC= 1.15D-01 BMatP= 1.15D-01
 IDIUse=3 WtCom= 3.06D-01 WtEn= 6.94D-01
 Coeff-Com:  0.100D+01
 Coeff-En:   0.100D+01
 Coeff:      0.100D+01
 GapD=    2.000 DampG=2.000 DampE=0.500 DampFc=1.0000 IDamp=-1.
 RMSDP=2.02D-02 MaxDP=1.65D-01              OVMax= 0.00D+00

 Cycle   2  Pass 1  IDiag  1:
 E= 0.758045346121037E-01 Delta-E=       -0.294581938482 Rises=F Damp=F
 DIIS: error= 1.72D-02 at cycle   2 NSaved=   2.
 NSaved= 2 IEnMin= 2 EnMin= 0.758045346121037E-01 IErMin= 2 ErrMin= 1.72D-02
 ErrMax= 1.72D-02  0.00D+00 EMaxC= 1.00D-01 BMatC= 9.87D-03 BMatP= 1.15D-01
 IDIUse=3 WtCom= 8.28D-01 WtEn= 1.72D-01
 Coeff-Com: -0.355D+00 0.136D+01
 Coeff-En:   0.000D+00 0.100D+01
 Coeff:     -0.294D+00 0.129D+01
 RMSDP=8.41D-03 MaxDP=5.98D-02 DE=-2.95D-01 OVMax= 0.00D+00

 Cycle   3  Pass 1  IDiag  3:
 E= 0.442318164661941E-01 Delta-E=       -0.031572718146 Rises=F Damp=F
 DIIS: error= 3.71D-03 at cycle   3 NSaved=   3.
 NSaved= 3 IEnMin= 3 EnMin= 0.442318164661941E-01 IErMin= 3 ErrMin= 3.71D-03
 ErrMax= 3.71D-03  0.00D+00 EMaxC= 1.00D-01 BMatC= 3.58D-04 BMatP= 9.87D-03
 IDIUse=3 WtCom= 9.63D-01 WtEn= 3.71D-02
 Coeff-Com:  0.137D+00-0.592D+00 0.146D+01
 Coeff-En:   0.000D+00 0.000D+00 0.100D+01
 Coeff:      0.132D+00-0.570D+00 0.144D+01
 Gap=     0.386 Goal=   None    Shift=    0.000
 RMSDP=2.40D-03 MaxDP=1.68D-02 DE=-3.16D-02 OVMax= 2.74D-02

 Cycle   4  Pass 1  IDiag  3:
 E= 0.423638687478132E-01 Delta-E=       -0.001867947718 Rises=F Damp=F
 DIIS: error= 1.04D-03 at cycle   4 NSaved=   4.
 NSaved= 4 IEnMin= 4 EnMin= 0.423638687478132E-01 IErMin= 4 ErrMin= 1.04D-03
 ErrMax= 1.04D-03  0.00D+00 EMaxC= 1.00D-01 BMatC= 2.48D-05 BMatP= 3.58D-04
 IDIUse=3 WtCom= 9.90D-01 WtEn= 1.04D-02
 Coeff-Com:  0.174D-01-0.684D-01-0.130D+00 0.118D+01
 Coeff-En:   0.000D+00 0.000D+00 0.000D+00 0.100D+01
 Coeff:      0.172D-01-0.677D-01-0.128D+00 0.118D+01
 Gap=     0.387 Goal=   None    Shift=    0.000
 RMSDP=7.19D-04 MaxDP=5.83D-03 DE=-1.87D-03 OVMax= 8.49D-03

 Cycle   5  Pass 1  IDiag  3:
 E= 0.422232237350784E-01 Delta-E=       -0.000140645013 Rises=F Damp=F
 DIIS: error= 1.76D-04 at cycle   5 NSaved=   5.
 NSaved= 5 IEnMin= 5 EnMin= 0.422232237350784E-01 IErMin= 5 ErrMin= 1.76D-04
 ErrMax= 1.76D-04  0.00D+00 EMaxC= 1.00D-01 BMatC= 1.56D-06 BMatP= 2.48D-05
 IDIUse=3 WtCom= 9.98D-01 WtEn= 1.76D-03
 Coeff-Com: -0.814D-02 0.340D-01 0.108D-01-0.475D+00 0.144D+01
 Coeff-En:   0.000D+00 0.000D+00 0.000D+00 0.000D+00 0.100D+01
 Coeff:     -0.813D-02 0.340D-01 0.108D-01-0.475D+00 0.144D+01
 Gap=     0.387 Goal=   None    Shift=    0.000
 RMSDP=2.17D-04 MaxDP=1.46D-03 DE=-1.41D-04 OVMax= 2.33D-03

 Cycle   6  Pass 1  IDiag  3:
 E= 0.422123307213980E-01 Delta-E=       -0.000010893014 Rises=F Damp=F
 DIIS: error= 8.59D-05 at cycle   6 NSaved=   6.
 NSaved= 6 IEnMin= 6 EnMin= 0.422123307213980E-01 IErMin= 6 ErrMin= 8.59D-05
 ErrMax= 8.59D-05  0.00D+00 EMaxC= 1.00D-01 BMatC= 1.37D-07 BMatP= 1.56D-06
 IDIUse=1 WtCom= 1.00D+00 WtEn= 0.00D+00
 Coeff-Com:  0.229D-02-0.895D-02 0.470D-02 0.108D+00-0.553D+00 0.145D+01
 Coeff:      0.229D-02-0.895D-02 0.470D-02 0.108D+00-0.553D+00 0.145D+01
 Gap=     0.387 Goal=   None    Shift=    0.000
 RMSDP=7.58D-05 MaxDP=6.52D-04 DE=-1.09D-05 OVMax= 9.71D-04

 Cycle   7  Pass 1  IDiag  3:
 E= 0.422111598183506E-01 Delta-E=       -0.000001170903 Rises=F Damp=F
 DIIS: error= 3.20D-05 at cycle   7 NSaved=   7.
 NSaved= 7 IEnMin= 7 EnMin= 0.422111598183506E-01 IErMin= 7 ErrMin= 3.20D-05
 ErrMax= 3.20D-05  0.00D+00 EMaxC= 1.00D-01 BMatC= 1.38D-08 BMatP= 1.37D-07
 IDIUse=1 WtCom= 1.00D+00 WtEn= 0.00D+00
 Coeff-Com: -0.297D-03 0.556D-03 0.859D-04-0.193D-01 0.138D+00-0.689D+00
 Coeff-Com:  0.157D+01
 Coeff:     -0.297D-03 0.556D-03 0.859D-04-0.193D-01 0.138D+00-0.689D+00
 Coeff:      0.157D+01
 Gap=     0.387 Goal=   None    Shift=    0.000
 RMSDP=3.03D-05 MaxDP=2.87D-04 DE=-1.17D-06 OVMax= 3.61D-04

 Cycle   8  Pass 1  IDiag  3:
 E= 0.422110297849088E-01 Delta-E=       -0.000000130033 Rises=F Damp=F
 DIIS: error= 5.84D-06 at cycle   8 NSaved=   8.
 NSaved= 8 IEnMin= 8 EnMin= 0.422110297849088E-01 IErMin= 8 ErrMin= 5.84D-06
 ErrMax= 5.84D-06  0.00D+00 EMaxC= 1.00D-01 BMatC= 5.39D-10 BMatP= 1.38D-08
 IDIUse=1 WtCom= 1.00D+00 WtEn= 0.00D+00
 Coeff-Com:  0.165D-04 0.260D-03-0.775D-03 0.616D-02-0.421D-01 0.256D+00
 Coeff-Com: -0.735D+00 0.152D+01
 Coeff:      0.165D-04 0.260D-03-0.775D-03 0.616D-02-0.421D-01 0.256D+00
 Coeff:     -0.735D+00 0.152D+01
 Gap=     0.387 Goal=   None    Shift=    0.000
 RMSDP=5.31D-06 MaxDP=5.09D-05 DE=-1.30D-07 OVMax= 6.62D-05

 Cycle   9  Pass 1  IDiag  3:
 E= 0.422110254507544E-01 Delta-E=       -0.000000004334 Rises=F Damp=F
 DIIS: error= 8.74D-07 at cycle   9 NSaved=   9.
 NSaved= 9 IEnMin= 9 EnMin= 0.422110254507544E-01 IErMin= 9 ErrMin= 8.74D-07
 ErrMax= 8.74D-07  0.00D+00 EMaxC= 1.00D-01 BMatC= 2.29D-11 BMatP= 5.39D-10
 IDIUse=1 WtCom= 1.00D+00 WtEn= 0.00D+00
 Coeff-Com:  0.209D-04-0.206D-03 0.369D-03-0.118D-02 0.912D-02-0.726D-01
 Coeff-Com:  0.235D+00-0.620D+00 0.145D+01
 Coeff:      0.209D-04-0.206D-03 0.369D-03-0.118D-02 0.912D-02-0.726D-01
 Coeff:      0.235D+00-0.620D+00 0.145D+01
 Gap=     0.387 Goal=   None    Shift=    0.000
 RMSDP=8.85D-07 MaxDP=7.19D-06 DE=-4.33D-09 OVMax= 1.10D-05

 Cycle  10  Pass 1  IDiag  3:
 E= 0.422110253071537E-01 Delta-E=       -0.000000000144 Rises=F Damp=F
 DIIS: error= 1.02D-07 at cycle  10 NSaved=  10.
 NSaved=10 IEnMin=10 EnMin= 0.422110253071537E-01 IErMin=10 ErrMin= 1.02D-07
 ErrMax= 1.02D-07  0.00D+00 EMaxC= 1.00D-01 BMatC= 8.45D-13 BMatP= 2.29D-11
 IDIUse=1 WtCom= 1.00D+00 WtEn= 0.00D+00
 Coeff-Com: -0.104D-04 0.861D-04-0.158D-03 0.411D-03-0.275D-02 0.237D-01
 Coeff-Com: -0.789D-01 0.218D+00-0.618D+00 0.146D+01
 Coeff:     -0.104D-04 0.861D-04-0.158D-03 0.411D-03-0.275D-02 0.237D-01
 Coeff:     -0.789D-01 0.218D+00-0.618D+00 0.146D+01
 Gap=     0.387 Goal=   None    Shift=    0.000
 RMSDP=1.48D-07 MaxDP=8.25D-07 DE=-1.44D-10 OVMax= 1.33D-06

 Cycle  11  Pass 1  IDiag  3:
 E= 0.422110253024641E-01 Delta-E=       -0.000000000005 Rises=F Damp=F
 DIIS: error= 2.23D-08 at cycle  11 NSaved=  11.
 NSaved=11 IEnMin=11 EnMin= 0.422110253024641E-01 IErMin=11 ErrMin= 2.23D-08
 ErrMax= 2.23D-08  0.00D+00 EMaxC= 1.00D-01 BMatC= 2.85D-14 BMatP= 8.45D-13
 IDIUse=1 WtCom= 1.00D+00 WtEn= 0.00D+00
 Coeff-Com:  0.295D-05-0.245D-04 0.446D-04-0.113D-03 0.713D-03-0.641D-02
 Coeff-Com:  0.215D-01-0.592D-01 0.174D+00-0.512D+00 0.138D+01
 Coeff:      0.295D-05-0.245D-04 0.446D-04-0.113D-03 0.713D-03-0.641D-02
 Coeff:      0.215D-01-0.592D-01 0.174D+00-0.512D+00 0.138D+01
 Gap=     0.387 Goal=   None    Shift=    0.000
 RMSDP=2.66D-08 MaxDP=1.53D-07 DE=-4.69D-12 OVMax= 1.59D-07

 Cycle  12  Pass 1  IDiag  3:
 E= 0.422110253021799E-01 Delta-E=        0.000000000000 Rises=F Damp=F
 DIIS: error= 5.05D-09 at cycle  12 NSaved=  12.
 NSaved=12 IEnMin=12 EnMin= 0.422110253021799E-01 IErMin=12 ErrMin= 5.05D-09
 ErrMax= 5.05D-09  0.00D+00 EMaxC= 1.00D-01 BMatC= 1.86D-15 BMatP= 2.85D-14
 IDIUse=1 WtCom= 1.00D+00 WtEn= 0.00D+00
 Coeff-Com: -0.726D-06 0.612D-05-0.109D-04 0.276D-04-0.157D-03 0.150D-02
 Coeff-Com: -0.506D-02 0.139D-01-0.426D-01 0.140D+00-0.567D+00 0.146D+01
 Coeff:     -0.726D-06 0.612D-05-0.109D-04 0.276D-04-0.157D-03 0.150D-02
 Coeff:     -0.506D-02 0.139D-01-0.426D-01 0.140D+00-0.567D+00 0.146D+01
 Gap=     0.387 Goal=   None    Shift=    0.000
 RMSDP=7.31D-09 MaxDP=3.29D-08 DE=-2.84D-13 OVMax= 5.23D-08

 Cycle  13  Pass 2  IDiag  1:
 SCF Done:  E(RAM1) =  0.422110253022E-01 A.U. after   13 cycles
            NFock= 12  Conv=0.73D-08     -V/T= 1.0025
 KE=-1.657729489041D+01 PE=-1.718051382707D+02 EE= 8.451745984664D+01
 Leave Link  502 at Tue Dec 15 16:11:16 2015, MaxMem=    33554432 cpu:         0.0
 (Enter /home/Applications/g09/g09/l801.exe)
 Range of M.O.s used for correlation:     1    24
 NBasis=    24 NAE=    13 NBE=    13 NFC=     0 NFV=     0
 NROrb=     24 NOA=    13 NOB=    13 NVA=    11 NVB=    11
 Leave Link  801 at Tue Dec 15 16:11:16 2015, MaxMem=    33554432 cpu:         0.0
 (Enter /home/Applications/g09/g09/l914.exe)
 RHF ground state
 MDV=    33554432 DFT=F DoStab=F Mixed=F DoRPA=F DoScal=F NonHer=F
 Making orbital integer symmetry assigments:
 Orbital symmetries:
       Occupied  (A) (A) (A) (A) (A) (A) (A) (A) (A) (A) (A) (A)
                 (A)
       Virtual   (A) (A) (A) (A) (A) (A) (A) (A) (A) (A) (A)
    60 initial guesses have been made.
 Convergence on wavefunction:    0.000001000000000
 Davidson Disk Diagonalization:  ConvIn= 1.00D-06 SkipCon=T Conv= 1.00D-06.
 Max sub-space:   240 roots to seek:    60 dimension of matrix:          286
 Iteration     1 Dimension    60 NMult     0 NNew     60
 CISAX will form    60 AO SS matrices at one time.
 NMat=    60 NSing=    60 JSym2X= 0.
 FoFJK:  IHMeth= 8 ICntrl=       0 DoSepK=F KAlg= 0 I1Cent=   0 FoldK=F
 IRaf=         1 NMat= 120 IRICut=       1 DoRegI=T DoRafI=F ISym2E= 0.
 FoFCou: FMM=F IPFlag=           0 FMFlag=      100000 FMFlg1=           0
         NFxFlg=           0 DoJE=F BraDBF=F KetDBF=F FulRan=T
         wScrn=  0.000000 ICntrl=       0 IOpCl=  0 I1Cent=           0 NGrid=           0
         NMat0=  120 NMatS0=     60 NMatT0=    0 NMatD0=  120 NMtDS0=    0 NMtDT0=    0
 Symmetry not used in FoFCou.
 New state      3 was old state      4
 New state      4 was old state      7
 New state      5 was old state      6
 New state      6 was old state      9
 New state      7 was old state      3
 New state      9 was old state      5
 New state     10 was old state     13
 New state     11 was old state     10
 New state     12 was old state     15
 New state     13 was old state     12
 New state     15 was old state     17
 Excitation Energies [eV] at current iteration:
 Root      1 :     4.653408796028889
 Root      2 :     5.306343078160922
 Root      3 :     5.370209148865425
 Root      4 :     5.971724893319459
 Root      5 :     6.397371661005722
 Root      6 :     6.522648257085391
 Root      7 :     6.576732023488750
 Root      8 :     6.750651855645060
 Root      9 :     6.810358201564946
 Root     10 :     7.131967104218331
 Root     11 :     7.199977981681863
 Root     12 :     7.487676088138874
 Root     13 :     7.653922168222006
 Root     14 :     7.690456526391188
 Root     15 :     7.813581170587137
 Root     16 :     7.874999358220566
 Root     17 :     7.971977612974672
 Root     18 :     8.169480430305251
 Root     19 :     8.252544685191081
 Root     20 :     8.396414749006821
 Root     21 :     8.939339708777474
 Root     22 :     9.039750916140706
 Root     23 :     9.205271950123812
 Root     24 :     9.249366791455966
 Root     25 :     9.318038402094031
 Root     26 :     9.361930067586174
 Root     27 :     9.527717529682576
 Root     28 :     9.550723044660870
 Root     29 :     9.673158284096267
 Root     30 :     9.824310746548926
 Root     31 :     9.851254818579630
 Root     32 :     9.884457305090136
 Root     33 :    10.035635829290110
 Root     34 :    10.158445205293720
 Root     35 :    10.309681387797880
 Root     36 :    10.334147606284310
 Root     37 :    10.471200675540580
 Root     38 :    10.690889161276660
 Root     39 :    10.746065486647460
 Root     40 :    10.849473327396330
 Root     41 :    10.985360130525320
 Root     42 :    11.031163843685380
 Root     43 :    11.046884778231080
 Root     44 :    11.418761645436880
 Root     45 :    11.490936219443250
 Root     46 :    11.629649582584410
 Root     47 :    11.903570021399390
 Root     48 :    11.985953672251100
 Root     49 :    12.061910205663180
 Root     50 :    12.168733713662630
 Root     51 :    12.287582534209600
 Root     52 :    12.559072789807410
 Root     53 :    12.612820557191730
 Root     54 :    12.802815594217150
 Root     55 :    13.014561442436780
 Root     56 :    13.096974227682000
 Root     57 :    13.237566180349060
 Root     58 :    13.417179545381850
 Root     59 :    13.487144413204990
 Root     60 :    13.723359506214480
 Iteration     2 Dimension   120 NMult    60 NNew     60
 CISAX will form    60 AO SS matrices at one time.
 NMat=    60 NSing=    60 JSym2X= 0.
 Root      1 not converged, maximum delta is    0.031038626645636
 Root      2 not converged, maximum delta is    0.075723197900268
 Root      3 not converged, maximum delta is    0.065995151393456
 Root      4 not converged, maximum delta is    0.046551137022021
 New state      5 was old state      6
 Root      5 not converged, maximum delta is    0.339552618178824
 New state      6 was old state      5
 Root      6 not converged, maximum delta is    0.261491194758171
 Root      7 not converged, maximum delta is    0.119138454615201
 Root      8 not converged, maximum delta is    0.293070045398035
 Root      9 not converged, maximum delta is    0.148937167841250
 Root     10 not converged, maximum delta is    0.063128955500537
 Root     11 not converged, maximum delta is    0.032610330488973
 Root     12 not converged, maximum delta is    0.056369318838559
 Root     13 not converged, maximum delta is    0.189348144505569
 Root     14 not converged, maximum delta is    0.196331484665103
 Root     15 not converged, maximum delta is    0.218318910401843
 Excitation Energies [eV] at current iteration:
 Root      1 :     4.574472361429002   Change is   -0.078936434599887
 Root      2 :     5.289844109705958   Change is   -0.016498968454964
 Root      3 :     5.333814152266134   Change is   -0.036394996599290
 Root      4 :     5.871532939841981   Change is   -0.100191953477479
 Root      5 :     6.274764201169453   Change is   -0.247884055915937
 Root      6 :     6.337565085224241   Change is   -0.059806575781481
 Root      7 :     6.458938074710390   Change is   -0.117793948778361
 Root      8 :     6.501733748249647   Change is   -0.248918107395413
 Root      9 :     6.726581252527912   Change is   -0.083776949037034
 Root     10 :     7.010775634109262   Change is   -0.121191470109070
 Root     11 :     7.104158197311395   Change is   -0.095819784370467
 Root     12 :     7.386664331631443   Change is   -0.101011756507431
 Root     13 :     7.488372761643572   Change is   -0.165549406578434
 Root     14 :     7.601844243246451   Change is   -0.088612283144737
 Root     15 :     7.691345718619292   Change is   -0.122235451967846
 Root     16 :     7.798819477110068   Change is   -0.076179881110498
 Root     17 :     7.874581047089121   Change is   -0.097396565885551
 Root     18 :     8.031633291267093   Change is   -0.137847139038158
 Root     19 :     8.090585513284715   Change is   -0.161959171906366
 Root     20 :     8.265669545434038   Change is   -0.130745203572784
 Root     21 :     8.824483587715493   Change is   -0.380788362408320
 Root     22 :     8.870640749074433   Change is   -0.068698959703040
 Root     23 :     8.924980016009332   Change is   -0.114770900131375
 Root     24 :     8.985421315278581   Change is   -0.332617086815449
 Root     25 :     9.015441406594073   Change is   -0.233925384861894
 Root     26 :     9.115152231514413   Change is   -0.412565298168163
 Root     27 :     9.246327848250671   Change is   -0.115602219335505
 Root     28 :     9.294784410352525   Change is   -0.589672894737611
 Root     29 :     9.327531985459947   Change is   -0.523722833119683
 Root     30 :     9.469820893363325   Change is   -0.080902151297544
 Root     31 :     9.501392159637163   Change is   -0.171766124459104
 Root     32 :     9.719077385187452   Change is   -0.439367820106271
 Root     33 :     9.737344472154186   Change is   -0.298291357135928
 Root     34 :     9.808053049792679   Change is   -0.016257696756246
 Root     35 :     9.823491345001012   Change is   -0.486190042796870
 Root     36 :     9.989965977089398   Change is   -0.481234698451187
 Root     37 :    10.068989742234000   Change is   -0.621899419042659
 Root     38 :    10.203942386899410   Change is   -0.130205219384894
 Root     39 :    10.325141621741280   Change is   -0.524331705655059
 Root     40 :    10.505575553063820   Change is   -0.541309225167255
 Root     41 :    10.647736786495960   Change is   -0.098328700151499
 Root     42 :    10.680890608995350   Change is   -0.304469521529968
 Root     43 :    10.865621078530760   Change is   -0.165542765154614
 Root     44 :    11.061255718200110   Change is   -0.357505927236763
 Root     45 :    11.184634658650130   Change is   -0.306301560793129
 Root     46 :    11.293097094694370   Change is   -0.336552487890042
 Root     47 :    11.341158067981610   Change is   -0.644795604269489
 Root     48 :    11.521261151611180   Change is   -0.540649054052005
 Root     49 :    11.624457046688700   Change is   -0.279112974710685
 Root     50 :    11.711874611326740   Change is   -0.456859102335893
 Root     51 :    11.755618127986000
 Root     52 :    12.191260601310570   Change is   -0.096321932899035
 Root     53 :    12.230894875165360   Change is   -0.328177914642058
 Root     54 :    12.369906195272050   Change is   -0.242914361919673
 Root     55 :    12.494365784626510   Change is   -0.308449809590649
 Root     56 :    12.556248271914860   Change is   -0.540725955767140
 Root     57 :    12.702558449263590   Change is   -0.312002993173189
 Root     58 :    12.806444341957100   Change is   -0.431121838391966
 Root     59 :    12.855966256038680   Change is   -0.561213289343175
 Root     60 :    13.027127447437140
 Iteration     3 Dimension   135 NMult   120 NNew     15
 CISAX will form    15 AO SS matrices at one time.
 NMat=    15 NSing=    15 JSym2X= 0.
 Root      1 not converged, maximum delta is    0.002417649818677
 Root      2 not converged, maximum delta is    0.000391489154435
 Root      3 not converged, maximum delta is    0.000128579571947
 Root      4 not converged, maximum delta is    0.000170675577276
 Root      5 not converged, maximum delta is    0.000210992408430
 Root      6 not converged, maximum delta is    0.000420409428327
 Root      7 not converged, maximum delta is    0.001556441996613
 Root      8 not converged, maximum delta is    0.000683704215222
 Root      9 not converged, maximum delta is    0.001682818146383
 Root     10 not converged, maximum delta is    0.000234015458526
 Root     11 not converged, maximum delta is    0.000488142791198
 Root     12 not converged, maximum delta is    0.000325833390134
 Root     13 not converged, maximum delta is    0.000261600728776
 Root     14 not converged, maximum delta is    0.000303405211822
 Root     15 not converged, maximum delta is    0.000420529198458
 Excitation Energies [eV] at current iteration:
 Root      1 :     4.574067188270498   Change is   -0.000405173158504
 Root      2 :     5.289804355430839   Change is   -0.000039754275119
 Root      3 :     5.333810247029065   Change is   -0.000003905237069
 Root      4 :     5.871525817067829   Change is   -0.000007122774153
 Root      5 :     6.274754692207337   Change is   -0.000009508962117
 Root      6 :     6.337542201749919   Change is   -0.000022883474322
 Root      7 :     6.458411186828486   Change is   -0.000526887881904
 Root      8 :     6.501712593253115   Change is   -0.000021154996532
 Root      9 :     6.726139634118928   Change is   -0.000441618408985
 Root     10 :     7.010759682786142   Change is   -0.000015951323119
 Root     11 :     7.104105991377398   Change is   -0.000052205933997
 Root     12 :     7.386633302608224   Change is   -0.000031029023218
 Root     13 :     7.488355599529836   Change is   -0.000017162113737
 Root     14 :     7.601806979757850   Change is   -0.000037263488601
 Root     15 :     7.691311358895787   Change is   -0.000034359723506
 Iteration     4 Dimension   143 NMult   135 NNew      8
 CISAX will form     8 AO SS matrices at one time.
 NMat=     8 NSing=     8 JSym2X= 0.
 Root      1 not converged, maximum delta is    0.000048921451457
 Root      2 not converged, maximum delta is    0.000007506529406
 Root      3 not converged, maximum delta is    0.000003210862013
 Root      4 not converged, maximum delta is    0.000006657245956
 Root      5 not converged, maximum delta is    0.000009700831348
 Root      6 not converged, maximum delta is    0.000011064184979
 Root      7 not converged, maximum delta is    0.000072655059115
 Root      8 not converged, maximum delta is    0.000015462699854
 Root      9 not converged, maximum delta is    0.000059895354042
 Root     10 not converged, maximum delta is    0.000013829787000
 Root     11 not converged, maximum delta is    0.000025210944701
 Root     12 not converged, maximum delta is    0.000013272784889
 Root     13 not converged, maximum delta is    0.000015031494192
 Root     14 not converged, maximum delta is    0.000022576481093
 Root     15 not converged, maximum delta is    0.000023201585880
 Excitation Energies [eV] at current iteration:
 Root      1 :     4.574065815152156   Change is   -0.000001373118343
 Root      2 :     5.289804331870743   Change is   -0.000000023560096
 Root      3 :     5.333810242948070   Change is   -0.000000004080995
 Root      4 :     5.871525801386745   Change is   -0.000000015681084
 Root      5 :     6.274754671179598   Change is   -0.000000021027738
 Root      6 :     6.337542145515374   Change is   -0.000000056234544
 Root      7 :     6.458409312095424   Change is   -0.000001874733062
 Root      8 :     6.501712526851986   Change is   -0.000000066401129
 Root      9 :     6.726138056223811   Change is   -0.000001577895117
 Root     10 :     7.010759632201985   Change is   -0.000000050584158
 Root     11 :     7.104105773646606   Change is   -0.000000217730792
 Root     12 :     7.386633242994945   Change is   -0.000000059613279
 Root     13 :     7.488355522997643   Change is   -0.000000076532193
 Root     14 :     7.601806817566605   Change is   -0.000000162191245
 Root     15 :     7.691311215389223   Change is   -0.000000143506564
 Convergence achieved on expansion vectors.
 ***********************************************************************
 Excited states from <AA,BB:AA,BB> singles matrix:
 ***********************************************************************
 
 1PDM for each excited state written to RWF  633
 Ground to excited state transition densities written to RWF  633
 Ground to excited state transition electric dipole moments (Au):
       state          X           Y           Z        Dip. S.      Osc.
         1        -0.8104     -0.2740      0.1011      0.7421      0.0832
         2        -0.1288      0.2755      0.0130      0.0927      0.0120
         3        -0.0356      0.0651      0.0247      0.0061      0.0008
         4         0.0044     -0.0146      0.1119      0.0127      0.0018
         5        -0.0578      0.1504     -0.0770      0.0319      0.0049
         6         0.0815     -0.2874      0.0130      0.0894      0.0139
         7        -0.4060      1.3483      0.0665      1.9871      0.3144
         8         0.0159     -0.0448     -0.0023      0.0023      0.0004
         9         0.9381     -0.1591      0.0501      0.9078      0.1496
        10         0.0764     -0.1348      0.0032      0.0240      0.0041
        11        -0.0887      0.0377      0.0576      0.0126      0.0022
        12         0.0374     -0.0737      0.2098      0.0509      0.0092
        13         0.0172      0.0308     -0.0640      0.0053      0.0010
        14        -0.0142     -0.1684      0.0755      0.0342      0.0064
        15        -0.0442     -0.0017      0.0899      0.0100      0.0019
 Ground to excited state transition velocity dipole moments (Au):
       state          X           Y           Z        Dip. S.      Osc.
         1         0.0565     -0.0036     -0.0267      0.0039      0.0155
         2        -0.0008     -0.0239      0.0064      0.0006      0.0021
         3         0.0008     -0.0035     -0.0084      0.0001      0.0003
         4        -0.0052      0.0082     -0.0697      0.0050      0.0153
         5         0.0154     -0.0257      0.1133      0.0137      0.0397
         6        -0.0135      0.0600     -0.1346      0.0219      0.0627
         7         0.1077     -0.2732     -0.0545      0.0892      0.2506
         8        -0.0057      0.0181     -0.0365      0.0017      0.0047
         9        -0.1954      0.0429     -0.0264      0.0407      0.1099
        10        -0.0186      0.0234      0.0218      0.0014      0.0035
        11         0.0208     -0.0119      0.0309      0.0015      0.0039
        12        -0.0170      0.0190     -0.0088      0.0007      0.0018
        13        -0.0044     -0.0007      0.0404      0.0017      0.0040
        14        -0.0095      0.0333      0.0511      0.0038      0.0091
        15         0.0047      0.0056     -0.0546      0.0030      0.0072
 Ground to excited state transition magnetic dipole moments (Au):
       state          X           Y           Z
         1        -0.0421     -0.0085     -0.6902
         2        -0.0925      0.1161      0.0110
         3         0.3081     -0.5252      0.0111
         4         0.1951      0.2231      0.0203
         5        -0.2089      0.0367     -0.0151
         6        -0.2355      0.0945      0.0034
         7        -0.0197      0.0762      0.0942
         8        -0.0089      0.0349     -0.0014
         9        -0.0211      0.0526     -0.0324
        10        -0.4282      0.7476     -0.0271
        11         0.5430      1.0825     -0.0397
        12         0.2416      0.1228     -0.0158
        13        -0.0788      0.3332      0.0426
        14         0.7908      0.0508     -0.0941
        15        -1.1601     -0.4750     -0.0332
 Ground to excited state transition velocity quadrupole moments (Au):
       state          XX          YY          ZZ          XY          XZ          YZ
         1         0.4518     -0.4441     -0.0104     -0.0650     -0.0106     -0.0071
         2         0.0793     -0.1349      0.0741      0.1059      0.0399      0.0217
         3         0.0191     -0.0327      0.0178      0.0283     -0.0923     -0.1002
         4        -0.0409      0.0217      0.0287      0.0203     -0.2354      0.1294
         5         0.0420     -0.0282     -0.0024      0.0266      0.0663     -0.1859
         6        -0.1277      0.1130     -0.0074     -0.0246     -0.0098      0.0142
         7         0.3062     -0.1663     -0.0496      0.2480     -0.0677     -0.0223
         8        -0.0234     -0.0134      0.0127     -0.0073     -0.0583     -0.1515
         9         0.4055     -0.4799      0.0157     -0.2964      0.0619      0.0087
        10         0.0063     -0.0419      0.0155     -0.0246     -0.1690     -0.0578
        11        -0.0048      0.0246     -0.0066      0.0274      0.1338      0.0375
        12         0.0136     -0.0196     -0.0387     -0.0165     -0.1567     -0.0995
        13        -0.0267      0.0093     -0.0032     -0.0026     -0.1552      0.2151
        14        -0.0061     -0.0610      0.0169     -0.0414     -0.0223     -0.0477
        15        -0.0017     -0.0189     -0.0024     -0.0058      0.1897     -0.4003
 <0|del|b> * <b|rxdel|0> + <0|del|b> * <b|delr+rdel|0>
 Rotatory Strengths (R) in cgs (10**-40 erg-esu-cm/Gauss)
       state          XX          YY          ZZ    R(velocity)    E-M Angle
         1        42.3382     29.2162     -4.0272     22.5091       68.24
         2        -1.9550     -0.9969     -6.6060     -3.1860      135.53
         3         2.1160      0.5715      4.4795      2.3890       69.02
         4         1.5471     -2.7570     -0.7234     -0.6444       91.62
         5         3.1714    -16.5968     -4.6041     -6.0098      103.65
         6        13.8259     -1.2013     12.8118      8.4788       77.11
         7       -86.3538      5.7664     -3.0330    -27.8735      139.95
         8         2.9661      1.0446     -1.8381      0.7242       60.30
         9        11.8688     -6.5217     15.3372      6.8948       56.72
        10        27.9443     12.3155     28.0628     22.7742       38.76
        11       -15.8112     13.5688     -5.3585     -2.5336       93.40
        12         7.2894     -3.1522     -8.3884     -1.4171      102.88
        13         1.6441      1.5699      1.5165      1.5768       82.47
        14        -5.6768    -12.3139     -8.8529     -8.9479      102.44
        15        -1.9645     -7.3470     -6.4738     -5.2618       95.24
 1/2[<0|r|b>*<b|rxdel|0> + (<0|rxdel|b>*<b|r|0>)*]
 Rotatory Strengths (R) in cgs (10**-40 erg-esu-cm/Gauss)
       state          XX          YY          ZZ     R(length)
         1       -24.1419     -1.6395     49.3622      7.8602
         2        -8.4247    -22.6135     -0.1006    -10.3796
         3         7.7486     24.1887     -0.1936     10.5812
         4        -0.6106      2.2959     -1.6089      0.0255
         5        -8.5383     -3.8999     -0.8214     -4.4199
         6        13.5678     19.2001     -0.0314     10.9122
         7        -5.6522    -72.6078     -4.4299    -27.5633
         8         0.1001      1.1054     -0.0022      0.4011
         9        13.9670      5.9171      1.1478      7.0106
        10        23.1284     71.2817      0.0605     31.4902
        11        34.0573    -28.8959      1.6148      2.2588
        12        -6.3937      6.3999      2.3515      0.7859
        13         0.9584     -7.2485      1.9294     -1.4535
        14         7.9297      6.0510      5.0242      6.3350
        15       -36.2943     -0.5646      2.1096    -11.5831
  1/2[<0|del|b>*<b|r|0> + (<0|r|b>*<b|del|0>)*] (Au)
       state          X           Y           Z        Dip. S.   Osc.(frdel)
         1        -0.0458      0.0010     -0.0027      0.0475      0.0317
         2         0.0001     -0.0066      0.0001      0.0064      0.0043
         3         0.0000     -0.0002     -0.0002      0.0005      0.0003
         4         0.0000     -0.0001     -0.0078      0.0079      0.0053
         5        -0.0009     -0.0039     -0.0087      0.0135      0.0090
         6        -0.0011     -0.0172     -0.0017      0.0201      0.0134
         7        -0.0437     -0.3684     -0.0036      0.4157      0.2771
         8        -0.0001     -0.0008      0.0001      0.0008      0.0005
         9        -0.1833     -0.0068     -0.0013      0.1915      0.1276
        10        -0.0014     -0.0032      0.0001      0.0045      0.0030
        11        -0.0018     -0.0004      0.0018      0.0005      0.0003
        12        -0.0006     -0.0014     -0.0018      0.0039      0.0026
        13        -0.0001      0.0000     -0.0026      0.0027      0.0018
        14         0.0001     -0.0056      0.0039      0.0016      0.0011
        15        -0.0002      0.0000     -0.0049      0.0051      0.0034

 Excitation energies and oscillator strengths:
 
 Excited State   1:      Singlet-A      4.5741 eV  271.06 nm  f=0.0832  <S**2>=0.000
      12 -> 15         0.17937
      13 -> 14         0.67531
 This state for optimization and/or second-order correction.
 Total Energy, E(CIS) =  0.210304858332    
 Copying the excited state density for this state as the 1-particle RhoCI density.
 
 Excited State   2:      Singlet-A      5.2898 eV  234.38 nm  f=0.0120  <S**2>=0.000
      12 -> 14        -0.37497
      13 -> 15         0.56341
      13 -> 16        -0.18249
 
 Excited State   3:      Singlet-A      5.3338 eV  232.45 nm  f=0.0008  <S**2>=0.000
      12 -> 14        -0.10578
      13 -> 15         0.15587
      13 -> 16         0.64650
      13 -> 19         0.10053
      13 -> 21        -0.15768
 
 Excited State   4:      Singlet-A      5.8715 eV  211.16 nm  f=0.0018  <S**2>=0.000
      12 -> 18         0.10504
      12 -> 20         0.10755
      12 -> 22        -0.11305
      13 -> 17         0.16539
      13 -> 18         0.46778
      13 -> 20         0.28350
      13 -> 22        -0.28083
      13 -> 23        -0.13479
      13 -> 24        -0.11401
 
 Excited State   5:      Singlet-A      6.2748 eV  197.59 nm  f=0.0049  <S**2>=0.000
       7 -> 16        -0.14338
      12 -> 16         0.57296
      12 -> 18         0.11286
      12 -> 21        -0.15354
      12 -> 22         0.12898
      13 -> 19         0.18326
      13 -> 22        -0.15761
 
 Excited State   6:      Singlet-A      6.3375 eV  195.63 nm  f=0.0139  <S**2>=0.000
      12 -> 14        -0.12954
      12 -> 16         0.22031
      13 -> 17         0.54114
      13 -> 18        -0.12457
      13 -> 19        -0.23216
      13 -> 22         0.14281
 
 Excited State   7:      Singlet-A      6.4584 eV  191.97 nm  f=0.3144  <S**2>=0.000
      12 -> 14         0.52425
      12 -> 15         0.12853
      13 -> 15         0.35087
      13 -> 17         0.15233
 
 Excited State   8:      Singlet-A      6.5017 eV  190.69 nm  f=0.0004  <S**2>=0.000
      12 -> 16        -0.18200
      12 -> 19        -0.20949
      12 -> 22         0.13329
      12 -> 23        -0.11737
      12 -> 24        -0.11085
      13 -> 17         0.22132
      13 -> 18        -0.14341
      13 -> 19         0.32177
      13 -> 21         0.10354
      13 -> 22        -0.26930
      13 -> 23         0.24634
 
 Excited State   9:      Singlet-A      6.7261 eV  184.33 nm  f=0.1496  <S**2>=0.000
      12 -> 15         0.65410
      13 -> 14        -0.16668
 
 Excited State  10:      Singlet-A      7.0108 eV  176.85 nm  f=0.0041  <S**2>=0.000
      12 -> 17         0.44360
      12 -> 18         0.14512
      12 -> 19        -0.12624
      13 -> 16         0.10260
      13 -> 17        -0.14136
      13 -> 18        -0.21228
      13 -> 19        -0.32627
      13 -> 21         0.12152
      13 -> 22        -0.13637
 
 Excited State  11:      Singlet-A      7.1041 eV  174.52 nm  f=0.0022  <S**2>=0.000
       9 -> 14        -0.17989
      10 -> 14        -0.38686
      11 -> 14         0.44429
      11 -> 15         0.25024
 
 Excited State  12:      Singlet-A      7.3866 eV  167.85 nm  f=0.0092  <S**2>=0.000
      11 -> 15        -0.10525
      12 -> 17         0.30246
      12 -> 19         0.20698
      12 -> 20         0.19803
      12 -> 21         0.11590
      12 -> 23         0.19923
      13 -> 19         0.27290
      13 -> 20         0.19420
      13 -> 22         0.29732
      13 -> 23         0.11236
      13 -> 24        -0.11984
 
 Excited State  13:      Singlet-A      7.4884 eV  165.57 nm  f=0.0010  <S**2>=0.000
      11 -> 14        -0.11799
      12 -> 18        -0.23525
      12 -> 19         0.28404
      12 -> 22        -0.10926
      13 -> 18        -0.19317
      13 -> 21         0.38979
      13 -> 22        -0.23586
      13 -> 23        -0.12807
      13 -> 24        -0.12663
 
 Excited State  14:      Singlet-A      7.6018 eV  163.10 nm  f=0.0064  <S**2>=0.000
       9 -> 14        -0.11634
      10 -> 14         0.38717
      10 -> 15        -0.24744
      11 -> 14         0.37834
      11 -> 15        -0.23806
      13 -> 17        -0.11143
      13 -> 19        -0.12363
 
 Excited State  15:      Singlet-A      7.6913 eV  161.20 nm  f=0.0019  <S**2>=0.000
       9 -> 14         0.19851
       9 -> 15        -0.10444
      12 -> 18        -0.26634
      12 -> 21        -0.22478
      12 -> 22         0.18812
      13 -> 18         0.24035
      13 -> 19        -0.10415
      13 -> 21         0.17562
      13 -> 23         0.31259
      13 -> 24         0.18301
 SavETr:  write IOETrn=   770 NScale= 10 NData=  16 NLR=1 NState=   15 LETran=     280.
 The selected state is a singlet
 CISAX will form     1 AO SS matrices at one time.
 NMat=     1 NSing=     1 JSym2X= 0.
 Leave Link  914 at Tue Dec 15 16:11:17 2015, MaxMem=    33554432 cpu:         0.1
 (Enter /home/Applications/g09/g09/l1002.exe)
 Minotr:  Closed shell wavefunction.
          Computing CIS/TD-HF/TD-KS derivatives.
          Using Z-Vector for PSCF gradient.
          Skipping F1 and S1 gradient terms here.
          IDoAtm=111111111
          Direct CPHF calculation.
          Differentiating once with respect to electric field.
                with respect to dipole field.
          Differentiating once with respect to nuclear coordinates.
          Electric field/nuclear overlap derivatives assumed to be zero.
          Requested convergence is 1.0D-10 RMS, and 1.0D-09 maximum.
          NewPWx=T KeepS1=F KeepF1=F KeepIn=T MapXYZ=F SortEE=F KeepMc=T.
          MDV=      33495423 using IRadAn=       0.
 Keep J ints in memory in canonical form, NReq=871704.
 FoFCou: FMM=F IPFlag=           0 FMFlag=           0 FMFlg1=           0
         NFxFlg=           0 DoJE=F BraDBF=F KetDBF=F FulRan=T
         wScrn=  0.000000 ICntrl=     600 IOpCl=  2 I1Cent=           0 NGrid=           0
         NMat0=    1 NMatS0=     54 NMatT0=    0 NMatD0=    1 NMtDS0=    0 NMtDT0=    0
 Symmetry not used in FoFCou.
          Solving linear equations separately, MaxMat=       0.
          There are     1 degrees of freedom in the 1st order CPHF.  IDoFFX=0 NUNeed=     1.
 LinEq1:  Iter=  0 NonCon=     1 RMS=1.20D-02 Max=8.23D-02 NDo=     1
 AX will form     1 AO Fock derivatives at one time.
 LinEq1:  Iter=  1 NonCon=     1 RMS=2.45D-03 Max=1.65D-02 NDo=     1
 LinEq1:  Iter=  2 NonCon=     1 RMS=3.64D-04 Max=2.30D-03 NDo=     1
 LinEq1:  Iter=  3 NonCon=     1 RMS=4.14D-05 Max=1.86D-04 NDo=     1
 LinEq1:  Iter=  4 NonCon=     1 RMS=3.78D-06 Max=1.60D-05 NDo=     1
 LinEq1:  Iter=  5 NonCon=     1 RMS=4.62D-07 Max=2.01D-06 NDo=     1
 LinEq1:  Iter=  6 NonCon=     1 RMS=7.38D-08 Max=4.16D-07 NDo=     1
 LinEq1:  Iter=  7 NonCon=     1 RMS=8.95D-09 Max=3.44D-08 NDo=     1
 LinEq1:  Iter=  8 NonCon=     1 RMS=1.18D-09 Max=4.89D-09 NDo=     1
 LinEq1:  Iter=  9 NonCon=     1 RMS=1.42D-10 Max=4.09D-10 NDo=     1
 LinEq1:  Iter= 10 NonCon=     0 RMS=1.34D-11 Max=4.50D-11 NDo=     1
 Linear equations converged to 1.000D-10 1.000D-09 after    10 iterations.
 End of Minotr F.D. properties file   721 does not exist.
 End of Minotr F.D. properties file   722 does not exist.
 End of Minotr F.D. properties file   788 does not exist.
 Leave Link 1002 at Tue Dec 15 16:11:17 2015, MaxMem=    33554432 cpu:         0.0
 (Enter /home/Applications/g09/g09/l601.exe)
 Copying SCF densities to generalized density rwf, IOpCl= 0 IROHF=0.

 **********************************************************************

            Population analysis using the SCF density.

 **********************************************************************

 Orbital symmetries:
       Occupied  (A) (A) (A) (A) (A) (A) (A) (A) (A) (A) (A) (A)
                 (A)
       Virtual   (A) (A) (A) (A) (A) (A) (A) (A) (A) (A) (A)
 The electronic state is 1-A.
 Alpha  occ. eigenvalues --   -1.59167  -1.25737  -1.09398  -0.82687  -0.80165
 Alpha  occ. eigenvalues --   -0.68295  -0.61039  -0.54784  -0.51877  -0.50013
 Alpha  occ. eigenvalues --   -0.48775  -0.40341  -0.35098
 Alpha virt. eigenvalues --    0.03568   0.07042   0.10337   0.13098   0.13762
 Alpha virt. eigenvalues --    0.15308   0.17502   0.18126   0.18693   0.20644
 Alpha virt. eigenvalues --    0.22478
     Molecular Orbital Coefficients:
                           1         2         3         4         5
                           O         O         O         O         O
     Eigenvalues --    -1.59167  -1.25737  -1.09398  -0.82687  -0.80165
   1 1   C  1S          0.30272  -0.47987  -0.25657  -0.21314  -0.36010
   2        1PX         0.13005  -0.09046   0.05223   0.13089   0.09321
   3        1PY        -0.05271  -0.00531   0.22144   0.20837  -0.30720
   4        1PZ         0.00558  -0.00864  -0.00324   0.00025  -0.00345
   5 2   C  1S          0.37951  -0.16957  -0.50074  -0.00604   0.38064
   6        1PX         0.14451   0.19181   0.03350   0.30843   0.03915
   7        1PY         0.11051  -0.17034  -0.00579  -0.20350  -0.15089
   8        1PZ        -0.00248   0.00117   0.00263   0.00513   0.00467
   9 3   O  1S          0.61283   0.60835  -0.05019   0.12096  -0.29172
  10        1PX        -0.12153   0.03091   0.23958  -0.36304  -0.27433
  11        1PY         0.16827   0.01109   0.19368  -0.35992   0.06480
  12        1PZ         0.00087  -0.00014  -0.00065   0.00737   0.00708
  13 4   C  1S          0.37505  -0.06179   0.51414  -0.25584   0.32280
  14        1PX        -0.13767   0.10548  -0.01442  -0.19790   0.01863
  15        1PY        -0.12881  -0.22618   0.06232   0.29361   0.17367
  16        1PZ         0.00278  -0.00199   0.00504   0.00428   0.00707
  17 5   C  1S          0.28298  -0.42584   0.35746   0.39491  -0.13200
  18        1PX         0.01384   0.05819   0.18674   0.01717   0.36374
  19        1PY        -0.13407   0.08709  -0.00497   0.14744  -0.05368
  20        1PZ        -0.00684   0.01016  -0.00744  -0.00758   0.00664
  21 6   H  1S          0.05967  -0.12839   0.14598   0.25156  -0.07675
  22 7   H  1S          0.07688  -0.00078   0.19309  -0.18732   0.16758
  23 8   H  1S          0.07429  -0.03899  -0.18844   0.01950   0.22656
  24 9   H  1S          0.05803  -0.13853  -0.08817  -0.11725  -0.24643
                           6         7         8         9        10
                           O         O         O         O         O
     Eigenvalues --    -0.68295  -0.61039  -0.54784  -0.51877  -0.50013
   1 1   C  1S         -0.06081  -0.00502  -0.18392   0.00052   0.02172
   2        1PX         0.27971  -0.00582   0.13252  -0.32265   0.05257
   3        1PY         0.02295   0.01439  -0.17231   0.31887  -0.27976
   4        1PZ         0.00052   0.24855   0.00491  -0.00468  -0.00406
   5 2   C  1S         -0.12836  -0.00161   0.13339   0.04335   0.03477
   6        1PX         0.27523  -0.00373  -0.30300   0.23217   0.17871
   7        1PY         0.28145  -0.00582  -0.06470  -0.29757   0.44448
   8        1PZ        -0.01015   0.39035   0.00800   0.01262  -0.00911
   9 3   O  1S         -0.18505  -0.00056  -0.01535  -0.20700  -0.02023
  10        1PX        -0.28625   0.01353   0.28107  -0.35555  -0.18661
  11        1PY         0.36860   0.00813   0.33051   0.42236   0.05076
  12        1PZ        -0.00586   0.76019  -0.00849  -0.00114   0.04711
  13 4   C  1S         -0.10196  -0.00703  -0.16725   0.07173  -0.06388
  14        1PX        -0.33720  -0.00700  -0.22540   0.07706   0.34263
  15        1PY        -0.18132  -0.00994  -0.31931  -0.25894  -0.01374
  16        1PZ        -0.00087   0.39160  -0.00351  -0.01346   0.01248
  17 5   C  1S         -0.09133   0.00930   0.18008  -0.03285  -0.03530
  18        1PX        -0.07491  -0.00644  -0.01323  -0.16757  -0.03261
  19        1PY        -0.29083  -0.02338   0.31351   0.21015   0.45571
  20        1PZ        -0.00030   0.22906  -0.00256  -0.00811   0.00400
  21 6   H  1S         -0.22738  -0.01905   0.33628   0.13644   0.34496
  22 7   H  1S         -0.26822  -0.00924  -0.30114   0.07472   0.23082
  23 8   H  1S         -0.28410   0.01468   0.21613   0.16179  -0.36781
  24 9   H  1S         -0.18448   0.00559  -0.23319   0.31619  -0.09101
                          11        12        13        14        15
                           O         O         O         V         V
     Eigenvalues --    -0.48775  -0.40341  -0.35098   0.03568   0.07042
   1 1   C  1S          0.02196  -0.01930   0.00399   0.01757  -0.02045
   2        1PX        -0.49477  -0.02706   0.00720   0.01543  -0.00318
   3        1PY        -0.24514  -0.01621   0.00677   0.01878  -0.00279
   4        1PZ        -0.02763   0.63153  -0.26176  -0.24843   0.63674
   5 2   C  1S         -0.09183   0.00068   0.00277  -0.00369   0.00874
   6        1PX        -0.03697   0.00460   0.00075   0.00854  -0.01189
   7        1PY         0.14309   0.02675  -0.02803   0.02222  -0.02360
   8        1PZ        -0.02108   0.29466  -0.54228   0.48647  -0.47617
   9 3   O  1S          0.07301   0.00256  -0.00573   0.00175  -0.00217
  10        1PX        -0.07253  -0.01471  -0.00085  -0.00017  -0.00124
  11        1PY         0.04686   0.00003   0.00675   0.00392  -0.00496
  12        1PZ         0.01441  -0.52472  -0.10162  -0.36326   0.04056
  13 4   C  1S          0.02121  -0.00370  -0.01178  -0.01611   0.00642
  14        1PX        -0.37364   0.00648   0.01903   0.01152  -0.00423
  15        1PY         0.14846   0.00333  -0.02122  -0.00042  -0.00447
  16        1PZ         0.02315   0.04259   0.60303   0.62450   0.29817
  17 5   C  1S         -0.05406   0.02058   0.02942  -0.02883  -0.02444
  18        1PX         0.49672   0.00429  -0.01193   0.02680  -0.01148
  19        1PY         0.10358   0.00743  -0.00301  -0.00442  -0.02032
  20        1PZ         0.00558   0.48361   0.51012  -0.41882  -0.52273
  21 6   H  1S          0.06778  -0.00155  -0.01086   0.02176   0.02980
  22 7   H  1S         -0.28537   0.00387   0.00926   0.00712  -0.00005
  23 8   H  1S         -0.16119  -0.01463   0.00591   0.01560  -0.02114
  24 9   H  1S          0.33925   0.01419  -0.00551  -0.00532   0.01536
                          16        17        18        19        20
                           V         V         V         V         V
     Eigenvalues --     0.10337   0.13098   0.13762   0.15308   0.17502
   1 1   C  1S         -0.09365   0.11402  -0.28966   0.16853   0.36516
   2        1PX         0.10374   0.30224   0.22640   0.04962  -0.11771
   3        1PY         0.03260   0.17666  -0.03474  -0.23570   0.34104
   4        1PZ        -0.01323   0.03130  -0.00642   0.00241   0.02658
   5 2   C  1S          0.33554  -0.16539   0.12623  -0.31658   0.16674
   6        1PX         0.35850   0.27573   0.10259   0.15153   0.11040
   7        1PY        -0.12519   0.30833   0.07466  -0.05349  -0.18705
   8        1PZ         0.01637  -0.03737  -0.00506   0.00113  -0.00909
   9 3   O  1S         -0.21591   0.00866  -0.00789  -0.08439  -0.01276
  10        1PX         0.34954   0.11671   0.18190  -0.06679   0.14844
  11        1PY        -0.32888   0.10002   0.11988  -0.27495   0.14193
  12        1PZ        -0.00626   0.00794   0.00263   0.00387   0.00476
  13 4   C  1S          0.25465   0.02021  -0.45136   0.00579  -0.27994
  14        1PX         0.07561   0.26556  -0.06393  -0.28523   0.07523
  15        1PY        -0.30943   0.16683  -0.09286  -0.32695  -0.05035
  16        1PZ        -0.00052  -0.01030  -0.01535  -0.01132  -0.02153
  17 5   C  1S         -0.05927  -0.18783   0.22602  -0.22834  -0.07234
  18        1PX         0.03538   0.28757   0.23489   0.02761   0.52014
  19        1PY        -0.01832   0.09766  -0.12240  -0.27657  -0.08242
  20        1PZ         0.01089   0.01685  -0.01380   0.03047   0.01359
  21 6   H  1S          0.10848   0.06136  -0.10167   0.49160   0.10628
  22 7   H  1S         -0.33190  -0.30669   0.44411   0.28363   0.13339
  23 8   H  1S         -0.31747   0.54113   0.00894   0.24296  -0.19870
  24 9   H  1S          0.22572   0.15014   0.48811  -0.02123  -0.42426
                          21        22        23        24
                           V         V         V         V
     Eigenvalues --     0.18126   0.18693   0.20644   0.22478
   1 1   C  1S         -0.02341  -0.14181   0.29684   0.14609
   2        1PX         0.35323   0.05355   0.44774   0.00583
   3        1PY         0.01669   0.47241  -0.04056  -0.32984
   4        1PZ        -0.01425  -0.00555   0.02492   0.00242
   5 2   C  1S         -0.00905   0.26758  -0.17265  -0.01678
   6        1PX        -0.36368  -0.12334  -0.09513   0.42752
   7        1PY        -0.27936   0.28044  -0.30829  -0.30998
   8        1PZ         0.01841  -0.01222   0.00878   0.00916
   9 3   O  1S          0.12104   0.00546  -0.01178   0.01109
  10        1PX        -0.19027   0.11948  -0.11692   0.36393
  11        1PY         0.19890  -0.04763  -0.09492   0.30461
  12        1PZ         0.00098   0.00086  -0.00068  -0.00754
  13 4   C  1S         -0.01228   0.11295   0.10069  -0.05061
  14        1PX         0.20908  -0.46308  -0.22420  -0.16244
  15        1PY         0.21668   0.21947  -0.12477   0.48475
  16        1PZ        -0.01176   0.00648   0.00886   0.00990
  17 5   C  1S         -0.22880  -0.40601  -0.10866  -0.11108
  18        1PX         0.04730  -0.14363   0.18338  -0.28162
  19        1PY        -0.27927   0.16711   0.53559   0.04907
  20        1PZ         0.03639   0.03597   0.00146   0.00518
  21 6   H  1S          0.40553   0.17203  -0.32603   0.03830
  22 7   H  1S         -0.15898   0.22536   0.10330   0.06357
  23 8   H  1S         -0.28837  -0.02545  -0.11101  -0.03735
  24 9   H  1S          0.27444   0.02257   0.12134  -0.01298
     Density Matrix:
                           1         2         3         4         5
   1 1   C  1S          1.20347
   2        1PX        -0.08556   1.00385
   3        1PY         0.03051  -0.01696   0.92082
   4        1PZ        -0.01652  -0.00722  -0.00541   1.06016
   5 2   C  1S          0.34198   0.17657  -0.49503   0.01196   1.22848
   6        1PX        -0.18924   0.07345   0.28505  -0.00274  -0.07496
   7        1PY         0.44244   0.21323  -0.47933   0.04165  -0.07575
   8        1PZ        -0.03216  -0.01847   0.01527   0.85120   0.00379
   9 3   O  1S          0.00159  -0.02724  -0.02353   0.00241   0.09619
  10        1PX         0.04634   0.03822  -0.06007  -0.00183  -0.42920
  11        1PY        -0.06313  -0.03993  -0.00056  -0.00298   0.00876
  12        1PZ         0.01108   0.00742   0.00436  -0.23294   0.00271
  13 4   C  1S         -0.02860  -0.01961   0.00769  -0.00552   0.01894
  14        1PX         0.01621   0.00293   0.01576   0.00583   0.01645
  15        1PY         0.00183  -0.04453  -0.06996   0.00240  -0.04421
  16        1PZ        -0.00372  -0.00846  -0.00830  -0.06854  -0.00006
  17 5   C  1S          0.26359   0.33358   0.33773   0.02977  -0.02777
  18        1PX        -0.37856  -0.34768  -0.46722  -0.02193  -0.01191
  19        1PY        -0.24186  -0.29253  -0.18866  -0.01180   0.02029
  20        1PZ        -0.02713  -0.02736  -0.02139   0.45710   0.00465
  21 6   H  1S         -0.04530  -0.05122  -0.05448  -0.00791   0.05262
  22 7   H  1S          0.04836   0.05112   0.04601   0.00377   0.05864
  23 8   H  1S         -0.05977  -0.03049   0.07951  -0.00090   0.57918
  24 9   H  1S          0.55963  -0.76092   0.21660   0.00538  -0.06295
                           6         7         8         9        10
   6        1PX         0.82052
   7        1PY         0.03336   0.99394
   8        1PZ        -0.00385   0.00877   1.06836
   9 3   O  1S          0.25762  -0.00803  -0.00050   1.86202
  10        1PX        -0.80721   0.01693   0.00626   0.17822   1.21605
  11        1PY         0.06227   0.12952   0.00172  -0.24130  -0.07274
  12        1PZ         0.01175   0.00837   0.39310  -0.00067   0.00614
  13 4   C  1S          0.04073  -0.02391   0.00766   0.10164   0.09408
  14        1PX         0.01608  -0.00076  -0.00860  -0.06648   0.10400
  15        1PY         0.03254   0.00106   0.00832  -0.26301  -0.16957
  16        1PZ         0.00008  -0.01304  -0.32467  -0.00087   0.00303
  17 5   C  1S         -0.00747  -0.02009  -0.00339   0.00056   0.05936
  18        1PX        -0.08143   0.03772  -0.00821   0.03248  -0.02788
  19        1PY        -0.01596   0.00318  -0.00520   0.01693  -0.03467
  20        1PZ        -0.00060   0.00094  -0.08997  -0.00041  -0.00611
  21 6   H  1S         -0.02026   0.05010   0.00233   0.02133  -0.00988
  22 7   H  1S          0.10569   0.00752  -0.00437  -0.04269   0.00386
  23 8   H  1S         -0.30836  -0.70299   0.02409  -0.04223   0.08134
  24 9   H  1S         -0.00486  -0.06153   0.00947   0.02472  -0.11039
                          11        12        13        14        15
  11        1PY         1.25612
  12        1PZ         0.00184   1.73238
  13 4   C  1S          0.42010  -0.00516   1.25342
  14        1PX        -0.23728   0.00491   0.07735   0.99539
  15        1PY        -0.76446   0.00337   0.07260  -0.01845   0.82535
  16        1PZ         0.00429   0.43023  -0.01134   0.00661  -0.01126
  17 5   C  1S         -0.06127  -0.01613   0.30008  -0.34646   0.26908
  18        1PX        -0.04948   0.00603   0.44248  -0.35335   0.40125
  19        1PY         0.06769   0.00195  -0.29543   0.31746  -0.12224
  20        1PZ         0.00417  -0.26235  -0.02521   0.02865  -0.02140
  21 6   H  1S          0.09358   0.00854  -0.05474   0.05820  -0.00952
  22 7   H  1S         -0.07980   0.00111   0.58479   0.75360   0.11244
  23 8   H  1S         -0.01556   0.00034   0.05183  -0.03519  -0.09202
  24 9   H  1S          0.03429  -0.00364   0.05783  -0.04315   0.03780
                          16        17        18        19        20
  16        1PZ         1.03960
  17 5   C  1S          0.04931   1.21994
  18        1PX         0.01487  -0.02281   0.90582
  19        1PY        -0.01313   0.08557   0.00904   0.99250
  20        1PZ         0.83630   0.02738  -0.00007  -0.00590   1.09399
  21 6   H  1S         -0.01866   0.58738   0.01880   0.77243  -0.03203
  22 7   H  1S          0.00051  -0.05926  -0.08588   0.05439   0.00922
  23 8   H  1S         -0.00260   0.05864  -0.06134  -0.04420  -0.00599
  24 9   H  1S          0.00132  -0.04072   0.04024   0.03437   0.00610
                          21        22        23        24
  21 6   H  1S          0.83600
  22 7   H  1S          0.00631   0.81897
  23 8   H  1S         -0.01866  -0.02432   0.81918
  24 9   H  1S         -0.00801  -0.01265   0.00003   0.83366
    Full Mulliken population analysis:
                           1         2         3         4         5
   1 1   C  1S          1.20347
   2        1PX         0.00000   1.00385
   3        1PY         0.00000   0.00000   0.92082
   4        1PZ         0.00000   0.00000   0.00000   1.06016
   5 2   C  1S          0.00000   0.00000   0.00000   0.00000   1.22848
   6        1PX         0.00000   0.00000   0.00000   0.00000   0.00000
   7        1PY         0.00000   0.00000   0.00000   0.00000   0.00000
   8        1PZ         0.00000   0.00000   0.00000   0.00000   0.00000
   9 3   O  1S          0.00000   0.00000   0.00000   0.00000   0.00000
  10        1PX         0.00000   0.00000   0.00000   0.00000   0.00000
  11        1PY         0.00000   0.00000   0.00000   0.00000   0.00000
  12        1PZ         0.00000   0.00000   0.00000   0.00000   0.00000
  13 4   C  1S          0.00000   0.00000   0.00000   0.00000   0.00000
  14        1PX         0.00000   0.00000   0.00000   0.00000   0.00000
  15        1PY         0.00000   0.00000   0.00000   0.00000   0.00000
  16        1PZ         0.00000   0.00000   0.00000   0.00000   0.00000
  17 5   C  1S          0.00000   0.00000   0.00000   0.00000   0.00000
  18        1PX         0.00000   0.00000   0.00000   0.00000   0.00000
  19        1PY         0.00000   0.00000   0.00000   0.00000   0.00000
  20        1PZ         0.00000   0.00000   0.00000   0.00000   0.00000
  21 6   H  1S          0.00000   0.00000   0.00000   0.00000   0.00000
  22 7   H  1S          0.00000   0.00000   0.00000   0.00000   0.00000
  23 8   H  1S          0.00000   0.00000   0.00000   0.00000   0.00000
  24 9   H  1S          0.00000   0.00000   0.00000   0.00000   0.00000
                           6         7         8         9        10
   6        1PX         0.82052
   7        1PY         0.00000   0.99394
   8        1PZ         0.00000   0.00000   1.06836
   9 3   O  1S          0.00000   0.00000   0.00000   1.86202
  10        1PX         0.00000   0.00000   0.00000   0.00000   1.21605
  11        1PY         0.00000   0.00000   0.00000   0.00000   0.00000
  12        1PZ         0.00000   0.00000   0.00000   0.00000   0.00000
  13 4   C  1S          0.00000   0.00000   0.00000   0.00000   0.00000
  14        1PX         0.00000   0.00000   0.00000   0.00000   0.00000
  15        1PY         0.00000   0.00000   0.00000   0.00000   0.00000
  16        1PZ         0.00000   0.00000   0.00000   0.00000   0.00000
  17 5   C  1S          0.00000   0.00000   0.00000   0.00000   0.00000
  18        1PX         0.00000   0.00000   0.00000   0.00000   0.00000
  19        1PY         0.00000   0.00000   0.00000   0.00000   0.00000
  20        1PZ         0.00000   0.00000   0.00000   0.00000   0.00000
  21 6   H  1S          0.00000   0.00000   0.00000   0.00000   0.00000
  22 7   H  1S          0.00000   0.00000   0.00000   0.00000   0.00000
  23 8   H  1S          0.00000   0.00000   0.00000   0.00000   0.00000
  24 9   H  1S          0.00000   0.00000   0.00000   0.00000   0.00000
                          11        12        13        14        15
  11        1PY         1.25612
  12        1PZ         0.00000   1.73238
  13 4   C  1S          0.00000   0.00000   1.25342
  14        1PX         0.00000   0.00000   0.00000   0.99539
  15        1PY         0.00000   0.00000   0.00000   0.00000   0.82535
  16        1PZ         0.00000   0.00000   0.00000   0.00000   0.00000
  17 5   C  1S          0.00000   0.00000   0.00000   0.00000   0.00000
  18        1PX         0.00000   0.00000   0.00000   0.00000   0.00000
  19        1PY         0.00000   0.00000   0.00000   0.00000   0.00000
  20        1PZ         0.00000   0.00000   0.00000   0.00000   0.00000
  21 6   H  1S          0.00000   0.00000   0.00000   0.00000   0.00000
  22 7   H  1S          0.00000   0.00000   0.00000   0.00000   0.00000
  23 8   H  1S          0.00000   0.00000   0.00000   0.00000   0.00000
  24 9   H  1S          0.00000   0.00000   0.00000   0.00000   0.00000
                          16        17        18        19        20
  16        1PZ         1.03960
  17 5   C  1S          0.00000   1.21994
  18        1PX         0.00000   0.00000   0.90582
  19        1PY         0.00000   0.00000   0.00000   0.99250
  20        1PZ         0.00000   0.00000   0.00000   0.00000   1.09399
  21 6   H  1S          0.00000   0.00000   0.00000   0.00000   0.00000
  22 7   H  1S          0.00000   0.00000   0.00000   0.00000   0.00000
  23 8   H  1S          0.00000   0.00000   0.00000   0.00000   0.00000
  24 9   H  1S          0.00000   0.00000   0.00000   0.00000   0.00000
                          21        22        23        24
  21 6   H  1S          0.83600
  22 7   H  1S          0.00000   0.81897
  23 8   H  1S          0.00000   0.00000   0.81918
  24 9   H  1S          0.00000   0.00000   0.00000   0.83366
     Gross orbital populations:
                           1
   1 1   C  1S          1.20347
   2        1PX         1.00385
   3        1PY         0.92082
   4        1PZ         1.06016
   5 2   C  1S          1.22848
   6        1PX         0.82052
   7        1PY         0.99394
   8        1PZ         1.06836
   9 3   O  1S          1.86202
  10        1PX         1.21605
  11        1PY         1.25612
  12        1PZ         1.73238
  13 4   C  1S          1.25342
  14        1PX         0.99539
  15        1PY         0.82535
  16        1PZ         1.03960
  17 5   C  1S          1.21994
  18        1PX         0.90582
  19        1PY         0.99250
  20        1PZ         1.09399
  21 6   H  1S          0.83600
  22 7   H  1S          0.81897
  23 8   H  1S          0.81918
  24 9   H  1S          0.83366
          Condensed to atoms (all electrons):
               1          2          3          4          5          6
     1  C    4.188291   0.000000   0.000000   0.000000   0.000000   0.000000
     2  C    0.000000   4.111300   0.000000   0.000000   0.000000   0.000000
     3  O    0.000000   0.000000   6.066576   0.000000   0.000000   0.000000
     4  C    0.000000   0.000000   0.000000   4.113761   0.000000   0.000000
     5  C    0.000000   0.000000   0.000000   0.000000   4.212258   0.000000
     6  H    0.000000   0.000000   0.000000   0.000000   0.000000   0.835997
     7  H    0.000000   0.000000   0.000000   0.000000   0.000000   0.000000
     8  H    0.000000   0.000000   0.000000   0.000000   0.000000   0.000000
     9  H    0.000000   0.000000   0.000000   0.000000   0.000000   0.000000
               7          8          9
     1  C    0.000000   0.000000   0.000000
     2  C    0.000000   0.000000   0.000000
     3  O    0.000000   0.000000   0.000000
     4  C    0.000000   0.000000   0.000000
     5  C    0.000000   0.000000   0.000000
     6  H    0.000000   0.000000   0.000000
     7  H    0.818971   0.000000   0.000000
     8  H    0.000000   0.819181   0.000000
     9  H    0.000000   0.000000   0.833664
 Mulliken charges:
               1
     1  C   -0.188291
     2  C   -0.111300
     3  O   -0.066576
     4  C   -0.113761
     5  C   -0.212258
     6  H    0.164003
     7  H    0.181029
     8  H    0.180819
     9  H    0.166336
 Sum of Mulliken charges =   0.00000
 Mulliken charges with hydrogens summed into heavy atoms:
               1
     1  C   -0.021955
     2  C    0.069519
     3  O   -0.066576
     4  C    0.067267
     5  C   -0.048255
 Charge=              0.0000 electrons
 Dipole moment (field-independent basis, Debye):
    X=             -0.2721    Y=              0.3306    Z=             -0.0091  Tot=              0.4283
 N-N= 1.039071843398D+02 E-N=-1.718051381846D+02  KE=-1.657729489041D+01
 Orbital energies and kinetic energies (alpha):
                                 1                 2
   1         O                -1.591665         -1.338876
   2         O                -1.257366         -1.059297
   3         O                -1.093982         -0.953346
   4         O                -0.826867         -0.701710
   5         O                -0.801652         -0.709003
   6         O                -0.682953         -0.602958
   7         O                -0.610394         -0.494527
   8         O                -0.547841         -0.495744
   9         O                -0.518771         -0.424502
  10         O                -0.500129         -0.431186
  11         O                -0.487749         -0.418470
  12         O                -0.403406         -0.345661
  13         O                -0.350983         -0.313367
  14         V                 0.035683         -0.191440
  15         V                 0.070419         -0.185443
  16         V                 0.103373         -0.200709
  17         V                 0.130979         -0.211191
  18         V                 0.137620         -0.240266
  19         V                 0.153082         -0.193542
  20         V                 0.175023         -0.171083
  21         V                 0.181262         -0.163489
  22         V                 0.186930         -0.123435
  23         V                 0.206444         -0.118991
  24         V                 0.224779         -0.045339
 Total kinetic energy from orbitals=-1.657729489041D+01
 Leave Link  601 at Tue Dec 15 16:11:17 2015, MaxMem=    33554432 cpu:         0.0
 (Enter /home/Applications/g09/g09/l701.exe)
 Compute integral first derivatives.
 ... and contract with generalized density number  6.
 Leave Link  701 at Tue Dec 15 16:11:17 2015, MaxMem=    33554432 cpu:         0.0
 (Enter /home/Applications/g09/g09/l702.exe)
 L702 exits ... SP integral derivatives will be done elsewhere.
 Leave Link  702 at Tue Dec 15 16:11:17 2015, MaxMem=    33554432 cpu:         0.0
 (Enter /home/Applications/g09/g09/l703.exe)
 Compute integral first derivatives, UseDBF=F ICtDFT=           0.
 Integral derivatives from FoFJK, PRISM(SPDF).
 Calling FoFJK, ICntrl=  10005127 FMM=F ISym2X=0 I1Cent= 0 IOpClX= 0 NMat=1 NMatS=1 NMatT=0.
 FoFJK:  IHMeth= 8 ICntrl=10005127 DoSepK=F KAlg= 0 I1Cent=   0 FoldK=F
 IRaf=         0 NMat=   1 IRICut=       1 DoRegI=T DoRafI=F ISym2E= 0.
 FoFCou: FMM=F IPFlag=           0 FMFlag=      100000 FMFlg1=         800
         NFxFlg=           0 DoJE=F BraDBF=F KetDBF=F FulRan=T
         wScrn=  0.000000 ICntrl=10005127 IOpCl=  0 I1Cent=           0 NGrid=           0
         NMat0=    1 NMatS0=      1 NMatT0=    0 NMatD0=    1 NMtDS0=    0 NMtDT0=    0
 Symmetry not used in FoFCou.
 Leave Link  703 at Tue Dec 15 16:11:17 2015, MaxMem=    33554432 cpu:         0.0
 (Enter /home/Applications/g09/g09/l716.exe)
 Dipole        =-1.49216423D-01 2.45154950D-01 1.10203545D-02
 ***** Axes restored to original set *****
 -------------------------------------------------------------------
 Center     Atomic                   Forces (Hartrees/Bohr)
 Number     Number              X              Y              Z
 -------------------------------------------------------------------
      1        6           0.251387604    0.021100724   -0.011381031
      2        6          -0.180017778   -0.164197878    0.000223860
      3        8          -0.084292226   -0.011895005    0.002603676
      4        6          -0.082635036    0.137236672   -0.005395864
      5        6           0.089461085   -0.010363519    0.012572253
      6        1           0.012304402   -0.003680015   -0.004798771
      7        1           0.014470239   -0.012984985    0.001498746
      8        1           0.008107082    0.028126020    0.001275367
      9        1          -0.028785370    0.016657987    0.003401764
 -------------------------------------------------------------------
 Cartesian Forces:  Max     0.251387604 RMS     0.078621445
 Z-matrix is all fixed cartesians, so copy forces.
 Force constants in Cartesian coordinates: 
                1             2             3             4             5 
      1  0.109223D+01
      2  0.519477D-01  0.796983D+00
      3  0.554274D-03 -0.153707D-01  0.246453D+00
      4 -0.725308D+00 -0.141690D+00 -0.646925D-02  0.112904D+01
      5 -0.115006D+00 -0.241921D+00 -0.106504D-02  0.368239D-01  0.831857D+00
      6 -0.109984D-01 -0.180277D-02 -0.133100D+00  0.712420D-02  0.147930D-01
      7 -0.760246D-02  0.303512D-01  0.501403D-03 -0.291379D+00  0.159294D+00
      8 -0.605493D-02  0.242681D-01  0.422100D-03  0.207200D+00 -0.346274D+00
      9 -0.787744D-03  0.122355D-02  0.802147D-02  0.401944D-02 -0.573207D-02
     10  0.976932D-02 -0.569476D-03 -0.672315D-03  0.226926D-01  0.181432D-01
     11  0.347456D-01 -0.206137D-02 -0.265454D-02 -0.192095D-01 -0.153840D-01
     12 -0.290871D-02  0.419710D-03 -0.609319D-03 -0.334780D-03 -0.542091D-03
     13 -0.168668D+00 -0.456644D-03  0.672898D-03  0.931986D-02 -0.375017D-01
     14 -0.289449D-01 -0.426373D+00  0.238652D-01 -0.508386D-03  0.204639D-02
     15  0.820653D-03  0.207631D-01 -0.904641D-01  0.385551D-05 -0.466557D-03
     16  0.190120D-01 -0.101838D-02  0.608182D-03  0.170251D-04 -0.373476D-04
     17 -0.216978D-01  0.107610D-02 -0.232326D-02 -0.812720D-05  0.178284D-04
     18  0.344972D-02  0.874582D-03  0.201443D-01 -0.135905D-03  0.298131D-03
     19  0.270516D-04  0.199913D-04  0.406329D-03  0.118715D-05  0.000000D+00
     20  0.134709D-04  0.995505D-05  0.202339D-03  0.000000D+00  0.000000D+00
     21  0.441782D-03  0.326480D-03  0.663580D-02  0.100213D-03 -0.182734D-04
     22  0.669898D-02 -0.267722D-01 -0.122237D-02 -0.140052D+00 -0.789984D-01
     23 -0.333952D-02  0.134126D-01 -0.873441D-03 -0.765482D-01 -0.254608D+00
     24  0.145268D-03 -0.215896D-02  0.352208D-01 -0.395645D-02 -0.720790D-02
     25 -0.226159D+00  0.881877D-01  0.562085D-02 -0.432941D-02  0.172825D-01
     26  0.883364D-01 -0.165395D+00 -0.220270D-02 -0.606004D-02  0.242658D-01
     27  0.928311D-02 -0.427499D-02 -0.923017D-01 -0.351317D-03 -0.591892D-04
                6             7             8             9            10 
      6  0.228896D+00
      7  0.388919D-02  0.601620D+00
      8 -0.639880D-02  0.336493D-01  0.692331D+00
      9 -0.534223D-01 -0.994115D-02  0.297245D-02  0.611794D-01
     10 -0.365983D-03 -0.334497D+00 -0.240710D+00  0.399025D-02  0.964889D+00
     11 -0.503706D-05 -0.196108D+00 -0.377056D+00  0.851322D-03  0.249407D-01
     12 -0.139337D-02  0.555807D-02  0.321126D-02 -0.488425D-01 -0.282237D-01
     13  0.348202D-02 -0.803683D-02  0.682049D-02  0.168920D-02 -0.503969D+00
     14  0.513835D-04 -0.281467D-01  0.238777D-01  0.249268D-02  0.105515D+00
     15 -0.136364D-02  0.833682D-04  0.293117D-03  0.755494D-02  0.225550D-01
     16 -0.688501D-03  0.663317D-05 -0.365040D-05  0.146134D-03 -0.565382D-02
     17  0.328666D-03 -0.318038D-04  0.175024D-04 -0.700660D-03  0.621340D-02
     18  0.549603D-02  0.299205D-03 -0.164660D-03  0.659172D-02  0.191448D-02
     19  0.586337D-04  0.199178D-01 -0.168627D-01  0.261113D-04 -0.153249D+00
     20  0.169287D-04  0.109185D-01 -0.924399D-02  0.107913D-05  0.864570D-01
     21  0.494953D-02 -0.127138D-03  0.165553D-03  0.430596D-02  0.449970D-03
     22 -0.373321D-02  0.199712D-01  0.159619D-01  0.846209D-03 -0.145574D-05
     23 -0.703652D-02 -0.992874D-02 -0.793137D-02 -0.626914D-03 -0.285906D-05
     24 -0.828011D-01 -0.212609D-03 -0.267432D-03  0.489297D-02  0.851807D-04
     25  0.123201D-02  0.000000D+00  0.000000D+00  0.115462D-04  0.190578D-04
     26  0.531559D-04  0.249394D-05  0.115716D-04 -0.481433D-03  0.130744D-04
     27  0.327390D-01 -0.503434D-04 -0.233588D-03  0.971832D-02  0.267168D-03
               11            12            13            14            15 
     11  0.844393D+00
     12  0.378775D-02  0.195792D+00
     13  0.816080D-01  0.266870D-01  0.897747D+00
     14 -0.211830D+00 -0.713206D-02  0.492494D-01  0.824953D+00
     15 -0.646993D-02 -0.102463D+00 -0.117602D-01 -0.367546D-02  0.216364D+00
     16 -0.194364D-01 -0.196334D-02 -0.249148D+00 -0.120859D+00 -0.119210D-01
     17  0.216835D-01  0.399357D-03 -0.125832D+00 -0.224851D+00 -0.915164D-02
     18  0.260471D-02  0.222869D-01 -0.176053D-01 -0.137623D-01 -0.844424D-01
     19  0.934458D-01  0.971121D-03  0.702939D-02  0.245662D-01  0.261324D-03
     20 -0.259756D+00 -0.199095D-03  0.385181D-02  0.134769D-01  0.579373D-04
     21  0.170381D-02 -0.729904D-01  0.466711D-03 -0.347095D-02  0.277573D-01
     22  0.000000D+00 -0.718995D-04  0.000000D+00  0.000000D+00 -0.695018D-05
     23  0.000000D+00 -0.141210D-03  0.926359D-05 -0.203213D-04 -0.374622D-03
     24 -0.155324D-04  0.420710D-02 -0.222234D-03  0.487510D-03  0.898721D-02
     25  0.140838D-04  0.286258D-03  0.157252D-01 -0.870828D-03 -0.360733D-04
     26  0.966205D-05  0.196384D-03  0.222511D-01 -0.128113D-02 -0.975935D-03
     27  0.197439D-03  0.401301D-02 -0.341015D-02  0.114394D-02  0.180698D-01
               16            17            18            19            20 
     16  0.235719D+00
     17  0.141320D+00  0.202044D+00
     18  0.131816D-01  0.107912D-01  0.468181D-01
     19 -0.136216D-04  0.653110D-04 -0.614437D-03  0.126288D+00
     20 -0.678314D-05  0.325229D-04 -0.305971D-03 -0.101234D+00  0.255480D+00
     21 -0.222456D-03  0.106660D-02 -0.100344D-01 -0.110908D-02  0.226781D-03
     22  0.000000D+00  0.000000D+00  0.000000D+00  0.000000D+00  0.000000D+00
     23  0.000000D+00  0.000000D+00  0.000000D+00  0.000000D+00  0.000000D+00
     24  0.000000D+00  0.000000D+00  0.000000D+00  0.000000D+00  0.000000D+00
     25  0.613029D-04 -0.292638D-04 -0.489357D-03  0.000000D+00  0.000000D+00
     26  0.420561D-04 -0.200761D-04 -0.335717D-03  0.000000D+00  0.000000D+00
     27  0.859394D-03 -0.410245D-03 -0.686020D-02  0.000000D+00  0.000000D+00
               21            22            23            24            25 
     21  0.393762D-01
     22  0.000000D+00  0.113383D+00
     23  0.000000D+00  0.898093D-01  0.249176D+00
     24  0.000000D+00  0.417743D-02  0.847107D-02  0.434467D-01
     25  0.000000D+00  0.000000D+00  0.000000D+00 -0.165781D-04  0.214683D+00
     26  0.000000D+00  0.000000D+00 -0.288138D-04  0.691245D-03 -0.104585D+00
     27  0.000000D+00  0.107909D-04  0.581643D-03 -0.139537D-01 -0.660866D-02
               26            27 
     26  0.142438D+00
     27  0.305500D-02  0.485754D-01
 Leave Link  716 at Tue Dec 15 16:11:17 2015, MaxMem=    33554432 cpu:         0.0
 (Enter /home/Applications/g09/g09/l103.exe)

 GradGradGradGradGradGradGradGradGradGradGradGradGradGradGradGradGradGrad
 Berny optimization.
 Search for a local minimum.
 Step number   1 out of a maximum of    2
 All quantities printed in internal units (Hartrees-Bohrs-Radians)
 Second derivative matrix not updated -- first step.
 ITU=  0
     Eigenvalues ---    0.02145   0.03119   0.06617   0.07077   0.07378
     Eigenvalues ---    0.09491   0.12948   0.14874   0.15792   0.22777
     Eigenvalues ---    0.26246   0.33358   0.40038   0.44590   0.59297
     Eigenvalues ---    0.77650   1.06998   1.34350   1.37956   1.61199
     Eigenvalues ---    1.95726
 Quadratic step=5.196D-01 exceeds max=3.000D-01 adjusted using Lamda=-2.226D-01.
 Angle between NR and scaled steps=  26.47 degrees.
 Angle between quadratic step and forces=  28.32 degrees.
 Linear search not attempted -- first point.
 TrRot= -0.006161 -0.003585  0.000319  0.840823 -0.000662 -0.839046
 Variable       Old X    -DE/DX   Delta X   Delta X   Delta X     New X
                                 (Linear)    (Quad)   (Total)
    X1        1.74891   0.25139   0.00000   0.15088   0.14722   1.89613
    Y1       -1.40255   0.02110   0.00000  -0.01788  -0.01812  -1.42066
    Z1        0.07792  -0.01138   0.00000  -0.02092  -0.02046   0.05746
    X2       -0.58235  -0.18002   0.00000  -0.07175  -0.07418  -0.65653
    Y2       -1.98469  -0.16420   0.00000  -0.12848  -0.13325  -2.11794
    Z2        0.05185   0.00022   0.00000   0.00556   0.00455   0.05640
    X3       -2.20328  -0.08429   0.00000  -0.09755  -0.10380  -2.30708
    Y3        0.04125  -0.01190   0.00000  -0.00863  -0.01635   0.02491
    Z3        0.09215   0.00260   0.00000   0.00429   0.00361   0.09575
    X4       -0.56861  -0.08264   0.00000  -0.06970  -0.07959  -0.64820
    Y4        1.97204   0.13724   0.00000   0.11407   0.10932   2.08136
    Z4        0.06618  -0.00540   0.00000  -0.01431  -0.01325   0.05293
    X5        1.89647   0.08946   0.00000   0.07672   0.06828   1.96476
    Y5        1.26806  -0.01036   0.00000   0.01974   0.01968   1.28773
    Z5       -0.06330   0.01257   0.00000   0.02806   0.02988  -0.03342
    X6        3.41802   0.01230   0.00000   0.07545   0.06461   3.48263
    Y6        2.61872  -0.00368   0.00000   0.00172   0.00432   2.62304
    Z6        0.04654  -0.00480   0.00000  -0.00853  -0.00538   0.04116
    X7       -1.59018   0.01447   0.00000   0.00311  -0.00998  -1.60017
    Y7        3.83567  -0.01298   0.00000   0.05093   0.04449   3.88016
    Z7        0.07191   0.00150   0.00000  -0.00303  -0.00150   0.07041
    X8       -1.54318   0.00811   0.00000  -0.03156  -0.03072  -1.57390
    Y8       -3.91562   0.02813   0.00000  -0.01407  -0.02043  -3.93605
    Z8       -0.02938   0.00128   0.00000   0.00604   0.00373  -0.02565
    X9        3.51415  -0.02879   0.00000   0.01962   0.01816   3.53231
    Y9       -2.65994   0.01666   0.00000   0.00765   0.01034  -2.64959
    Z9        0.01353   0.00340   0.00000  -0.00176  -0.00119   0.01234
         Item               Value     Threshold  Converged?
 Maximum Force            0.251388     0.000450     NO 
 RMS     Force            0.078621     0.000300     NO 
 Maximum Displacement     0.147220     0.001800     NO 
 RMS     Displacement     0.057502     0.001200     NO 
 Predicted change in Energy=-6.396976D-02
 GradGradGradGradGradGradGradGradGradGradGradGradGradGradGradGradGradGrad

 Leave Link  103 at Tue Dec 15 16:11:17 2015, MaxMem=    33554432 cpu:         0.0
 (Enter /home/Applications/g09/g09/l9999.exe)
 1\1\GINC-DUSTIN-DESKTOP\Force\RAM1-FC\STO-3G\C4H4O1\DUSTIN\15-Dec-2015
 \0\\#P AM1(Input,print) CIS(Singlets,NStates=15) pop(full) force\\AM1-
 Reparam Input\\0,1\C,0.925481,-0.742195,0.041232\C,-0.308167,-1.050251
 ,0.027437\O,-1.165924,0.021831,0.048762\C,-0.300895,1.043558,0.03502\C
 ,1.003571,0.671026,-0.033497\H,1.808737,1.385769,0.024626\H,-0.841488,
 2.029751,0.038051\H,-0.816617,-2.072056,-0.015549\H,1.859608,-1.407578
 ,0.00716\\Version=ES64L-G09RevD.01\State=1-A\HF=0.042211\RMSD=7.308e-0
 9\RMSF=7.862e-02\Dipole=0.2854303,0.0276676,-0.0158742\PG=C01 [X(C4H4O
 1)]\\@


 THE MORE PROGRESS PHYSICAL SCIENCES MAKE, THE MORE THEY TEND TO ENTER
 THE DOMAIN OF MATHEMATICS, WHICH IS A KIND OF CENTRE TO WHICH THEY ALL
 CONVERGE.  WE MAY EVEN JUDGE THE DEGREE OF PERFECTION TO WHICH A 
 SCIENCE HAS ARRIVED BY THE FACILITY WITH WHICH IT MAY BE SUBMITTED
 TO CALCULATION.

                               -- ADOLPHE QUETELET, 1796-1874
 Job cpu time:       0 days  0 hours  0 minutes  0.6 seconds.
 File lengths (MBytes):  RWF=      7 Int=      0 D2E=      0 Chk=      2 Scr=      1
 Normal termination of Gaussian 09 at Tue Dec 15 16:11:17 2015.
