 Entering Gaussian System, Link 0=g09
 Input=FuranAM1_59.com
 Output=FuranAM1_59.log
 Initial command:
 /home/Applications/g09/g09/l1.exe "/home/Applications/g09/scratch/Gau-6052.inp" -scrdir="/home/Applications/g09/scratch/"
 Entering Link 1 = /home/Applications/g09/g09/l1.exe PID=      6054.
  
 Copyright (c) 1988,1990,1992,1993,1995,1998,2003,2009,2013,
            Gaussian, Inc.  All Rights Reserved.
  
 This is part of the Gaussian(R) 09 program.  It is based on
 the Gaussian(R) 03 system (copyright 2003, Gaussian, Inc.),
 the Gaussian(R) 98 system (copyright 1998, Gaussian, Inc.),
 the Gaussian(R) 94 system (copyright 1995, Gaussian, Inc.),
 the Gaussian 92(TM) system (copyright 1992, Gaussian, Inc.),
 the Gaussian 90(TM) system (copyright 1990, Gaussian, Inc.),
 the Gaussian 88(TM) system (copyright 1988, Gaussian, Inc.),
 the Gaussian 86(TM) system (copyright 1986, Carnegie Mellon
 University), and the Gaussian 82(TM) system (copyright 1983,
 Carnegie Mellon University). Gaussian is a federally registered
 trademark of Gaussian, Inc.
  
 This software contains proprietary and confidential information,
 including trade secrets, belonging to Gaussian, Inc.
  
 This software is provided under written license and may be
 used, copied, transmitted, or stored only in accord with that
 written license.
  
 The following legend is applicable only to US Government
 contracts under FAR:
  
                    RESTRICTED RIGHTS LEGEND
  
 Use, reproduction and disclosure by the US Government is
 subject to restrictions as set forth in subparagraphs (a)
 and (c) of the Commercial Computer Software - Restricted
 Rights clause in FAR 52.227-19.
  
 Gaussian, Inc.
 340 Quinnipiac St., Bldg. 40, Wallingford CT 06492
  
  
 ---------------------------------------------------------------
 Warning -- This program may not be used in any manner that
 competes with the business of Gaussian, Inc. or will provide
 assistance to any competitor of Gaussian, Inc.  The licensee
 of this program is prohibited from giving any competitor of
 Gaussian, Inc. access to this program.  By using this program,
 the user acknowledges that Gaussian, Inc. is engaged in the
 business of creating and licensing software in the field of
 computational chemistry and represents and warrants to the
 licensee that it is not a competitor of Gaussian, Inc. and that
 it will not use this program in any manner prohibited above.
 ---------------------------------------------------------------
  

 Cite this work as:
 Gaussian 09, Revision D.01,
 M. J. Frisch, G. W. Trucks, H. B. Schlegel, G. E. Scuseria, 
 M. A. Robb, J. R. Cheeseman, G. Scalmani, V. Barone, B. Mennucci, 
 G. A. Petersson, H. Nakatsuji, M. Caricato, X. Li, H. P. Hratchian, 
 A. F. Izmaylov, J. Bloino, G. Zheng, J. L. Sonnenberg, M. Hada, 
 M. Ehara, K. Toyota, R. Fukuda, J. Hasegawa, M. Ishida, T. Nakajima, 
 Y. Honda, O. Kitao, H. Nakai, T. Vreven, J. A. Montgomery, Jr., 
 J. E. Peralta, F. Ogliaro, M. Bearpark, J. J. Heyd, E. Brothers, 
 K. N. Kudin, V. N. Staroverov, T. Keith, R. Kobayashi, J. Normand, 
 K. Raghavachari, A. Rendell, J. C. Burant, S. S. Iyengar, J. Tomasi, 
 M. Cossi, N. Rega, J. M. Millam, M. Klene, J. E. Knox, J. B. Cross, 
 V. Bakken, C. Adamo, J. Jaramillo, R. Gomperts, R. E. Stratmann, 
 O. Yazyev, A. J. Austin, R. Cammi, C. Pomelli, J. W. Ochterski, 
 R. L. Martin, K. Morokuma, V. G. Zakrzewski, G. A. Voth, 
 P. Salvador, J. J. Dannenberg, S. Dapprich, A. D. Daniels, 
 O. Farkas, J. B. Foresman, J. V. Ortiz, J. Cioslowski, 
 and D. J. Fox, Gaussian, Inc., Wallingford CT, 2013.
 
 ******************************************
 Gaussian 09:  ES64L-G09RevD.01 24-Apr-2013
                15-Dec-2015 
 ******************************************
 ------------------------------------------------------------
 #P AM1(Input,print) CIS(Singlets,NStates=15) pop(full) force
 ------------------------------------------------------------
 1/10=7,30=1,38=1/1,3;
 2/12=2,17=6,18=5,40=1/2;
 3/5=2,16=1,25=1,41=700000,71=1,135=100,136=1/1,2,8,3;
 4/35=1/1;
 5/5=2,35=1,38=5/2;
 8/6=1,10=1,108=15/1;
 9/15=2,41=15,42=1,48=1,49=10/14;
 10/5=4/2;
 6/7=3,18=1/1;
 7/12=6,13=5,29=1/1,2,3,16;
 1/10=7,30=1/3;
 99//99;
 Leave Link    1 at Tue Dec 15 16:22:16 2015, MaxMem=           0 cpu:         0.0
 (Enter /home/Applications/g09/g09/l101.exe)
 -----------------
 AM1-Reparam Input
 -----------------
 Symbolic Z-matrix:
 Charge =  0 Multiplicity = 1
 6                     0.98863  -0.76453   0.03184 
 6                    -0.30198  -1.14053  -0.04831 
 8                    -1.1901    0.00245   0.0446 
 6                    -0.33612   1.12944  -0.00585 
 6                     0.91653   0.72411   0.03626 
 1                     1.85762   1.36982  -0.01401 
 1                    -0.81331   2.08546   0.00787 
 1                    -0.79135  -2.00523  -0.03815 
 1                     1.85767  -1.39035   0.01275 
 
 NAtoms=      9 NQM=        9 NQMF=       0 NMMI=      0 NMMIF=      0
                NMic=       0 NMicF=      0.
                    Isotopes and Nuclear Properties:
 (Nuclear quadrupole moments (NQMom) in fm**2, nuclear magnetic moments (NMagM)
  in nuclear magnetons)

  Atom         1           2           3           4           5           6           7           8           9
 IAtWgt=          12          12          16          12          12           1           1           1           1
 AtmWgt=  12.0000000  12.0000000  15.9949146  12.0000000  12.0000000   1.0078250   1.0078250   1.0078250   1.0078250
 NucSpn=           0           0           0           0           0           1           1           1           1
 AtZEff=   0.0000000   0.0000000   0.0000000   0.0000000   0.0000000   0.0000000   0.0000000   0.0000000   0.0000000
 NQMom=    0.0000000   0.0000000   0.0000000   0.0000000   0.0000000   0.0000000   0.0000000   0.0000000   0.0000000
 NMagM=    0.0000000   0.0000000   0.0000000   0.0000000   0.0000000   2.7928460   2.7928460   2.7928460   2.7928460
 AtZNuc=   6.0000000   6.0000000   8.0000000   6.0000000   6.0000000   1.0000000   1.0000000   1.0000000   1.0000000
 Leave Link  101 at Tue Dec 15 16:22:16 2015, MaxMem=    33554432 cpu:         0.0
 (Enter /home/Applications/g09/g09/l103.exe)

 GradGradGradGradGradGradGradGradGradGradGradGradGradGradGradGradGradGrad
 Berny optimization.
 Initialization pass.
 Trust Radius=3.00D-01 FncErr=1.00D-07 GrdErr=1.00D-07
 Number of steps in this run=      2 maximum allowed number of steps=      2.
 GradGradGradGradGradGradGradGradGradGradGradGradGradGradGradGradGradGrad

 Leave Link  103 at Tue Dec 15 16:22:16 2015, MaxMem=    33554432 cpu:         0.0
 (Enter /home/Applications/g09/g09/l202.exe)
                          Input orientation:                          
 ---------------------------------------------------------------------
 Center     Atomic      Atomic             Coordinates (Angstroms)
 Number     Number       Type             X           Y           Z
 ---------------------------------------------------------------------
      1          6           0        0.988626   -0.764534    0.031843
      2          6           0       -0.301978   -1.140530   -0.048312
      3          8           0       -1.190098    0.002450    0.044603
      4          6           0       -0.336119    1.129439   -0.005846
      5          6           0        0.916533    0.724113    0.036257
      6          1           0        1.857624    1.369815   -0.014008
      7          1           0       -0.813310    2.085461    0.007870
      8          1           0       -0.791352   -2.005232   -0.038153
      9          1           0        1.857672   -1.390348    0.012749
 ---------------------------------------------------------------------
                    Distance matrix (angstroms):
                    1          2          3          4          5
     1  C    0.000000
     2  C    1.346646   0.000000
     3  O    2.309819   1.450446   0.000000
     4  C    2.311602   2.270623   1.414896   0.000000
     5  C    1.490398   2.229084   2.226828   1.317269   0.000000
     6  H    2.304931   3.311629   3.340918   2.206888   1.142414
     7  H    3.371946   3.266747   2.117133   1.068587   2.201461
     8  H    2.170841   0.993630   2.048569   3.167719   3.220517
     9  H    1.071097   2.174908   3.351090   3.341016   2.314571
                    6          7          8          9
     6  H    0.000000
     7  H    2.765233   0.000000
     8  H    4.290524   4.091011   0.000000
     9  H    2.760293   4.383539   2.719927   0.000000
 Stoichiometry    C4H4O
 Framework group  C1[X(C4H4O)]
 Deg. of freedom    21
 Full point group                 C1      NOp   1
 Largest Abelian subgroup         C1      NOp   1
 Largest concise Abelian subgroup C1      NOp   1
                         Standard orientation:                         
 ---------------------------------------------------------------------
 Center     Atomic      Atomic             Coordinates (Angstroms)
 Number     Number       Type             X           Y           Z
 ---------------------------------------------------------------------
      1          6           0       -1.019760    0.708164   -0.025687
      2          6           0       -0.988633   -0.636175    0.046698
      3          8           0        0.370198   -1.136602   -0.036632
      4          6           0        1.185691    0.017817    0.028300
      5          6           0        0.420975    1.089536   -0.014464
      6          1           0        0.751393    2.181483    0.045415
      7          1           0        2.241335   -0.147917    0.023371
      8          1           0       -1.664749   -1.364004    0.025908
      9          1           0       -1.879206    1.347208   -0.010723
 ---------------------------------------------------------------------
 Rotational constants (GHZ):      9.3557582      8.7510213      4.5273878
 Leave Link  202 at Tue Dec 15 16:22:16 2015, MaxMem=    33554432 cpu:         0.0
 (Enter /home/Applications/g09/g09/l301.exe)

 Semi-emprical parameters in input format:
 Method=8 CoreType=1 PeptideFC=0.0114510000 RIJScale=0.5291770000
 ****
 H       
 PQN=1 NValence=1 F0ss=0.4721550000 ZetaOverlap=1.1880780000 U=-0.4188110000
 Beta=-0.2268830000 CoreKO=1.0589200000 KON=0,0,0,1.0589200000 KON=1,0,1,1.0589200000
 KON=0,1,1,1.0589200000 KON=2,1,1,1.0589200000 EISol=-0.4188110042 EHeat=0.0830298228
 Alpha=1.5252600000
 GCore=0.0085280000,1.4001430000,2.2676710000
 GCore=0.0003530000,1.4001430000,3.4015070000
 GCore=-0.0012730000,0.5600570000,3.9684250000
 ****
 C       
 PQN=2,2 NValence=4 F0ss=0.4494440000 F0sp=0.4215150000 F0pp=0.3768030000 F2pp=0.1898720000
 G1sp=0.2679030000
 ZetaOverlap=1.8086650000,1.6851160000
 U=-1.9120180000,-1.4557970000
 Beta=-0.5775440000,-0.2836780000 DDN=0,1,0.8236740000 DDN=1,1,0.7268010000
 CoreKO=1.1124280000 KON=0,0,0,1.1124280000 KON=1,0,1,0.8219700000 KON=0,1,1,1.1124280000
 KON=2,1,1,0.7783930000 EISol=-4.4398989268 EHeat=0.2723305520 Alpha=1.4014060000
 DipHyp=1.6472532266
 GCore=0.0007890000,1.4001430000,3.0235620000
 GCore=0.0031890000,1.4001430000,3.4959930000
 GCore=-0.0013930000,1.4001430000,3.8739390000
 GCore=-0.0000880000,1.4001430000,5.0077740000
 ****
 O       
 PQN=2,2 NValence=6 F0ss=0.5666750000 F0sp=0.5321300000 F0pp=0.4958710000 F2pp=0.2358080000
 G1sp=0.4343770000
 ZetaOverlap=3.1080320000,2.5240390000
 U=-3.5951870000,-2.8760900000
 Beta=-1.0757550000,-1.0757550000 DDN=0,1,0.4988900000 DDN=1,1,0.4852320000
 CoreKO=0.8822960000 KON=0,0,0,0.8822960000 KON=1,0,1,0.5019540000 KON=0,1,1,0.8822960000
 KON=2,1,1,0.5515580000 EISol=-11.6164441184 EHeat=0.0949133088 Alpha=2.3576810000
 DipHyp=0.9977225968
 GCore=0.0195120000,1.4001430000,1.6023330000
 GCore=0.0056550000,1.9602000000,2.7307880000
 ****
 
 Standard basis: VSTO-6G (5D, 7F)
 Ernie: Thresh=  0.10000D-02 Tol=  0.10000D-05 Strict=F.
  NNHCO=     0 NNPyr=     0 NCTC=     0               EPep=         0.000000000
    EC=        67.908467107  ECS=         1.757870959   EG=         0.318889378
   EHC=         0.000000000  EAt=       -31.051283842  AtH=         1.516354808
 EPDDG=         0.000000000  ECC=        69.985227444 EAtT=        32.567638650
 There are    24 symmetry adapted cartesian basis functions of A   symmetry.
 There are    24 symmetry adapted basis functions of A   symmetry.
    24 basis functions,   144 primitive gaussians,    24 cartesian basis functions
    13 alpha electrons       13 beta electrons
       nuclear repulsion energy       102.5528660941 Hartrees.
 IExCor=    0 DFT=F Ex=HF Corr=None ExCW=0 ScaHFX=  1.000000
 ScaDFX=  1.000000  1.000000  1.000000  1.000000 ScalE2=  1.000000  1.000000
 IRadAn=      0 IRanWt=     -1 IRanGd=            0 ICorTp=0 IEmpDi=  4
 Integral buffers will be    131072 words long.
 Regular integral format.
 Two-electron integral symmetry is turned off.
 Leave Link  301 at Tue Dec 15 16:22:16 2015, MaxMem=    33554432 cpu:         0.0
 (Enter /home/Applications/g09/g09/l302.exe)
 Do NDO integrals.
 NPDir=0 NMtPBC=     1 NCelOv=     1 NCel=       1 NClECP=     1 NCelD=      1
         NCelK=      1 NCelE2=     1 NClLst=     1 CellRange=     0.0.
 One-electron integrals computed using PRISM.
 NBasis=    24 RedAO= F EigKep=  0.00D+00  NBF=    24
 NBsUse=    24 1.00D-04 EigRej=  0.00D+00 NBFU=    24
 Leave Link  302 at Tue Dec 15 16:22:16 2015, MaxMem=    33554432 cpu:         0.0
 (Enter /home/Applications/g09/g09/l308.exe)
 Leave Link  308 at Tue Dec 15 16:22:16 2015, MaxMem=    33554432 cpu:         0.0
 (Enter /home/Applications/g09/g09/l303.exe)
 DipDrv:  MaxL=1.
 Leave Link  303 at Tue Dec 15 16:22:16 2015, MaxMem=    33554432 cpu:         0.0
 (Enter /home/Applications/g09/g09/l401.exe)
 Simple Huckel Guess.
 JPrj=0 DoOrth=F DoCkMO=F.
 Leave Link  401 at Tue Dec 15 16:22:16 2015, MaxMem=    33554432 cpu:         0.0
 (Enter /home/Applications/g09/g09/l502.exe)
 Closed shell SCF:
 Using DIIS extrapolation, IDIIS=  1040.
 Overlap will be assumed to be unity.
 Two-electron integral symmetry not used.
 Keep J ints in memory in canonical form, NReq=888082.
 IVT=       79475 IEndB=       79475 NGot=    33554432 MDV=    33473473
 LenX=    33473473 LenY=    33472456
 Requested convergence on RMS density matrix=1.00D-08 within 128 cycles.
 Requested convergence on MAX density matrix=1.00D-06.
 Requested convergence on             energy=1.00D-06.
 No special actions if energy rises.
 FoFCou: FMM=F IPFlag=           0 FMFlag=           0 FMFlg1=           0
         NFxFlg=           0 DoJE=F BraDBF=F KetDBF=F FulRan=T
         wScrn=  0.000000 ICntrl=     600 IOpCl=  2 I1Cent=           0 NGrid=           0
         NMat0=    1 NMatS0=     54 NMatT0=    0 NMatD0=    1 NMtDS0=    0 NMtDT0=    0
 Symmetry not used in FoFCou.

 Cycle   1  Pass 1  IDiag  1:
 E= 0.334640302006264    
 DIIS: error= 6.24D-02 at cycle   1 NSaved=   1.
 NSaved= 1 IEnMin= 1 EnMin= 0.334640302006264     IErMin= 1 ErrMin= 6.24D-02
 ErrMax= 6.24D-02  0.00D+00 EMaxC= 1.00D-01 BMatC= 1.08D-01 BMatP= 1.08D-01
 IDIUse=3 WtCom= 3.76D-01 WtEn= 6.24D-01
 Coeff-Com:  0.100D+01
 Coeff-En:   0.100D+01
 Coeff:      0.100D+01
 GapD=    2.000 DampG=2.000 DampE=0.500 DampFc=1.0000 IDamp=-1.
 RMSDP=1.95D-02 MaxDP=1.56D-01              OVMax= 0.00D+00

 Cycle   2  Pass 1  IDiag  1:
 E= 0.570237510553397E-01 Delta-E=       -0.277616550951 Rises=F Damp=F
 DIIS: error= 1.94D-02 at cycle   2 NSaved=   2.
 NSaved= 2 IEnMin= 2 EnMin= 0.570237510553397E-01 IErMin= 2 ErrMin= 1.94D-02
 ErrMax= 1.94D-02  0.00D+00 EMaxC= 1.00D-01 BMatC= 9.33D-03 BMatP= 1.08D-01
 IDIUse=3 WtCom= 8.06D-01 WtEn= 1.94D-01
 Coeff-Com: -0.363D+00 0.136D+01
 Coeff-En:   0.000D+00 0.100D+01
 Coeff:     -0.293D+00 0.129D+01
 RMSDP=8.16D-03 MaxDP=7.38D-02 DE=-2.78D-01 OVMax= 0.00D+00

 Cycle   3  Pass 1  IDiag  3:
 E= 0.272553814696863E-01 Delta-E=       -0.029768369586 Rises=F Damp=F
 DIIS: error= 3.87D-03 at cycle   3 NSaved=   3.
 NSaved= 3 IEnMin= 3 EnMin= 0.272553814696863E-01 IErMin= 3 ErrMin= 3.87D-03
 ErrMax= 3.87D-03  0.00D+00 EMaxC= 1.00D-01 BMatC= 3.32D-04 BMatP= 9.33D-03
 IDIUse=3 WtCom= 9.61D-01 WtEn= 3.87D-02
 Coeff-Com:  0.152D+00-0.646D+00 0.149D+01
 Coeff-En:   0.000D+00 0.000D+00 0.100D+01
 Coeff:      0.146D+00-0.621D+00 0.148D+01
 Gap=     0.384 Goal=   None    Shift=    0.000
 RMSDP=2.50D-03 MaxDP=2.71D-02 DE=-2.98D-02 OVMax= 2.73D-02

 Cycle   4  Pass 1  IDiag  3:
 E= 0.253671294466500E-01 Delta-E=       -0.001888252023 Rises=F Damp=F
 DIIS: error= 1.11D-03 at cycle   4 NSaved=   4.
 NSaved= 4 IEnMin= 4 EnMin= 0.253671294466500E-01 IErMin= 4 ErrMin= 1.11D-03
 ErrMax= 1.11D-03  0.00D+00 EMaxC= 1.00D-01 BMatC= 2.54D-05 BMatP= 3.32D-04
 IDIUse=3 WtCom= 9.89D-01 WtEn= 1.11D-02
 Coeff-Com:  0.151D-01-0.589D-01-0.154D+00 0.120D+01
 Coeff-En:   0.000D+00 0.000D+00 0.000D+00 0.100D+01
 Coeff:      0.150D-01-0.582D-01-0.152D+00 0.120D+01
 Gap=     0.384 Goal=   None    Shift=    0.000
 RMSDP=7.94D-04 MaxDP=9.15D-03 DE=-1.89D-03 OVMax= 7.63D-03

 Cycle   5  Pass 1  IDiag  3:
 E= 0.252051663580204E-01 Delta-E=       -0.000161963089 Rises=F Damp=F
 DIIS: error= 2.23D-04 at cycle   5 NSaved=   5.
 NSaved= 5 IEnMin= 5 EnMin= 0.252051663580204E-01 IErMin= 5 ErrMin= 2.23D-04
 ErrMax= 2.23D-04  0.00D+00 EMaxC= 1.00D-01 BMatC= 1.98D-06 BMatP= 2.54D-05
 IDIUse=3 WtCom= 9.98D-01 WtEn= 2.23D-03
 Coeff-Com: -0.868D-02 0.371D-01-0.881D-02-0.431D+00 0.141D+01
 Coeff-En:   0.000D+00 0.000D+00 0.000D+00 0.000D+00 0.100D+01
 Coeff:     -0.866D-02 0.371D-01-0.879D-02-0.430D+00 0.141D+01
 Gap=     0.384 Goal=   None    Shift=    0.000
 RMSDP=2.73D-04 MaxDP=1.96D-03 DE=-1.62D-04 OVMax= 3.22D-03

 Cycle   6  Pass 1  IDiag  3:
 E= 0.251892379183687E-01 Delta-E=       -0.000015928440 Rises=F Damp=F
 DIIS: error= 1.04D-04 at cycle   6 NSaved=   6.
 NSaved= 6 IEnMin= 6 EnMin= 0.251892379183687E-01 IErMin= 6 ErrMin= 1.04D-04
 ErrMax= 1.04D-04  0.00D+00 EMaxC= 1.00D-01 BMatC= 2.09D-07 BMatP= 1.98D-06
 IDIUse=3 WtCom= 9.99D-01 WtEn= 1.04D-03
 Coeff-Com:  0.278D-02-0.115D-01 0.167D-01 0.952D-01-0.632D+00 0.153D+01
 Coeff-En:   0.000D+00 0.000D+00 0.000D+00 0.000D+00 0.000D+00 0.100D+01
 Coeff:      0.277D-02-0.115D-01 0.167D-01 0.951D-01-0.632D+00 0.153D+01
 Gap=     0.385 Goal=   None    Shift=    0.000
 RMSDP=1.06D-04 MaxDP=9.18D-04 DE=-1.59D-05 OVMax= 1.41D-03

 Cycle   7  Pass 1  IDiag  3:
 E= 0.251873014402264E-01 Delta-E=       -0.000001936478 Rises=F Damp=F
 DIIS: error= 3.32D-05 at cycle   7 NSaved=   7.
 NSaved= 7 IEnMin= 7 EnMin= 0.251873014402264E-01 IErMin= 7 ErrMin= 3.32D-05
 ErrMax= 3.32D-05  0.00D+00 EMaxC= 1.00D-01 BMatC= 1.55D-08 BMatP= 2.09D-07
 IDIUse=1 WtCom= 1.00D+00 WtEn= 0.00D+00
 Coeff-Com: -0.360D-03 0.982D-03-0.172D-02-0.227D-01 0.179D+00-0.679D+00
 Coeff-Com:  0.152D+01
 Coeff:     -0.360D-03 0.982D-03-0.172D-02-0.227D-01 0.179D+00-0.679D+00
 Coeff:      0.152D+01
 Gap=     0.385 Goal=   None    Shift=    0.000
 RMSDP=3.20D-05 MaxDP=3.12D-04 DE=-1.94D-06 OVMax= 3.89D-04

 Cycle   8  Pass 1  IDiag  3:
 E= 0.251871608703027E-01 Delta-E=       -0.000000140570 Rises=F Damp=F
 DIIS: error= 5.63D-06 at cycle   8 NSaved=   8.
 NSaved= 8 IEnMin= 8 EnMin= 0.251871608703027E-01 IErMin= 8 ErrMin= 5.63D-06
 ErrMax= 5.63D-06  0.00D+00 EMaxC= 1.00D-01 BMatC= 5.52D-10 BMatP= 1.55D-08
 IDIUse=1 WtCom= 1.00D+00 WtEn= 0.00D+00
 Coeff-Com:  0.218D-04 0.188D-03-0.517D-03 0.975D-02-0.660D-01 0.271D+00
 Coeff-Com: -0.737D+00 0.152D+01
 Coeff:      0.218D-04 0.188D-03-0.517D-03 0.975D-02-0.660D-01 0.271D+00
 Coeff:     -0.737D+00 0.152D+01
 Gap=     0.385 Goal=   None    Shift=    0.000
 RMSDP=4.96D-06 MaxDP=4.84D-05 DE=-1.41D-07 OVMax= 5.60D-05

 Cycle   9  Pass 1  IDiag  3:
 E= 0.251871568679576E-01 Delta-E=       -0.000000004002 Rises=F Damp=F
 DIIS: error= 7.99D-07 at cycle   9 NSaved=   9.
 NSaved= 9 IEnMin= 9 EnMin= 0.251871568679576E-01 IErMin= 9 ErrMin= 7.99D-07
 ErrMax= 7.99D-07  0.00D+00 EMaxC= 1.00D-01 BMatC= 2.05D-11 BMatP= 5.52D-10
 IDIUse=1 WtCom= 1.00D+00 WtEn= 0.00D+00
 Coeff-Com:  0.295D-04-0.222D-03 0.392D-03-0.268D-02 0.179D-01-0.813D-01
 Coeff-Com:  0.240D+00-0.604D+00 0.143D+01
 Coeff:      0.295D-04-0.222D-03 0.392D-03-0.268D-02 0.179D-01-0.813D-01
 Coeff:      0.240D+00-0.604D+00 0.143D+01
 Gap=     0.385 Goal=   None    Shift=    0.000
 RMSDP=7.82D-07 MaxDP=6.49D-06 DE=-4.00D-09 OVMax= 8.54D-06

 Cycle  10  Pass 1  IDiag  3:
 E= 0.251871567468527E-01 Delta-E=       -0.000000000121 Rises=F Damp=F
 DIIS: error= 1.14D-07 at cycle  10 NSaved=  10.
 NSaved=10 IEnMin=10 EnMin= 0.251871567468527E-01 IErMin=10 ErrMin= 1.14D-07
 ErrMax= 1.14D-07  0.00D+00 EMaxC= 1.00D-01 BMatC= 7.54D-13 BMatP= 2.05D-11
 IDIUse=1 WtCom= 1.00D+00 WtEn= 0.00D+00
 Coeff-Com: -0.110D-04 0.810D-04-0.151D-03 0.967D-03-0.605D-02 0.274D-01
 Coeff-Com: -0.808D-01 0.207D+00-0.592D+00 0.144D+01
 Coeff:     -0.110D-04 0.810D-04-0.151D-03 0.967D-03-0.605D-02 0.274D-01
 Coeff:     -0.808D-01 0.207D+00-0.592D+00 0.144D+01
 Gap=     0.385 Goal=   None    Shift=    0.000
 RMSDP=1.39D-07 MaxDP=7.65D-07 DE=-1.21D-10 OVMax= 1.00D-06

 Cycle  11  Pass 1  IDiag  3:
 E= 0.251871567423336E-01 Delta-E=       -0.000000000005 Rises=F Damp=F
 DIIS: error= 2.24D-08 at cycle  11 NSaved=  11.
 NSaved=11 IEnMin=11 EnMin= 0.251871567423336E-01 IErMin=11 ErrMin= 2.24D-08
 ErrMax= 2.24D-08  0.00D+00 EMaxC= 1.00D-01 BMatC= 3.69D-14 BMatP= 7.54D-13
 IDIUse=1 WtCom= 1.00D+00 WtEn= 0.00D+00
 Coeff-Com:  0.314D-05-0.249D-04 0.450D-04-0.314D-03 0.198D-02-0.903D-02
 Coeff-Com:  0.265D-01-0.674D-01 0.199D+00-0.612D+00 0.146D+01
 Coeff:      0.314D-05-0.249D-04 0.450D-04-0.314D-03 0.198D-02-0.903D-02
 Coeff:      0.265D-01-0.674D-01 0.199D+00-0.612D+00 0.146D+01
 Gap=     0.385 Goal=   None    Shift=    0.000
 RMSDP=3.37D-08 MaxDP=2.14D-07 DE=-4.52D-12 OVMax= 2.32D-07

 Cycle  12  Pass 1  IDiag  3:
 E= 0.251871567421205E-01 Delta-E=        0.000000000000 Rises=F Damp=F
 DIIS: error= 6.17D-09 at cycle  12 NSaved=  12.
 NSaved=12 IEnMin=12 EnMin= 0.251871567421205E-01 IErMin=12 ErrMin= 6.17D-09
 ErrMax= 6.17D-09  0.00D+00 EMaxC= 1.00D-01 BMatC= 2.36D-15 BMatP= 3.69D-14
 IDIUse=1 WtCom= 1.00D+00 WtEn= 0.00D+00
 Coeff-Com: -0.919D-06 0.766D-05-0.131D-04 0.964D-04-0.612D-03 0.284D-02
 Coeff-Com: -0.828D-02 0.208D-01-0.615D-01 0.204D+00-0.670D+00 0.151D+01
 Coeff:     -0.919D-06 0.766D-05-0.131D-04 0.964D-04-0.612D-03 0.284D-02
 Coeff:     -0.828D-02 0.208D-01-0.615D-01 0.204D+00-0.670D+00 0.151D+01
 Gap=     0.385 Goal=   None    Shift=    0.000
 RMSDP=9.79D-09 MaxDP=6.09D-08 DE=-2.13D-13 OVMax= 7.72D-08

 Cycle  13  Pass 2  IDiag  1:
 SCF Done:  E(RAM1) =  0.251871567421E-01 A.U. after   13 cycles
            NFock= 12  Conv=0.98D-08     -V/T= 1.0015
 KE=-1.644024848738D+01 PE=-1.695642784942D+02 EE= 8.347684804423D+01
 Leave Link  502 at Tue Dec 15 16:22:16 2015, MaxMem=    33554432 cpu:         0.0
 (Enter /home/Applications/g09/g09/l801.exe)
 Range of M.O.s used for correlation:     1    24
 NBasis=    24 NAE=    13 NBE=    13 NFC=     0 NFV=     0
 NROrb=     24 NOA=    13 NOB=    13 NVA=    11 NVB=    11
 Leave Link  801 at Tue Dec 15 16:22:16 2015, MaxMem=    33554432 cpu:         0.0
 (Enter /home/Applications/g09/g09/l914.exe)
 RHF ground state
 MDV=    33554432 DFT=F DoStab=F Mixed=F DoRPA=F DoScal=F NonHer=F
 Making orbital integer symmetry assigments:
 Orbital symmetries:
       Occupied  (A) (A) (A) (A) (A) (A) (A) (A) (A) (A) (A) (A)
                 (A)
       Virtual   (A) (A) (A) (A) (A) (A) (A) (A) (A) (A) (A)
    60 initial guesses have been made.
 Convergence on wavefunction:    0.000001000000000
 Davidson Disk Diagonalization:  ConvIn= 1.00D-06 SkipCon=T Conv= 1.00D-06.
 Max sub-space:   240 roots to seek:    60 dimension of matrix:          286
 Iteration     1 Dimension    60 NMult     0 NNew     60
 CISAX will form    60 AO SS matrices at one time.
 NMat=    60 NSing=    60 JSym2X= 0.
 FoFJK:  IHMeth= 8 ICntrl=       0 DoSepK=F KAlg= 0 I1Cent=   0 FoldK=F
 IRaf=         1 NMat= 120 IRICut=       1 DoRegI=T DoRafI=F ISym2E= 0.
 FoFCou: FMM=F IPFlag=           0 FMFlag=      100000 FMFlg1=           0
         NFxFlg=           0 DoJE=F BraDBF=F KetDBF=F FulRan=T
         wScrn=  0.000000 ICntrl=       0 IOpCl=  0 I1Cent=           0 NGrid=           0
         NMat0=  120 NMatS0=     60 NMatT0=    0 NMatD0=  120 NMtDS0=    0 NMtDT0=    0
 Symmetry not used in FoFCou.
 New state      3 was old state      4
 New state      4 was old state      6
 New state      5 was old state      8
 New state      6 was old state      3
 New state      7 was old state      5
 New state      8 was old state      7
 New state      9 was old state     10
 New state     10 was old state     11
 New state     11 was old state      9
 New state     12 was old state     15
 New state     14 was old state     16
 New state     15 was old state     23
 Excitation Energies [eV] at current iteration:
 Root      1 :     4.663335517447193
 Root      2 :     5.268056403735446
 Root      3 :     5.346857134346137
 Root      4 :     5.708984648895930
 Root      5 :     6.275840924258808
 Root      6 :     6.322376358907571
 Root      7 :     6.377355635048631
 Root      8 :     6.404423542022452
 Root      9 :     6.520866965964812
 Root     10 :     6.987731110634512
 Root     11 :     7.125021209604744
 Root     12 :     7.354827039515472
 Root     13 :     7.576818127348544
 Root     14 :     7.600080056680000
 Root     15 :     7.788344064446255
 Root     16 :     7.926583577457727
 Root     17 :     7.959199499785426
 Root     18 :     8.074123289934848
 Root     19 :     8.207986580224979
 Root     20 :     8.358655045506399
 Root     21 :     8.794124857909919
 Root     22 :     8.999468565718685
 Root     23 :     9.092860789963643
 Root     24 :     9.266582354370163
 Root     25 :     9.306145991422930
 Root     26 :     9.383789839611602
 Root     27 :     9.596838958691077
 Root     28 :     9.611611100101436
 Root     29 :     9.677073715475492
 Root     30 :     9.751784764146892
 Root     31 :     9.855572781280205
 Root     32 :     9.873752157375293
 Root     33 :     9.960391255281566
 Root     34 :    10.054292002490980
 Root     35 :    10.194193173226650
 Root     36 :    10.390204142856290
 Root     37 :    10.504678529811370
 Root     38 :    10.605744564295860
 Root     39 :    10.636786865176450
 Root     40 :    10.766648193379330
 Root     41 :    10.777492444644690
 Root     42 :    10.867025943155630
 Root     43 :    11.073966687366070
 Root     44 :    11.379995207066380
 Root     45 :    11.499013538278360
 Root     46 :    11.504697142063110
 Root     47 :    11.763085459936550
 Root     48 :    11.856799220855980
 Root     49 :    11.944166327022910
 Root     50 :    12.143032324441300
 Root     51 :    12.204868084716000
 Root     52 :    12.640399351333660
 Root     53 :    12.829210177602840
 Root     54 :    12.957584941273890
 Root     55 :    12.983679021459400
 Root     56 :    13.027840496542880
 Root     57 :    13.181624487725100
 Root     58 :    13.244079833637890
 Root     59 :    13.359771944684940
 Root     60 :    13.701879797782070
 Iteration     2 Dimension   120 NMult    60 NNew     60
 CISAX will form    60 AO SS matrices at one time.
 NMat=    60 NSing=    60 JSym2X= 0.
 Root      1 not converged, maximum delta is    0.034790861939153
 Root      2 not converged, maximum delta is    0.021679178754551
 Root      3 not converged, maximum delta is    0.028340416325835
 Root      4 not converged, maximum delta is    0.042126889407746
 Root      5 not converged, maximum delta is    0.080706901914558
 Root      6 not converged, maximum delta is    0.088660410097297
 Root      7 not converged, maximum delta is    0.395351515249990
 Root      8 not converged, maximum delta is    0.381526150298612
 Root      9 not converged, maximum delta is    0.159825698444877
 Root     10 not converged, maximum delta is    0.089308198855916
 Root     11 not converged, maximum delta is    0.043680976600956
 Root     12 not converged, maximum delta is    0.069135582914113
 Root     13 not converged, maximum delta is    0.202673292657653
 Root     14 not converged, maximum delta is    0.224875481760087
 Root     15 not converged, maximum delta is    0.250394225838062
 Excitation Energies [eV] at current iteration:
 Root      1 :     4.578923706953129   Change is   -0.084411810494064
 Root      2 :     5.238485626347732   Change is   -0.029570777387714
 Root      3 :     5.317864179721808   Change is   -0.028992954624329
 Root      4 :     5.628176914486002   Change is   -0.080807734409928
 Root      5 :     6.146221221479670   Change is   -0.129619702779138
 Root      6 :     6.209266745514087   Change is   -0.113109613393483
 Root      7 :     6.241657940449196   Change is   -0.135697694599436
 Root      8 :     6.339329644306458   Change is   -0.065093897715993
 Root      9 :     6.436809602201816   Change is   -0.084057363762997
 Root     10 :     6.847326484306470   Change is   -0.140404626328042
 Root     11 :     7.090269772493039   Change is   -0.034751437111705
 Root     12 :     7.261625013519436   Change is   -0.093202025996036
 Root     13 :     7.390554748556466   Change is   -0.186263378792079
 Root     14 :     7.536572382247264   Change is   -0.063507674432736
 Root     15 :     7.666763420825019   Change is   -0.121580643621236
 Root     16 :     7.735446333461216   Change is   -0.191137243996510
 Root     17 :     7.848029173620366   Change is   -0.111170326165060
 Root     18 :     7.911010360659788   Change is   -0.163112929275060
 Root     19 :     8.099573913241192   Change is   -0.108412666983787
 Root     20 :     8.204149606694939   Change is   -0.154505438811461
 Root     21 :     8.500873950274961   Change is   -0.293250907634957
 Root     22 :     8.841076879983175   Change is   -0.465069111439755
 Root     23 :     8.936800704257259   Change is   -0.062667861461428
 Root     24 :     9.023690157256807   Change is   -0.069170632706835
 Root     25 :     9.092812037126272   Change is   -0.173770317243893
 Root     26 :     9.113226154339250   Change is   -0.638558609807642
 Root     27 :     9.314355851256472   Change is   -0.069433988355129
 Root     28 :     9.353100912599251   Change is   -0.243738046091826
 Root     29 :     9.479570204445608   Change is   -0.132040895655828
 Root     30 :     9.515677772448761   Change is   -0.358074384926532
 Root     31 :     9.616580895065240   Change is   -0.060492820410251
 Root     32 :     9.709758400516591   Change is   -0.344533601974393
 Root     33 :     9.739237803187072   Change is   -0.116334978093133
 Root     34 :     9.850558175767508   Change is   -0.109833079514057
 Root     35 :     9.854337793180470   Change is   -0.650340736630899
 Root     36 :     9.942587390686375   Change is   -0.447616752169914
 Root     37 :    10.060990611903060   Change is   -0.133202561323587
 Root     38 :    10.152212919070920   Change is   -0.625279525573766
 Root     39 :    10.217011558375300   Change is   -0.388733005920563
 Root     40 :    10.350337134003750   Change is   -0.286449731172696
 Root     41 :    10.415717129621670   Change is   -0.451308813533966
 Root     42 :    10.678729808656720   Change is   -0.087918384722618
 Root     43 :    10.695014129443360   Change is   -0.803999408835005
 Root     44 :    10.859243330603340   Change is   -1.084922996419562
 Root     45 :    10.944966703912310   Change is   -0.435028503154073
 Root     46 :    11.044938804010660   Change is   -0.029027883355404
 Root     47 :    11.163069653107910   Change is   -0.341627488955202
 Root     48 :    11.341284473257120   Change is   -0.421800986679434
 Root     49 :    11.544748633297530   Change is   -0.312050587558453
 Root     50 :    11.623701469120230   Change is   -1.016697882213434
 Root     51 :    11.732998320145060   Change is   -0.410034004296236
 Root     52 :    11.744601724169370   Change is   -0.460266360546627
 Root     53 :    12.014645797454610   Change is   -0.969033224004795
 Root     54 :    12.183995448698890   Change is   -0.843845047843994
 Root     55 :    12.481133311162090   Change is   -0.476451630111801
 Root     56 :    12.585955237350650   Change is   -0.773816707334293
 Root     57 :    12.787824222194120   Change is   -0.041385955408724
 Root     58 :    12.819199169279670   Change is   -0.362425318445436
 Root     59 :    12.971249784432760   Change is   -0.272830049205131
 Root     60 :    13.077874992272040
 Iteration     3 Dimension   135 NMult   120 NNew     15
 CISAX will form    15 AO SS matrices at one time.
 NMat=    15 NSing=    15 JSym2X= 0.
 Root      1 not converged, maximum delta is    0.001010303069011
 Root      2 not converged, maximum delta is    0.000511060486025
 Root      3 not converged, maximum delta is    0.000270262646066
 Root      4 not converged, maximum delta is    0.000049211732292
 Root      5 not converged, maximum delta is    0.000298631022895
 Root      6 not converged, maximum delta is    0.001206143601030
 Root      7 not converged, maximum delta is    0.000850990784065
 Root      8 not converged, maximum delta is    0.000870316375230
 Root      9 not converged, maximum delta is    0.000208311231579
 Root     10 not converged, maximum delta is    0.000293029164104
 Root     11 not converged, maximum delta is    0.000179530059236
 Root     12 not converged, maximum delta is    0.000250867921886
 Root     13 not converged, maximum delta is    0.000349610748302
 Root     14 not converged, maximum delta is    0.000190696667003
 Root     15 not converged, maximum delta is    0.000355517626067
 Excitation Energies [eV] at current iteration:
 Root      1 :     4.578628966553073   Change is   -0.000294740400055
 Root      2 :     5.238431715437759   Change is   -0.000053910909973
 Root      3 :     5.317832638066945   Change is   -0.000031541654863
 Root      4 :     5.628175513948569   Change is   -0.000001400537434
 Root      5 :     6.146203899971607   Change is   -0.000017321508063
 Root      6 :     6.208784796311839   Change is   -0.000481949202248
 Root      7 :     6.241639794768324   Change is   -0.000018145680871
 Root      8 :     6.339131926619519   Change is   -0.000197717686940
 Root      9 :     6.436800918384627   Change is   -0.000008683817189
 Root     10 :     6.847302709990278   Change is   -0.000023774316192
 Root     11 :     7.090257132156407   Change is   -0.000012640336633
 Root     12 :     7.261615057430034   Change is   -0.000009956089401
 Root     13 :     7.390524873209393   Change is   -0.000029875347073
 Root     14 :     7.536561184944992   Change is   -0.000011197302272
 Root     15 :     7.666731220938308   Change is   -0.000032199886710
 Iteration     4 Dimension   143 NMult   135 NNew      8
 CISAX will form     8 AO SS matrices at one time.
 NMat=     8 NSing=     8 JSym2X= 0.
 Root      1 not converged, maximum delta is    0.000022683994554
 Root      2 not converged, maximum delta is    0.000009344591106
 Root      3 not converged, maximum delta is    0.000010283277386
 Root      4 not converged, maximum delta is    0.000002982206403
 Root      5 not converged, maximum delta is    0.000012493651481
 Root      6 not converged, maximum delta is    0.000052170870029
 Root      7 not converged, maximum delta is    0.000015039090928
 Root      8 not converged, maximum delta is    0.000026257468713
 Root      9 not converged, maximum delta is    0.000008972061975
 Root     10 not converged, maximum delta is    0.000010809706033
 Root     11 not converged, maximum delta is    0.000005647093970
 Root     12 not converged, maximum delta is    0.000015472817723
 Root     13 not converged, maximum delta is    0.000015413372615
 Root     14 not converged, maximum delta is    0.000014024025657
 Root     15 not converged, maximum delta is    0.000009134952495
 Excitation Energies [eV] at current iteration:
 Root      1 :     4.578628793478688   Change is   -0.000000173074385
 Root      2 :     5.238431681577015   Change is   -0.000000033860744
 Root      3 :     5.317832608656365   Change is   -0.000000029410580
 Root      4 :     5.628175510764052   Change is   -0.000000003184516
 Root      5 :     6.146203864118140   Change is   -0.000000035853466
 Root      6 :     6.208783678672570   Change is   -0.000001117639269
 Root      7 :     6.241639748099039   Change is   -0.000000046669285
 Root      8 :     6.339131547586414   Change is   -0.000000379033105
 Root      9 :     6.436800893029133   Change is   -0.000000025355494
 Root     10 :     6.847302658634382   Change is   -0.000000051355896
 Root     11 :     7.090257118896318   Change is   -0.000000013260089
 Root     12 :     7.261614996436821   Change is   -0.000000060993214
 Root     13 :     7.390524794136093   Change is   -0.000000079073300
 Root     14 :     7.536561142312981   Change is   -0.000000042632011
 Root     15 :     7.666731190010999   Change is   -0.000000030927309
 Convergence achieved on expansion vectors.
 ***********************************************************************
 Excited states from <AA,BB:AA,BB> singles matrix:
 ***********************************************************************
 
 1PDM for each excited state written to RWF  633
 Ground to excited state transition densities written to RWF  633
 Ground to excited state transition electric dipole moments (Au):
       state          X           Y           Z        Dip. S.      Osc.
         1         0.7527      0.2846     -0.0417      0.6493      0.0728
         2         0.0126      0.0074     -0.0493      0.0026      0.0003
         3        -0.0360     -0.0664     -0.0191      0.0061      0.0008
         4        -0.0268     -0.0093     -0.1014      0.0111      0.0015
         5        -0.0020     -0.1785      0.0919      0.0403      0.0061
         6        -0.5527      1.4564     -0.1313      2.4437      0.3717
         7         0.0523     -0.1534     -0.0019      0.0263      0.0040
         8         0.5955      0.3721     -0.0207      0.4935      0.0766
         9         0.0463      0.1592      0.0995      0.0374      0.0059
        10         0.1587     -0.0395     -0.0312      0.0277      0.0046
        11         0.0172     -0.0527     -0.0575      0.0064      0.0011
        12         0.0634     -0.0937     -0.0338      0.0139      0.0025
        13        -0.0321      0.0362      0.0285      0.0032      0.0006
        14        -0.0242     -0.0376     -0.0905      0.0102      0.0019
        15         0.0041     -0.0984      0.0627      0.0136      0.0026
 Ground to excited state transition velocity dipole moments (Au):
       state          X           Y           Z        Dip. S.      Osc.
         1        -0.0600     -0.0261      0.0078      0.0043      0.0172
         2        -0.0006      0.0191      0.0114      0.0005      0.0017
         3        -0.0088      0.0150      0.0041      0.0003      0.0011
         4         0.0079      0.0011      0.0805      0.0065      0.0211
         5        -0.0013      0.0389     -0.0514      0.0042      0.0123
         6         0.1103     -0.2813      0.0293      0.0921      0.2692
         7        -0.0134      0.0308      0.0276      0.0019      0.0055
         8        -0.1134     -0.0705      0.0135      0.0180      0.0516
         9        -0.0048     -0.0329     -0.1556      0.0253      0.0714
        10        -0.0289      0.0132      0.0178      0.0013      0.0035
        11        -0.0035      0.0130      0.0836      0.0072      0.0183
        12        -0.0200      0.0215     -0.0443      0.0028      0.0071
        13         0.0004     -0.0167      0.0270      0.0010      0.0025
        14         0.0073      0.0048     -0.0233      0.0006      0.0015
        15        -0.0031      0.0233     -0.0535      0.0034      0.0081
 Ground to excited state transition magnetic dipole moments (Au):
       state          X           Y           Z
         1        -0.0068      0.0374      0.8428
         2         0.0122      0.3143     -0.0930
         3         0.1730     -0.5771     -0.0161
         4        -0.2939      0.0660     -0.0246
         5         0.1880      0.0744      0.0216
         6        -0.0935     -0.0081     -0.0186
         7         0.1275      0.1124     -0.0177
         8         0.1006     -0.1575     -0.0286
         9        -0.3273      0.0097     -0.0100
        10        -0.2115      0.4775     -0.0323
        11        -0.6667     -0.3406     -0.0206
        12        -1.4830     -0.0046      0.0081
        13         0.6518     -0.2226     -0.0490
        14        -0.5066     -0.4793     -0.0155
        15        -0.2743     -1.2905     -0.0913
 Ground to excited state transition velocity quadrupole moments (Au):
       state          XX          YY          ZZ          XY          XZ          YZ
         1        -0.2860      0.2384      0.0088      0.4075     -0.0419     -0.0116
         2         0.0614     -0.1353      0.0690     -0.0369      0.0736      0.0230
         3         0.0357     -0.0760      0.0314     -0.0396     -0.1132     -0.0506
         4        -0.0096      0.0419     -0.0187     -0.0084      0.0630     -0.1771
         5        -0.0845      0.0832     -0.0420      0.0285      0.0175      0.2430
         6         0.3856     -0.1703     -0.0329      0.2829     -0.0432      0.0607
         7        -0.0185     -0.0117     -0.0064     -0.0691     -0.1524      0.0740
         8         0.3235     -0.2429     -0.0223     -0.3627      0.0429      0.0281
         9         0.0959     -0.0618      0.0033     -0.0141     -0.0617     -0.0584
        10         0.0369     -0.0323     -0.0055     -0.0948     -0.1988     -0.0861
        11        -0.0226      0.0131     -0.0094     -0.0156     -0.0771      0.0386
        12        -0.0229     -0.0238     -0.0069     -0.0561      0.1873      0.0664
        13         0.0138     -0.0096     -0.0005      0.0157      0.2192     -0.0127
        14        -0.0229     -0.0039      0.0145      0.0470      0.1105     -0.3667
        15        -0.0345      0.0384      0.0002     -0.0001     -0.0384      0.0424
 <0|del|b> * <b|rxdel|0> + <0|del|b> * <b|delr+rdel|0>
 Rotatory Strengths (R) in cgs (10**-40 erg-esu-cm/Gauss)
       state          XX          YY          ZZ    R(velocity)    E-M Angle
         1        16.2638      9.5073     -0.3563      8.4716       83.76
         2         5.7118     -1.2091     13.5899      6.0308       47.42
         3       -12.9766     -1.7766    -22.2620    -12.3384      162.03
         4        -4.5337     -8.6100     -1.3511     -4.8316       99.99
         5        -0.5602     -0.3290      5.7104      1.6071       83.25
         6        -3.3028    -19.3070     -3.9780     -8.8626      107.19
         7         8.8620     -1.9875     -3.0052      1.2898       80.27
         8        13.4350    -15.3148     -0.2274     -0.7024       91.57
         9         2.0838      1.8355      4.5009      2.8067       86.90
        10         9.3583     13.6263     10.2471     11.0772       51.57
        11        -8.7622      2.4098     -4.0270     -3.4598       93.46
        12        -2.6657     33.8084     46.3066     25.8164       68.23
        13         8.4511     -1.9195      0.4455      2.3257       82.99
        14        -4.5425     -6.2956     -3.5595     -4.7992      108.95
        15       -30.4935      7.0232    -37.6547    -20.3750      108.36
 1/2[<0|r|b>*<b|rxdel|0> + (<0|rxdel|b>*<b|r|0>)*]
 Rotatory Strengths (R) in cgs (10**-40 erg-esu-cm/Gauss)
       state          XX          YY          ZZ     R(length)
         1         3.6340     -7.5287     24.8273      6.9775
         2        -0.1086     -1.6337     -3.2416     -1.6613
         3         4.4088    -27.1013     -0.2168     -7.6364
         4        -5.5697      0.4338     -1.7639     -2.3000
         5         0.2654      9.3937     -1.4014      2.7526
         6       -36.5309      8.3452     -1.7262     -9.9707
         7        -4.7204     12.1974     -0.0233      2.4846
         8       -42.3701     41.4423     -0.4187     -0.4488
         9        10.7134     -1.0895      0.7034      3.4424
        10        23.7338     13.3390     -0.7127     12.1200
        11         8.1269    -12.7016     -0.8379     -1.8042
        12        66.4845     -0.3058      0.1935     22.1241
        13        14.7931      5.7025      0.9865      7.1607
        14        -8.6761    -12.7549     -0.9913     -7.4741
        15         0.8010    -89.7654      4.0517    -28.3042
  1/2[<0|del|b>*<b|r|0> + (<0|r|b>*<b|del|0>)*] (Au)
       state          X           Y           Z        Dip. S.   Osc.(frdel)
         1        -0.0452     -0.0074     -0.0003      0.0530      0.0353
         2         0.0000      0.0001     -0.0006      0.0004      0.0003
         3         0.0003     -0.0010     -0.0001      0.0008      0.0005
         4        -0.0002      0.0000     -0.0082      0.0084      0.0056
         5         0.0000     -0.0069     -0.0047      0.0117      0.0078
         6        -0.0610     -0.4096     -0.0038      0.4744      0.3163
         7        -0.0007     -0.0047     -0.0001      0.0055      0.0036
         8        -0.0675     -0.0262     -0.0003      0.0941      0.0627
         9        -0.0002     -0.0052     -0.0155      0.0210      0.0140
        10        -0.0046     -0.0005     -0.0006      0.0057      0.0038
        11        -0.0001     -0.0007     -0.0048      0.0055      0.0037
        12        -0.0013     -0.0020      0.0015      0.0018      0.0012
        13         0.0000     -0.0006      0.0008     -0.0001     -0.0001
        14        -0.0002     -0.0002      0.0021     -0.0018     -0.0012
        15         0.0000     -0.0023     -0.0034      0.0057      0.0038

 Excitation energies and oscillator strengths:
 
 Excited State   1:      Singlet-A      4.5786 eV  270.79 nm  f=0.0728  <S**2>=0.000
      12 -> 15        -0.20292
      13 -> 14         0.66795
 This state for optimization and/or second-order correction.
 Total Energy, E(CIS) =  0.193448676147    
 Copying the excited state density for this state as the 1-particle RhoCI density.
 
 Excited State   2:      Singlet-A      5.2384 eV  236.68 nm  f=0.0003  <S**2>=0.000
      12 -> 14         0.43928
      13 -> 15         0.44862
      13 -> 16        -0.29451
 
 Excited State   3:      Singlet-A      5.3178 eV  233.15 nm  f=0.0008  <S**2>=0.000
      12 -> 14         0.24690
      13 -> 15         0.18630
      13 -> 16         0.61124
 
 Excited State   4:      Singlet-A      5.6282 eV  220.29 nm  f=0.0015  <S**2>=0.000
       7 -> 16         0.20083
      12 -> 16         0.63481
      12 -> 22        -0.11694
      13 -> 16        -0.10450
 
 Excited State   5:      Singlet-A      6.1462 eV  201.72 nm  f=0.0061  <S**2>=0.000
      12 -> 20         0.22052
      12 -> 22         0.11473
      13 -> 17         0.13742
      13 -> 18         0.47214
      13 -> 20        -0.24260
      13 -> 23         0.17392
      13 -> 24         0.18399
 
 Excited State   6:      Singlet-A      6.2088 eV  199.69 nm  f=0.3717  <S**2>=0.000
      11 -> 16        -0.14205
      12 -> 14        -0.43486
      13 -> 15         0.48588
 
 Excited State   7:      Singlet-A      6.2416 eV  198.64 nm  f=0.0040  <S**2>=0.000
      12 -> 18         0.25955
      12 -> 19         0.11751
      12 -> 23         0.11508
      12 -> 24         0.12759
      13 -> 17        -0.25790
      13 -> 18         0.18078
      13 -> 19         0.25815
      13 -> 20         0.26596
      13 -> 22         0.29171
      13 -> 23         0.10705
      13 -> 24         0.10749
 
 Excited State   8:      Singlet-A      6.3391 eV  195.59 nm  f=0.0766  <S**2>=0.000
      12 -> 15         0.64423
      13 -> 14         0.18717
 
 Excited State   9:      Singlet-A      6.4368 eV  192.62 nm  f=0.0059  <S**2>=0.000
      11 -> 14         0.15450
      12 -> 17         0.13252
      12 -> 18         0.15586
      13 -> 17         0.57850
      13 -> 19         0.18263
      13 -> 20         0.11751
 
 Excited State  10:      Singlet-A      6.8473 eV  181.07 nm  f=0.0046  <S**2>=0.000
      12 -> 17         0.55298
      12 -> 18         0.16143
      12 -> 19         0.16730
      12 -> 24        -0.11693
      13 -> 19        -0.23507
 
 Excited State  11:      Singlet-A      7.0903 eV  174.87 nm  f=0.0011  <S**2>=0.000
       9 -> 15         0.10040
      10 -> 14         0.19956
      10 -> 15        -0.13225
      11 -> 14         0.61157
      11 -> 15        -0.12069
      13 -> 17        -0.11613
 
 Excited State  12:      Singlet-A      7.2616 eV  170.74 nm  f=0.0025  <S**2>=0.000
       8 -> 14         0.10317
       9 -> 14         0.17709
       9 -> 15         0.14477
      10 -> 14         0.41774
      10 -> 15         0.11374
      11 -> 14        -0.18272
      11 -> 15        -0.36323
      12 -> 18         0.11860
      12 -> 19        -0.12020
      13 -> 24        -0.10892
 
 Excited State  13:      Singlet-A      7.3905 eV  167.76 nm  f=0.0006  <S**2>=0.000
       9 -> 14        -0.12787
       9 -> 15        -0.10650
      10 -> 14        -0.19452
      12 -> 17        -0.22430
      12 -> 18         0.41093
      12 -> 21        -0.11485
      12 -> 23         0.19612
      12 -> 24        -0.15219
      13 -> 19        -0.25021
      13 -> 21         0.11899
      13 -> 22        -0.15640
 
 Excited State  14:      Singlet-A      7.5366 eV  164.51 nm  f=0.0019  <S**2>=0.000
       7 -> 16         0.12465
      11 -> 15         0.12467
      12 -> 19        -0.32049
      12 -> 22        -0.21646
      13 -> 18         0.36139
      13 -> 20         0.15454
      13 -> 21        -0.11319
      13 -> 22        -0.13179
      13 -> 24        -0.27828
 
 Excited State  15:      Singlet-A      7.6667 eV  161.72 nm  f=0.0026  <S**2>=0.000
       8 -> 14        -0.12041
       9 -> 15         0.15338
      10 -> 14         0.30970
      10 -> 15        -0.18501
      11 -> 15         0.38055
      12 -> 18         0.11023
      12 -> 23         0.10002
      12 -> 24        -0.13744
      13 -> 19         0.15912
      13 -> 20        -0.14875
      13 -> 22        -0.16505
 SavETr:  write IOETrn=   770 NScale= 10 NData=  16 NLR=1 NState=   15 LETran=     280.
 The selected state is a singlet
 CISAX will form     1 AO SS matrices at one time.
 NMat=     1 NSing=     1 JSym2X= 0.
 Leave Link  914 at Tue Dec 15 16:22:16 2015, MaxMem=    33554432 cpu:         0.1
 (Enter /home/Applications/g09/g09/l1002.exe)
 Minotr:  Closed shell wavefunction.
          Computing CIS/TD-HF/TD-KS derivatives.
          Using Z-Vector for PSCF gradient.
          Skipping F1 and S1 gradient terms here.
          IDoAtm=111111111
          Direct CPHF calculation.
          Differentiating once with respect to electric field.
                with respect to dipole field.
          Differentiating once with respect to nuclear coordinates.
          Electric field/nuclear overlap derivatives assumed to be zero.
          Requested convergence is 1.0D-10 RMS, and 1.0D-09 maximum.
          NewPWx=T KeepS1=F KeepF1=F KeepIn=T MapXYZ=F SortEE=F KeepMc=T.
          MDV=      33495423 using IRadAn=       0.
 Keep J ints in memory in canonical form, NReq=871704.
 FoFCou: FMM=F IPFlag=           0 FMFlag=           0 FMFlg1=           0
         NFxFlg=           0 DoJE=F BraDBF=F KetDBF=F FulRan=T
         wScrn=  0.000000 ICntrl=     600 IOpCl=  2 I1Cent=           0 NGrid=           0
         NMat0=    1 NMatS0=     54 NMatT0=    0 NMatD0=    1 NMtDS0=    0 NMtDT0=    0
 Symmetry not used in FoFCou.
          Solving linear equations separately, MaxMat=       0.
          There are     1 degrees of freedom in the 1st order CPHF.  IDoFFX=0 NUNeed=     1.
 LinEq1:  Iter=  0 NonCon=     1 RMS=9.39D-03 Max=6.57D-02 NDo=     1
 AX will form     1 AO Fock derivatives at one time.
 LinEq1:  Iter=  1 NonCon=     1 RMS=1.90D-03 Max=1.42D-02 NDo=     1
 LinEq1:  Iter=  2 NonCon=     1 RMS=3.30D-04 Max=2.49D-03 NDo=     1
 LinEq1:  Iter=  3 NonCon=     1 RMS=4.91D-05 Max=2.70D-04 NDo=     1
 LinEq1:  Iter=  4 NonCon=     1 RMS=6.43D-06 Max=2.72D-05 NDo=     1
 LinEq1:  Iter=  5 NonCon=     1 RMS=9.19D-07 Max=5.05D-06 NDo=     1
 LinEq1:  Iter=  6 NonCon=     1 RMS=1.05D-07 Max=3.76D-07 NDo=     1
 LinEq1:  Iter=  7 NonCon=     1 RMS=1.36D-08 Max=7.04D-08 NDo=     1
 LinEq1:  Iter=  8 NonCon=     1 RMS=1.58D-09 Max=4.48D-09 NDo=     1
 LinEq1:  Iter=  9 NonCon=     1 RMS=1.74D-10 Max=5.45D-10 NDo=     1
 LinEq1:  Iter= 10 NonCon=     0 RMS=1.56D-11 Max=4.93D-11 NDo=     1
 Linear equations converged to 1.000D-10 1.000D-09 after    10 iterations.
 End of Minotr F.D. properties file   721 does not exist.
 End of Minotr F.D. properties file   722 does not exist.
 End of Minotr F.D. properties file   788 does not exist.
 Leave Link 1002 at Tue Dec 15 16:22:16 2015, MaxMem=    33554432 cpu:         0.0
 (Enter /home/Applications/g09/g09/l601.exe)
 Copying SCF densities to generalized density rwf, IOpCl= 0 IROHF=0.

 **********************************************************************

            Population analysis using the SCF density.

 **********************************************************************

 Orbital symmetries:
       Occupied  (A) (A) (A) (A) (A) (A) (A) (A) (A) (A) (A) (A)
                 (A)
       Virtual   (A) (A) (A) (A) (A) (A) (A) (A) (A) (A) (A)
 The electronic state is 1-A.
 Alpha  occ. eigenvalues --   -1.51088  -1.21640  -1.10955  -0.82195  -0.79866
 Alpha  occ. eigenvalues --   -0.67435  -0.57338  -0.55857  -0.52007  -0.50766
 Alpha  occ. eigenvalues --   -0.48298  -0.39428  -0.35669
 Alpha virt. eigenvalues --    0.02786   0.06264   0.09627   0.13419   0.13916
 Alpha virt. eigenvalues --    0.15777   0.17376   0.17753   0.19517   0.20545
 Alpha virt. eigenvalues --    0.21273
     Molecular Orbital Coefficients:
                           1         2         3         4         5
                           O         O         O         O         O
     Eigenvalues --    -1.51088  -1.21640  -1.10955  -0.82195  -0.79866
   1 1   C  1S          0.30427  -0.45805  -0.29542  -0.38247   0.20491
   2        1PX         0.09515  -0.07253   0.11116  -0.03077  -0.22901
   3        1PY        -0.09091   0.02655   0.16362  -0.26969  -0.13047
   4        1PZ         0.00512  -0.00771  -0.00657   0.00449   0.00836
   5 2   C  1S          0.36811  -0.15568  -0.50406   0.42611   0.01716
   6        1PX         0.15132   0.11913   0.03226  -0.06867  -0.20889
   7        1PY         0.05449  -0.20384  -0.03026  -0.21480   0.25870
   8        1PZ        -0.01218  -0.00011   0.01299   0.00150   0.00752
   9 3   O  1S          0.60765   0.64498  -0.05476  -0.24891  -0.11040
  10        1PX        -0.04746   0.02197   0.24901  -0.21803   0.42176
  11        1PY         0.18164  -0.00484   0.08667   0.07067   0.18522
  12        1PZ         0.01170   0.00535  -0.00124   0.01745   0.00376
  13 4   C  1S          0.38274  -0.08696   0.51395   0.28264   0.30495
  14        1PX        -0.16653   0.01323  -0.00644   0.10671   0.13101
  15        1PY        -0.04640  -0.23627   0.08163   0.15245  -0.32686
  16        1PZ        -0.00879  -0.00327  -0.00832   0.00855  -0.00602
  17 5   C  1S          0.32044  -0.42018   0.34023  -0.09778  -0.41018
  18        1PX        -0.02431   0.06880   0.19546   0.30248  -0.02200
  19        1PY        -0.13499   0.04374  -0.08397  -0.14058  -0.15222
  20        1PZ         0.00323  -0.00478   0.00574   0.00886  -0.00585
  21 6   H  1S          0.06630  -0.12865   0.11686  -0.06751  -0.25369
  22 7   H  1S          0.08737  -0.01722   0.19778   0.17291   0.24029
  23 8   H  1S          0.09581  -0.04039  -0.21701   0.31987  -0.01928
  24 9   H  1S          0.06899  -0.14960  -0.11408  -0.24605   0.14743
                           6         7         8         9        10
                           O         O         O         O         O
     Eigenvalues --    -0.67435  -0.57338  -0.55857  -0.52007  -0.50766
   1 1   C  1S         -0.08638  -0.00501  -0.15607   0.01804  -0.00496
   2        1PX         0.25623   0.01412   0.12248  -0.33981   0.20925
   3        1PY        -0.20252   0.04074  -0.07874   0.39135   0.34088
   4        1PZ         0.00254   0.23934   0.00719  -0.01734  -0.05716
   5 2   C  1S         -0.03881   0.01659   0.10344  -0.08027   0.04858
   6        1PX         0.30091   0.03460  -0.42579  -0.07122   0.16616
   7        1PY         0.20882  -0.02377  -0.07057  -0.34138  -0.33437
   8        1PZ        -0.00595   0.36423   0.02342   0.00662  -0.04005
   9 3   O  1S         -0.19326  -0.02347  -0.00507  -0.05093  -0.19476
  10        1PX        -0.11060   0.01199   0.49515  -0.07205  -0.14727
  11        1PY         0.43965   0.00089   0.12304   0.19430   0.41281
  12        1PZ         0.01651   0.75980  -0.01694   0.01557  -0.02802
  13 4   C  1S         -0.06700   0.00863  -0.11803   0.07389   0.05511
  14        1PX        -0.37314  -0.00699  -0.33569  -0.36441   0.17245
  15        1PY        -0.05500  -0.05217  -0.22517   0.12884  -0.38186
  16        1PZ        -0.00618   0.39363  -0.03016  -0.00982  -0.04158
  17 5   C  1S         -0.09435  -0.00145   0.17756  -0.04285  -0.01835
  18        1PX        -0.12669  -0.03683  -0.04428   0.14818  -0.36545
  19        1PY        -0.29787   0.03656   0.15160  -0.27237   0.24018
  20        1PZ        -0.00442   0.25871  -0.00678  -0.00338  -0.05647
  21 6   H  1S         -0.24032   0.02462   0.19529  -0.19174   0.09262
  22 7   H  1S         -0.25615   0.00655  -0.28606  -0.25394   0.23456
  23 8   H  1S         -0.24896   0.00284   0.31831   0.18408   0.15053
  24 9   H  1S         -0.24737   0.00856  -0.20046   0.41085   0.03434
                          11        12        13        14        15
                           O         O         O         V         V
     Eigenvalues --    -0.48298  -0.39428  -0.35669   0.02786   0.06264
   1 1   C  1S         -0.06507   0.01373  -0.01108  -0.00038   0.01562
   2        1PX        -0.40016  -0.02120  -0.00020  -0.00261   0.00312
   3        1PY        -0.14607  -0.04667   0.02313   0.00235  -0.00812
   4        1PZ         0.01599  -0.55488   0.39881  -0.42874  -0.53407
   5 2   C  1S          0.05557  -0.00539   0.02971   0.03086   0.02803
   6        1PX         0.16329   0.00158   0.03282   0.01209   0.04226
   7        1PY         0.19237   0.01018   0.01248   0.01081  -0.02109
   8        1PZ        -0.01528  -0.21583   0.58042   0.59804   0.34295
   9 3   O  1S         -0.04993  -0.00305   0.00040   0.00467  -0.00945
  10        1PX        -0.09674   0.02027  -0.00392   0.00212   0.03117
  11        1PY         0.39430  -0.03721  -0.00187   0.00867  -0.01724
  12        1PZ        -0.01409   0.56044   0.03262  -0.31744   0.03616
  13 4   C  1S         -0.03427  -0.00852  -0.01905   0.01246  -0.01155
  14        1PX        -0.06816  -0.00444   0.02585  -0.00868   0.00826
  15        1PY        -0.09013   0.00031   0.01328   0.00267   0.00878
  16        1PZ        -0.00485  -0.18056  -0.56795   0.51542  -0.46771
  17 5   C  1S         -0.02256   0.01609   0.00880  -0.00099  -0.02307
  18        1PX         0.38333   0.04430   0.02027   0.00855  -0.00539
  19        1PY         0.42345   0.00679  -0.00250   0.01164  -0.01957
  20        1PZ         0.02460  -0.53965  -0.41869  -0.29976   0.60837
  21 6   H  1S          0.41961   0.00808  -0.01059  -0.00128   0.02627
  22 7   H  1S         -0.07202  -0.01426   0.00967  -0.00949   0.00445
  23 8   H  1S         -0.18528  -0.01359  -0.01685  -0.01968  -0.01851
  24 9   H  1S          0.15035  -0.00641   0.01234  -0.00016  -0.00174
                          16        17        18        19        20
                           V         V         V         V         V
     Eigenvalues --     0.09627   0.13419   0.13916   0.15777   0.17376
   1 1   C  1S          0.06489  -0.26734   0.30514  -0.04269  -0.22821
   2        1PX        -0.04650  -0.35971  -0.11903  -0.26853   0.23375
   3        1PY         0.02425  -0.27675  -0.11060   0.18493   0.35608
   4        1PZ        -0.02930  -0.00143   0.01381  -0.01053  -0.00948
   5 2   C  1S         -0.25672   0.00275  -0.32590   0.21573   0.34701
   6        1PX        -0.41238  -0.17137  -0.14522  -0.26255  -0.25287
   7        1PY         0.19797  -0.09620  -0.08769   0.00882   0.18338
   8        1PZ         0.04328   0.01467   0.03819  -0.00500  -0.03382
   9 3   O  1S          0.21576  -0.02865   0.00139   0.00751   0.05591
  10        1PX        -0.19099  -0.16833  -0.31066  -0.15035   0.05539
  11        1PY         0.49022  -0.11539  -0.08528  -0.03723   0.06988
  12        1PZ         0.05060  -0.00544   0.00114   0.00774   0.01787
  13 4   C  1S         -0.25423  -0.13750   0.30591   0.33873   0.02178
  14        1PX         0.10146  -0.30081  -0.11121   0.04882  -0.04163
  15        1PY         0.36336  -0.18598  -0.01980   0.02688   0.29535
  16        1PZ        -0.00263  -0.00681  -0.01890  -0.02900   0.00216
  17 5   C  1S          0.07322   0.24484  -0.34214   0.11662  -0.33154
  18        1PX        -0.02999  -0.40008  -0.18159  -0.24336  -0.13608
  19        1PY         0.06682  -0.19698  -0.11913   0.36864  -0.18233
  20        1PZ         0.02178  -0.00589  -0.02356   0.01602  -0.02109
  21 6   H  1S         -0.16936   0.09752   0.46677  -0.34603   0.40400
  22 7   H  1S          0.28152   0.40299  -0.16107  -0.31180   0.05828
  23 8   H  1S          0.18680  -0.21788   0.14037  -0.36341  -0.30994
  24 9   H  1S         -0.16808   0.13763  -0.32413  -0.27457   0.14705
                          21        22        23        24
                           V         V         V         V
     Eigenvalues --     0.17753   0.19517   0.20545   0.21273
   1 1   C  1S         -0.31854  -0.18027   0.12726   0.11062
   2        1PX         0.13625  -0.04407   0.46639  -0.09342
   3        1PY        -0.33514   0.15974  -0.22244  -0.30730
   4        1PZ        -0.01481  -0.01823   0.00258   0.02858
   5 2   C  1S         -0.16860  -0.03893  -0.09013   0.01244
   6        1PX        -0.07644   0.26377  -0.30928   0.23165
   7        1PY         0.15049   0.43104  -0.20450  -0.43134
   8        1PZ         0.02078  -0.00676   0.02084  -0.01156
   9 3   O  1S          0.05517  -0.05237  -0.00834   0.01157
  10        1PX        -0.12388  -0.00665  -0.21746   0.40617
  11        1PY         0.08487  -0.21537  -0.07927   0.13890
  12        1PZ         0.01328  -0.00735   0.00104  -0.00219
  13 4   C  1S          0.20800   0.17549   0.11345   0.02770
  14        1PX         0.32268  -0.42836  -0.34258  -0.03589
  15        1PY         0.05408   0.16093  -0.05573   0.53958
  16        1PZ        -0.01123  -0.02206  -0.01896   0.01385
  17 5   C  1S          0.05267  -0.14597  -0.17342  -0.15224
  18        1PX        -0.29442  -0.19606   0.24301  -0.29040
  19        1PY         0.02045   0.33977   0.34621   0.20680
  20        1PZ         0.00505  -0.00411   0.00941  -0.02498
  21 6   H  1S          0.01331  -0.10221  -0.16717   0.01050
  22 7   H  1S         -0.39144   0.20668   0.15903   0.05731
  23 8   H  1S          0.18761   0.40475  -0.20797  -0.10748
  24 9   H  1S          0.50535   0.02631   0.27904   0.01176
     Density Matrix:
                           1         2         3         4         5
   1 1   C  1S          1.22933
   2        1PX        -0.05712   0.96152
   3        1PY         0.06362  -0.03478   0.93556
   4        1PZ        -0.01724   0.00477   0.02227   1.05665
   5 2   C  1S          0.30836  -0.01696  -0.51774   0.05483   1.24193
   6        1PX        -0.01476   0.15664   0.04012   0.02026  -0.08653
   7        1PY         0.46026  -0.04532  -0.60942   0.05003  -0.02736
   8        1PZ        -0.03915   0.00991   0.06142   0.88083   0.02706
   9 3   O  1S         -0.00187  -0.03194  -0.01168   0.00676   0.08277
  10        1PX         0.02002  -0.00776  -0.06399   0.00391  -0.36667
  11        1PY        -0.07814  -0.05245   0.03297   0.00744   0.15884
  12        1PZ         0.00330  -0.01066  -0.00837  -0.22991   0.03272
  13 4   C  1S         -0.02721  -0.01973   0.01371  -0.00746   0.01179
  14        1PX         0.02503  -0.00071  -0.00558   0.00754   0.00375
  15        1PY        -0.01040  -0.07615  -0.05342   0.01606  -0.03526
  16        1PZ         0.00841   0.00077  -0.00906  -0.05968  -0.01748
  17 5   C  1S          0.24831   0.42538   0.16011  -0.00904  -0.02670
  18        1PX        -0.43778  -0.61883  -0.27845  -0.00453   0.00414
  19        1PY        -0.09076  -0.14037   0.04079  -0.00059   0.01623
  20        1PZ        -0.01423  -0.00989   0.00439   0.39602  -0.00832
  21 6   H  1S         -0.04485  -0.06410  -0.02020   0.00172   0.05040
  22 7   H  1S          0.04905   0.07023   0.02526   0.00509   0.04310
  23 8   H  1S         -0.05617   0.00223   0.09418  -0.01620   0.62272
  24 9   H  1S          0.59475  -0.60346   0.47112   0.00833  -0.05935
                           6         7         8         9        10
   6        1PX         0.83990
   7        1PY         0.07269   0.94654
   8        1PZ         0.01363   0.00454   1.03794
   9 3   O  1S          0.22698  -0.07673  -0.01557   1.88668
  10        1PX        -0.69718   0.27682   0.04705   0.07021   1.16875
  11        1PY         0.37024  -0.00962  -0.02665  -0.26204  -0.05163
  12        1PZ         0.06548  -0.01831   0.35111  -0.02278   0.02306
  13 4   C  1S          0.01817  -0.03045  -0.00980   0.08980   0.22748
  14        1PX         0.03241  -0.00153   0.00516  -0.14190  -0.15838
  15        1PY         0.03178  -0.00394   0.00127  -0.20321  -0.40833
  16        1PZ        -0.00528  -0.00815  -0.29267  -0.01437  -0.01959
  17 5   C  1S         -0.01121  -0.01559   0.00791  -0.00219   0.03041
  18        1PX        -0.06769   0.06334   0.00276   0.03194  -0.05074
  19        1PY        -0.00203  -0.00503  -0.00595   0.00891   0.00959
  20        1PZ        -0.01699   0.01004  -0.06116   0.00649  -0.01223
  21 6   H  1S         -0.00257   0.05155  -0.01119   0.02269   0.02842
  22 7   H  1S          0.09206  -0.02354  -0.00100  -0.03344  -0.02895
  23 8   H  1S         -0.48906  -0.55472  -0.00500  -0.03283   0.06024
  24 9   H  1S         -0.02471  -0.06348   0.01185   0.02034  -0.08065
                          11        12        13        14        15
  11        1PY         1.30657
  12        1PZ        -0.05049   1.78944
  13 4   C  1S          0.34183   0.02320   1.23937
  14        1PX        -0.46159  -0.03297   0.10188   0.95268
  15        1PY        -0.54017  -0.04525   0.01854  -0.06464   0.84375
  16        1PZ        -0.04418   0.36173   0.02021  -0.01173  -0.00436
  17 5   C  1S         -0.07641   0.00327   0.32593  -0.27107   0.40054
  18        1PX        -0.00861   0.01670   0.30852  -0.09465   0.39473
  19        1PY         0.06107   0.00562  -0.40762   0.32073  -0.33453
  20        1PZ         0.00939  -0.23633   0.03404  -0.03390   0.01234
  21 6   H  1S          0.11116   0.00387  -0.05973   0.05388  -0.04117
  22 7   H  1S         -0.07677  -0.01399   0.61257   0.72731  -0.14706
  23 8   H  1S         -0.05415  -0.01513   0.04199  -0.05266  -0.06595
  24 9   H  1S          0.06674   0.00470   0.04685  -0.02766   0.04372
                          16        17        18        19        20
  16        1PZ         1.02634
  17 5   C  1S         -0.02919   1.23248
  18        1PX        -0.03785   0.01199   0.91942
  19        1PY         0.00788   0.07748   0.02965   0.98879
  20        1PZ         0.87923  -0.01275  -0.01594   0.00684   1.07501
  21 6   H  1S          0.01132   0.56023   0.23433   0.75608   0.02862
  22 7   H  1S          0.00127  -0.06305  -0.04830   0.07603  -0.00824
  23 8   H  1S          0.00373   0.04728  -0.06542  -0.01696   0.00518
  24 9   H  1S         -0.00652  -0.04830   0.06778   0.01883   0.00115
                          21        22        23        24
  21 6   H  1S          0.84322
  22 7   H  1S          0.00864   0.81432
  23 8   H  1S         -0.01495  -0.01702   0.83049
  24 9   H  1S         -0.00496  -0.01441   0.01296   0.83331
    Full Mulliken population analysis:
                           1         2         3         4         5
   1 1   C  1S          1.22933
   2        1PX         0.00000   0.96152
   3        1PY         0.00000   0.00000   0.93556
   4        1PZ         0.00000   0.00000   0.00000   1.05665
   5 2   C  1S          0.00000   0.00000   0.00000   0.00000   1.24193
   6        1PX         0.00000   0.00000   0.00000   0.00000   0.00000
   7        1PY         0.00000   0.00000   0.00000   0.00000   0.00000
   8        1PZ         0.00000   0.00000   0.00000   0.00000   0.00000
   9 3   O  1S          0.00000   0.00000   0.00000   0.00000   0.00000
  10        1PX         0.00000   0.00000   0.00000   0.00000   0.00000
  11        1PY         0.00000   0.00000   0.00000   0.00000   0.00000
  12        1PZ         0.00000   0.00000   0.00000   0.00000   0.00000
  13 4   C  1S          0.00000   0.00000   0.00000   0.00000   0.00000
  14        1PX         0.00000   0.00000   0.00000   0.00000   0.00000
  15        1PY         0.00000   0.00000   0.00000   0.00000   0.00000
  16        1PZ         0.00000   0.00000   0.00000   0.00000   0.00000
  17 5   C  1S          0.00000   0.00000   0.00000   0.00000   0.00000
  18        1PX         0.00000   0.00000   0.00000   0.00000   0.00000
  19        1PY         0.00000   0.00000   0.00000   0.00000   0.00000
  20        1PZ         0.00000   0.00000   0.00000   0.00000   0.00000
  21 6   H  1S          0.00000   0.00000   0.00000   0.00000   0.00000
  22 7   H  1S          0.00000   0.00000   0.00000   0.00000   0.00000
  23 8   H  1S          0.00000   0.00000   0.00000   0.00000   0.00000
  24 9   H  1S          0.00000   0.00000   0.00000   0.00000   0.00000
                           6         7         8         9        10
   6        1PX         0.83990
   7        1PY         0.00000   0.94654
   8        1PZ         0.00000   0.00000   1.03794
   9 3   O  1S          0.00000   0.00000   0.00000   1.88668
  10        1PX         0.00000   0.00000   0.00000   0.00000   1.16875
  11        1PY         0.00000   0.00000   0.00000   0.00000   0.00000
  12        1PZ         0.00000   0.00000   0.00000   0.00000   0.00000
  13 4   C  1S          0.00000   0.00000   0.00000   0.00000   0.00000
  14        1PX         0.00000   0.00000   0.00000   0.00000   0.00000
  15        1PY         0.00000   0.00000   0.00000   0.00000   0.00000
  16        1PZ         0.00000   0.00000   0.00000   0.00000   0.00000
  17 5   C  1S          0.00000   0.00000   0.00000   0.00000   0.00000
  18        1PX         0.00000   0.00000   0.00000   0.00000   0.00000
  19        1PY         0.00000   0.00000   0.00000   0.00000   0.00000
  20        1PZ         0.00000   0.00000   0.00000   0.00000   0.00000
  21 6   H  1S          0.00000   0.00000   0.00000   0.00000   0.00000
  22 7   H  1S          0.00000   0.00000   0.00000   0.00000   0.00000
  23 8   H  1S          0.00000   0.00000   0.00000   0.00000   0.00000
  24 9   H  1S          0.00000   0.00000   0.00000   0.00000   0.00000
                          11        12        13        14        15
  11        1PY         1.30657
  12        1PZ         0.00000   1.78944
  13 4   C  1S          0.00000   0.00000   1.23937
  14        1PX         0.00000   0.00000   0.00000   0.95268
  15        1PY         0.00000   0.00000   0.00000   0.00000   0.84375
  16        1PZ         0.00000   0.00000   0.00000   0.00000   0.00000
  17 5   C  1S          0.00000   0.00000   0.00000   0.00000   0.00000
  18        1PX         0.00000   0.00000   0.00000   0.00000   0.00000
  19        1PY         0.00000   0.00000   0.00000   0.00000   0.00000
  20        1PZ         0.00000   0.00000   0.00000   0.00000   0.00000
  21 6   H  1S          0.00000   0.00000   0.00000   0.00000   0.00000
  22 7   H  1S          0.00000   0.00000   0.00000   0.00000   0.00000
  23 8   H  1S          0.00000   0.00000   0.00000   0.00000   0.00000
  24 9   H  1S          0.00000   0.00000   0.00000   0.00000   0.00000
                          16        17        18        19        20
  16        1PZ         1.02634
  17 5   C  1S          0.00000   1.23248
  18        1PX         0.00000   0.00000   0.91942
  19        1PY         0.00000   0.00000   0.00000   0.98879
  20        1PZ         0.00000   0.00000   0.00000   0.00000   1.07501
  21 6   H  1S          0.00000   0.00000   0.00000   0.00000   0.00000
  22 7   H  1S          0.00000   0.00000   0.00000   0.00000   0.00000
  23 8   H  1S          0.00000   0.00000   0.00000   0.00000   0.00000
  24 9   H  1S          0.00000   0.00000   0.00000   0.00000   0.00000
                          21        22        23        24
  21 6   H  1S          0.84322
  22 7   H  1S          0.00000   0.81432
  23 8   H  1S          0.00000   0.00000   0.83049
  24 9   H  1S          0.00000   0.00000   0.00000   0.83331
     Gross orbital populations:
                           1
   1 1   C  1S          1.22933
   2        1PX         0.96152
   3        1PY         0.93556
   4        1PZ         1.05665
   5 2   C  1S          1.24193
   6        1PX         0.83990
   7        1PY         0.94654
   8        1PZ         1.03794
   9 3   O  1S          1.88668
  10        1PX         1.16875
  11        1PY         1.30657
  12        1PZ         1.78944
  13 4   C  1S          1.23937
  14        1PX         0.95268
  15        1PY         0.84375
  16        1PZ         1.02634
  17 5   C  1S          1.23248
  18        1PX         0.91942
  19        1PY         0.98879
  20        1PZ         1.07501
  21 6   H  1S          0.84322
  22 7   H  1S          0.81432
  23 8   H  1S          0.83049
  24 9   H  1S          0.83331
          Condensed to atoms (all electrons):
               1          2          3          4          5          6
     1  C    4.183059   0.000000   0.000000   0.000000   0.000000   0.000000
     2  C    0.000000   4.066304   0.000000   0.000000   0.000000   0.000000
     3  O    0.000000   0.000000   6.151448   0.000000   0.000000   0.000000
     4  C    0.000000   0.000000   0.000000   4.062144   0.000000   0.000000
     5  C    0.000000   0.000000   0.000000   0.000000   4.215705   0.000000
     6  H    0.000000   0.000000   0.000000   0.000000   0.000000   0.843222
     7  H    0.000000   0.000000   0.000000   0.000000   0.000000   0.000000
     8  H    0.000000   0.000000   0.000000   0.000000   0.000000   0.000000
     9  H    0.000000   0.000000   0.000000   0.000000   0.000000   0.000000
               7          8          9
     1  C    0.000000   0.000000   0.000000
     2  C    0.000000   0.000000   0.000000
     3  O    0.000000   0.000000   0.000000
     4  C    0.000000   0.000000   0.000000
     5  C    0.000000   0.000000   0.000000
     6  H    0.000000   0.000000   0.000000
     7  H    0.814318   0.000000   0.000000
     8  H    0.000000   0.830490   0.000000
     9  H    0.000000   0.000000   0.833310
 Mulliken charges:
               1
     1  C   -0.183059
     2  C   -0.066304
     3  O   -0.151448
     4  C   -0.062144
     5  C   -0.215705
     6  H    0.156778
     7  H    0.185682
     8  H    0.169510
     9  H    0.166690
 Sum of Mulliken charges =   0.00000
 Mulliken charges with hydrogens summed into heavy atoms:
               1
     1  C   -0.016369
     2  C    0.103206
     3  O   -0.151448
     4  C    0.123538
     5  C   -0.058927
 Charge=              0.0000 electrons
 Dipole moment (field-independent basis, Debye):
    X=             -0.1965    Y=              0.8622    Z=              0.0939  Tot=              0.8892
 N-N= 1.025528660941D+02 E-N=-1.695642784084D+02  KE=-1.644024848738D+01
 Orbital energies and kinetic energies (alpha):
                                 1                 2
   1         O                -1.510885         -1.283421
   2         O                -1.216396         -1.028802
   3         O                -1.109550         -0.970950
   4         O                -0.821948         -0.734802
   5         O                -0.798664         -0.697256
   6         O                -0.674351         -0.597833
   7         O                -0.573376         -0.471943
   8         O                -0.558569         -0.495455
   9         O                -0.520069         -0.449338
  10         O                -0.507658         -0.409632
  11         O                -0.482975         -0.421284
  12         O                -0.394282         -0.339725
  13         O                -0.356692         -0.319684
  14         V                 0.027861         -0.202513
  15         V                 0.062637         -0.191355
  16         V                 0.096273         -0.189310
  17         V                 0.134185         -0.184872
  18         V                 0.139157         -0.228106
  19         V                 0.157765         -0.202770
  20         V                 0.173762         -0.177152
  21         V                 0.177533         -0.198743
  22         V                 0.195168         -0.129501
  23         V                 0.205451         -0.121069
  24         V                 0.212728         -0.066702
 Total kinetic energy from orbitals=-1.644024848738D+01
 Leave Link  601 at Tue Dec 15 16:22:16 2015, MaxMem=    33554432 cpu:         0.0
 (Enter /home/Applications/g09/g09/l701.exe)
 Compute integral first derivatives.
 ... and contract with generalized density number  6.
 Leave Link  701 at Tue Dec 15 16:22:16 2015, MaxMem=    33554432 cpu:         0.0
 (Enter /home/Applications/g09/g09/l702.exe)
 L702 exits ... SP integral derivatives will be done elsewhere.
 Leave Link  702 at Tue Dec 15 16:22:16 2015, MaxMem=    33554432 cpu:         0.0
 (Enter /home/Applications/g09/g09/l703.exe)
 Compute integral first derivatives, UseDBF=F ICtDFT=           0.
 Integral derivatives from FoFJK, PRISM(SPDF).
 Calling FoFJK, ICntrl=  10005127 FMM=F ISym2X=0 I1Cent= 0 IOpClX= 0 NMat=1 NMatS=1 NMatT=0.
 FoFJK:  IHMeth= 8 ICntrl=10005127 DoSepK=F KAlg= 0 I1Cent=   0 FoldK=F
 IRaf=         0 NMat=   1 IRICut=       1 DoRegI=T DoRafI=F ISym2E= 0.
 FoFCou: FMM=F IPFlag=           0 FMFlag=      100000 FMFlg1=         800
         NFxFlg=           0 DoJE=F BraDBF=F KetDBF=F FulRan=T
         wScrn=  0.000000 ICntrl=10005127 IOpCl=  0 I1Cent=           0 NGrid=           0
         NMat0=    1 NMatS0=      1 NMatT0=    0 NMatD0=    1 NMtDS0=    0 NMtDT0=    0
 Symmetry not used in FoFCou.
 Leave Link  703 at Tue Dec 15 16:22:16 2015, MaxMem=    33554432 cpu:         0.0
 (Enter /home/Applications/g09/g09/l716.exe)
 Dipole        = 3.10076063D-02 4.37627974D-01 3.78224617D-02
 ***** Axes restored to original set *****
 -------------------------------------------------------------------
 Center     Atomic                   Forces (Hartrees/Bohr)
 Number     Number              X              Y              Z
 -------------------------------------------------------------------
      1        6           0.062010126    0.094028544   -0.003025391
      2        6          -0.058185877    0.046825866    0.008703467
      3        8          -0.004168086   -0.000491899   -0.005937889
      4        6          -0.112303094    0.002412661    0.003846028
      5        6           0.178886515   -0.063362860   -0.003218626
      6        1          -0.026131590   -0.018285844    0.004224263
      7        1          -0.010140736    0.010503374   -0.002231744
      8        1          -0.040518216   -0.070339142   -0.004237862
      9        1           0.010550958   -0.001290699    0.001877754
 -------------------------------------------------------------------
 Cartesian Forces:  Max     0.178886515 RMS     0.052717929
 Z-matrix is all fixed cartesians, so copy forces.
 Force constants in Cartesian coordinates: 
                1             2             3             4             5 
      1  0.938630D+00
      2 -0.338229D-01  0.718118D+00
      3  0.235185D-01  0.151145D-01  0.192424D+00
      4 -0.526718D+00 -0.107881D+00 -0.301589D-01  0.949295D+00
      5 -0.884468D-01 -0.218424D+00 -0.128073D-01  0.136797D+00  0.875731D+00
      6 -0.273625D-01 -0.102935D-01 -0.110662D+00  0.921556D-02  0.255980D-01
      7 -0.804541D-02  0.269911D-01  0.296082D-02 -0.232232D+00  0.110256D+00
      8 -0.613482D-02  0.207396D-01  0.138111D-02  0.147644D+00 -0.268863D+00
      9 -0.112636D-02  0.290742D-02  0.252898D-02  0.188069D-01 -0.193942D-01
     10  0.109391D-01  0.542068D-03  0.489710D-03  0.212426D-01  0.166382D-01
     11  0.338389D-01  0.162919D-02  0.224514D-02 -0.161994D-01 -0.126867D-01
     12  0.494035D-03  0.188242D-03  0.106430D-02 -0.213595D-02 -0.174993D-02
     13 -0.155613D+00  0.205125D-01 -0.325395D-03  0.969476D-02 -0.333099D-01
     14 -0.231687D-02 -0.333595D+00 -0.394166D-02  0.455621D-03 -0.160047D-02
     15 -0.590152D-03  0.254989D-02 -0.660755D-01  0.708642D-03 -0.343248D-02
     16  0.148319D-01  0.719395D-03 -0.374270D-03 -0.634087D-05  0.000000D+00
     17 -0.216509D-01 -0.105279D-02  0.143878D-02  0.000000D+00  0.000000D+00
     18 -0.436235D-03 -0.551516D-04  0.114753D-01 -0.118161D-03 -0.115240D-04
     19  0.133825D-04  0.177793D-05 -0.381042D-03  0.119777D-04 -0.254804D-05
     20  0.108883D-04  0.144655D-05 -0.310023D-03  0.232463D-05  0.000000D+00
     21 -0.293337D-03 -0.389711D-04  0.835220D-02  0.254683D-03 -0.541793D-04
     22  0.807942D-02 -0.277816D-01  0.229951D-03 -0.216228D+00 -0.159221D+00
     23 -0.458451D-02  0.156738D-01  0.293100D-03 -0.153881D+00 -0.398054D+00
     24 -0.102160D-02 -0.417317D-02  0.360249D-01  0.635197D-02  0.822289D-02
     25 -0.282117D+00  0.120719D+00  0.404060D-02 -0.505996D-02  0.172893D-01
     26  0.123107D+00 -0.203091D+00 -0.341359D-02 -0.693736D-02  0.238983D-01
     27  0.681764D-02 -0.619917D-02 -0.751321D-01 -0.292473D-02  0.362880D-02
                6             7             8             9            10 
      6  0.204182D+00
      7  0.149552D-01  0.456254D+00
      8 -0.185444D-01  0.221085D-01  0.552776D+00
      9 -0.391634D-01 -0.283429D-01  0.704179D-02  0.451597D-01
     10 -0.154490D-02 -0.249021D+00 -0.171165D+00  0.135898D-01  0.973205D+00
     11  0.123377D-02 -0.129444D+00 -0.308773D+00  0.112798D-01 -0.946238D-01
     12 -0.121550D-02  0.119516D-01  0.117058D-01 -0.404965D-01  0.314852D-02
     13  0.235459D-03 -0.926123D-02  0.694255D-02 -0.748269D-03 -0.584013D+00
     14 -0.130092D-03 -0.284135D-01  0.214352D-01 -0.203556D-02  0.137899D+00
     15 -0.654938D-03  0.191213D-02 -0.508097D-03  0.559920D-02 -0.182478D-01
     16  0.104997D-03  0.000000D+00 -0.236051D-05 -0.418502D-04 -0.522107D-02
     17  0.000000D+00 -0.968051D-05  0.355473D-04  0.630229D-03  0.747663D-02
     18  0.195662D-02 -0.112320D-03  0.412444D-03  0.731235D-02 -0.170748D-02
     19  0.145832D-03  0.210642D-01 -0.160003D-01 -0.866229D-03 -0.167143D+00
     20  0.283031D-04  0.105319D-01 -0.800367D-02 -0.516055D-03  0.103238D+00
     21  0.310085D-02 -0.124358D-02  0.120343D-02  0.583284D-02  0.417055D-02
     22  0.387963D-02  0.212320D-01  0.165802D-01 -0.101429D-02  0.129242D-04
     23  0.251137D-02 -0.120381D-01 -0.940669D-02  0.649828D-03 -0.512269D-05
     24 -0.876138D-01 -0.186857D-02 -0.197636D-02  0.645138D-02  0.186551D-03
     25  0.370732D-03  0.804309D-05  0.271183D-04 -0.256713D-03 -0.174648D-05
     26 -0.402630D-03  0.176459D-04  0.594956D-04 -0.563209D-03  0.000000D+00
     27  0.300699D-01 -0.212279D-03 -0.715728D-03  0.677536D-02 -0.849755D-04
               11            12            13            14            15 
     11  0.855735D+00
     12 -0.143596D-01  0.205674D+00
     13  0.115324D+00 -0.180844D-01  0.945117D+00
     14 -0.238488D+00  0.673315D-02 -0.457735D-01  0.700422D+00
     15  0.819131D-02 -0.114961D+00  0.843115D-02 -0.112510D-01  0.194058D+00
     16 -0.159853D-01  0.144669D-02 -0.231068D+00 -0.896441D-01  0.834856D-02
     17  0.231291D-01  0.218347D-03 -0.907818D-01 -0.162707D+00  0.512717D-02
     18 -0.217206D-02  0.298906D-01  0.112462D-01  0.765682D-02 -0.717864D-01
     19  0.107092D+00  0.297251D-02  0.872308D-02  0.269950D-01  0.351614D-03
     20 -0.320548D+00 -0.266897D-02  0.435628D-02  0.134305D-01 -0.312717D-03
     21 -0.636743D-02 -0.846465D-01 -0.154910D-03  0.305607D-02  0.340297D-01
     22 -0.274940D-05  0.157356D-03  0.365573D-04  0.356533D-05 -0.605346D-03
     23  0.108976D-05 -0.623703D-04 -0.261630D-04 -0.255161D-05  0.433229D-03
     24 -0.396854D-04  0.227131D-02 -0.465895D-03 -0.454375D-04  0.771468D-02
     25  0.000000D+00  0.497277D-04  0.163838D-01  0.794361D-03 -0.308817D-03
     26  0.000000D+00 -0.476588D-05  0.227558D-01  0.110439D-02 -0.797314D-03
     27 -0.112894D-04  0.241951D-02 -0.133867D-03 -0.422919D-04  0.120768D-01
               16            17            18            19            20 
     16  0.221470D+00
     17  0.104915D+00  0.140554D+00
     18 -0.939300D-02 -0.631170D-02  0.370152D-01
     19 -0.334226D-05  0.503317D-04  0.583983D-03  0.137334D+00
     20 -0.271933D-05  0.409508D-04  0.475139D-03 -0.118136D+00  0.315079D+00
     21  0.732603D-04 -0.110324D-02 -0.128005D-01 -0.280667D-02  0.330432D-02
     22  0.000000D+00  0.000000D+00  0.000000D+00  0.000000D+00  0.000000D+00
     23  0.000000D+00  0.000000D+00  0.000000D+00  0.000000D+00  0.000000D+00
     24  0.000000D+00  0.000000D+00  0.000000D+00  0.000000D+00  0.000000D+00
     25 -0.337839D-05  0.000000D+00 -0.629561D-04  0.000000D+00  0.000000D+00
     26  0.000000D+00  0.000000D+00  0.603369D-05  0.000000D+00  0.000000D+00
     27 -0.164377D-03  0.112203D-05 -0.306314D-02  0.000000D+00  0.000000D+00
               21            22            23            24            25 
     21  0.461314D-01
     22  0.000000D+00  0.186906D+00
     23  0.000000D+00  0.170507D+00  0.391727D+00
     24  0.000000D+00 -0.368216D-02 -0.308454D-02  0.483400D-01
     25  0.000000D+00 -0.392098D-04  0.280614D-04  0.499700D-03  0.270829D+00
     26  0.000000D+00 -0.860235D-04  0.615646D-04  0.109630D-02 -0.138857D+00
     27  0.000000D+00  0.103486D-02 -0.740617D-03 -0.131884D-01 -0.433227D-02
               26            27 
     26  0.177967D+00
     27  0.407917D-02  0.400421D-01
 Leave Link  716 at Tue Dec 15 16:22:16 2015, MaxMem=    33554432 cpu:         0.0
 (Enter /home/Applications/g09/g09/l103.exe)

 GradGradGradGradGradGradGradGradGradGradGradGradGradGradGradGradGradGrad
 Berny optimization.
 Search for a local minimum.
 Step number   1 out of a maximum of    2
 All quantities printed in internal units (Hartrees-Bohrs-Radians)
 Second derivative matrix not updated -- first step.
 ITU=  0
     Eigenvalues ---    0.01649   0.02537   0.06596   0.07462   0.08050
     Eigenvalues ---    0.08385   0.12640   0.13150   0.15700   0.23978
     Eigenvalues ---    0.24780   0.32911   0.38227   0.45736   0.63302
     Eigenvalues ---    0.77693   0.96245   1.22703   1.29622   1.65100
     Eigenvalues ---    1.70235
 Quadratic step=4.676D-01 exceeds max=3.000D-01 adjusted using Lamda=-1.059D-01.
 Angle between NR and scaled steps=  22.08 degrees.
 Angle between quadratic step and forces=  33.96 degrees.
 Linear search not attempted -- first point.
 TrRot=  0.001743  0.006581 -0.000702  1.009321  0.000501 -1.010116
 Variable       Old X    -DE/DX   Delta X   Delta X   Delta X     New X
                                 (Linear)    (Quad)   (Total)
    X1        1.86823   0.06201   0.00000   0.06492   0.06561   1.93384
    Y1       -1.44476   0.09403   0.00000   0.10309   0.10816  -1.33660
    Z1        0.06017  -0.00303   0.00000  -0.01457  -0.01522   0.04496
    X2       -0.57066  -0.05819   0.00000  -0.06804  -0.06800  -0.63865
    Y2       -2.15529   0.04683   0.00000   0.03586   0.04293  -2.11236
    Z2       -0.09130   0.00870   0.00000   0.03123   0.03159  -0.05970
    X3       -2.24896  -0.00417   0.00000  -0.07166  -0.06990  -2.31886
    Y3        0.00463  -0.00049   0.00000  -0.00249   0.00596   0.01059
    Z3        0.08429  -0.00594   0.00000  -0.02165  -0.02173   0.06255
    X4       -0.63517  -0.11230   0.00000  -0.03903  -0.03562  -0.67079
    Y4        2.13433   0.00241   0.00000  -0.04051  -0.03339   2.10094
    Z4       -0.01105   0.00385   0.00000   0.01678   0.01537   0.00433
    X5        1.73200   0.17889   0.00000   0.16169   0.16450   1.89650
    Y5        1.36838  -0.06336   0.00000  -0.03885  -0.03375   1.33462
    Z5        0.06852  -0.00322   0.00000  -0.00946  -0.01123   0.05729
    X6        3.51040  -0.02613   0.00000   0.03135   0.03511   3.54551
    Y6        2.58858  -0.01829   0.00000  -0.04277  -0.03901   2.54956
    Z6       -0.02647   0.00422   0.00000   0.01354   0.01081  -0.01566
    X7       -1.53693  -0.01014   0.00000  -0.05321  -0.04834  -1.58527
    Y7        3.94095   0.01050   0.00000  -0.01109  -0.00324   3.93771
    Z7        0.01487  -0.00223   0.00000  -0.00120  -0.00314   0.01173
    X8       -1.49544  -0.04052   0.00000  -0.09365  -0.09502  -1.59046
    Y8       -3.78934  -0.07034   0.00000  -0.10721  -0.09940  -3.88874
    Z8       -0.07210  -0.00424   0.00000  -0.00717  -0.00580  -0.07790
    X9        3.51049   0.01055   0.00000   0.05196   0.05165   3.56215
    Y9       -2.62738  -0.00129   0.00000   0.04799   0.05175  -2.57563
    Z9        0.02409   0.00188   0.00000  -0.00010  -0.00065   0.02344
         Item               Value     Threshold  Converged?
 Maximum Force            0.178887     0.000450     NO 
 RMS     Force            0.052718     0.000300     NO 
 Maximum Displacement     0.164500     0.001800     NO 
 RMS     Displacement     0.057593     0.001200     NO 
 Predicted change in Energy=-3.884807D-02
 GradGradGradGradGradGradGradGradGradGradGradGradGradGradGradGradGradGrad

 Leave Link  103 at Tue Dec 15 16:22:16 2015, MaxMem=    33554432 cpu:         0.0
 (Enter /home/Applications/g09/g09/l9999.exe)
 1\1\GINC-DUSTIN-DESKTOP\Force\RAM1-FC\STO-3G\C4H4O1\DUSTIN\15-Dec-2015
 \0\\#P AM1(Input,print) CIS(Singlets,NStates=15) pop(full) force\\AM1-
 Reparam Input\\0,1\C,0.988626,-0.764534,0.031843\C,-0.301978,-1.14053,
 -0.048312\O,-1.190098,0.00245,0.044603\C,-0.336119,1.129439,-0.005846\
 C,0.916533,0.724113,0.036257\H,1.857624,1.369815,-0.014008\H,-0.81331,
 2.085461,0.00787\H,-0.791352,-2.005232,-0.038153\H,1.857672,-1.390348,
 0.012749\\Version=ES64L-G09RevD.01\State=1-A\HF=0.0251872\RMSD=9.787e-
 09\RMSF=5.272e-02\Dipole=0.4078744,0.1622656,-0.0349083\PG=C01 [X(C4H4
 O1)]\\@


 ACTORS ARE SO FORTUNATE.  THEY CAN CHOOSE WHETHER
 THEY WILL APPEAR IN A TRAGEDY OR IN COMEDY,
 WHETHER THEY WILL SUFFER OF MAKE MERRY,
 LAUGH OR SHED TEARS.  BUT IN REAL LIFE IT IS DIFFERENT.
 MOST MEN AND WOMEN ARE FORCED TO PERFORM
 PARTS FOR WHICH THEY HAVE NO QUALIFICATIONS.
 THE WORLD IS A STAGE, BUT THE PLAY IS BADLY CAST.

                                   -- OSCAR WILDE
 Job cpu time:       0 days  0 hours  0 minutes  0.4 seconds.
 File lengths (MBytes):  RWF=      7 Int=      0 D2E=      0 Chk=      2 Scr=      1
 Normal termination of Gaussian 09 at Tue Dec 15 16:22:16 2015.
