 Entering Gaussian System, Link 0=g09
 Input=FuranAM1_21P10.com
 Output=FuranAM1_21P10.log
 Initial command:
 /home/Applications/g09/g09/l1.exe "/home/Applications/g09/scratch/Gau-9383.inp" -scrdir="/home/Applications/g09/scratch/"
 Entering Link 1 = /home/Applications/g09/g09/l1.exe PID=      9386.
  
 Copyright (c) 1988,1990,1992,1993,1995,1998,2003,2009,2013,
            Gaussian, Inc.  All Rights Reserved.
  
 This is part of the Gaussian(R) 09 program.  It is based on
 the Gaussian(R) 03 system (copyright 2003, Gaussian, Inc.),
 the Gaussian(R) 98 system (copyright 1998, Gaussian, Inc.),
 the Gaussian(R) 94 system (copyright 1995, Gaussian, Inc.),
 the Gaussian 92(TM) system (copyright 1992, Gaussian, Inc.),
 the Gaussian 90(TM) system (copyright 1990, Gaussian, Inc.),
 the Gaussian 88(TM) system (copyright 1988, Gaussian, Inc.),
 the Gaussian 86(TM) system (copyright 1986, Carnegie Mellon
 University), and the Gaussian 82(TM) system (copyright 1983,
 Carnegie Mellon University). Gaussian is a federally registered
 trademark of Gaussian, Inc.
  
 This software contains proprietary and confidential information,
 including trade secrets, belonging to Gaussian, Inc.
  
 This software is provided under written license and may be
 used, copied, transmitted, or stored only in accord with that
 written license.
  
 The following legend is applicable only to US Government
 contracts under FAR:
  
                    RESTRICTED RIGHTS LEGEND
  
 Use, reproduction and disclosure by the US Government is
 subject to restrictions as set forth in subparagraphs (a)
 and (c) of the Commercial Computer Software - Restricted
 Rights clause in FAR 52.227-19.
  
 Gaussian, Inc.
 340 Quinnipiac St., Bldg. 40, Wallingford CT 06492
  
  
 ---------------------------------------------------------------
 Warning -- This program may not be used in any manner that
 competes with the business of Gaussian, Inc. or will provide
 assistance to any competitor of Gaussian, Inc.  The licensee
 of this program is prohibited from giving any competitor of
 Gaussian, Inc. access to this program.  By using this program,
 the user acknowledges that Gaussian, Inc. is engaged in the
 business of creating and licensing software in the field of
 computational chemistry and represents and warrants to the
 licensee that it is not a competitor of Gaussian, Inc. and that
 it will not use this program in any manner prohibited above.
 ---------------------------------------------------------------
  

 Cite this work as:
 Gaussian 09, Revision D.01,
 M. J. Frisch, G. W. Trucks, H. B. Schlegel, G. E. Scuseria, 
 M. A. Robb, J. R. Cheeseman, G. Scalmani, V. Barone, B. Mennucci, 
 G. A. Petersson, H. Nakatsuji, M. Caricato, X. Li, H. P. Hratchian, 
 A. F. Izmaylov, J. Bloino, G. Zheng, J. L. Sonnenberg, M. Hada, 
 M. Ehara, K. Toyota, R. Fukuda, J. Hasegawa, M. Ishida, T. Nakajima, 
 Y. Honda, O. Kitao, H. Nakai, T. Vreven, J. A. Montgomery, Jr., 
 J. E. Peralta, F. Ogliaro, M. Bearpark, J. J. Heyd, E. Brothers, 
 K. N. Kudin, V. N. Staroverov, T. Keith, R. Kobayashi, J. Normand, 
 K. Raghavachari, A. Rendell, J. C. Burant, S. S. Iyengar, J. Tomasi, 
 M. Cossi, N. Rega, J. M. Millam, M. Klene, J. E. Knox, J. B. Cross, 
 V. Bakken, C. Adamo, J. Jaramillo, R. Gomperts, R. E. Stratmann, 
 O. Yazyev, A. J. Austin, R. Cammi, C. Pomelli, J. W. Ochterski, 
 R. L. Martin, K. Morokuma, V. G. Zakrzewski, G. A. Voth, 
 P. Salvador, J. J. Dannenberg, S. Dapprich, A. D. Daniels, 
 O. Farkas, J. B. Foresman, J. V. Ortiz, J. Cioslowski, 
 and D. J. Fox, Gaussian, Inc., Wallingford CT, 2013.
 
 ******************************************
 Gaussian 09:  ES64L-G09RevD.01 24-Apr-2013
                15-Dec-2015 
 ******************************************
 ------------------------------------------------------------
 #P AM1(Input,print) CIS(Singlets,NStates=15) pop(full) force
 ------------------------------------------------------------
 1/10=7,30=1,38=1/1,3;
 2/12=2,17=6,18=5,40=1/2;
 3/5=2,16=1,25=1,41=700000,71=1,135=100,136=1/1,2,8,3;
 4/35=1/1;
 5/5=2,35=1,38=5/2;
 8/6=1,10=1,108=15/1;
 9/15=2,41=15,42=1,48=1,49=10/14;
 10/5=4/2;
 6/7=3,18=1/1;
 7/12=6,13=5,29=1/1,2,3,16;
 1/10=7,30=1/3;
 99//99;
 Leave Link    1 at Tue Dec 15 17:07:34 2015, MaxMem=           0 cpu:         0.0
 (Enter /home/Applications/g09/g09/l101.exe)
 -----------------
 AM1-Reparam Input
 -----------------
 Symbolic Z-matrix:
 Charge =  0 Multiplicity = 1
 6                     0.98104  -0.71996  -0.03848 
 6                    -0.35537  -1.0892    0.03066 
 8                    -1.17801   0.03665   0.00255 
 6                    -0.39473   1.07917   0.02944 
 6                     1.0049    0.75598   0.0167 
 1                     1.7973    1.39652  -0.00434 
 1                    -0.86185   2.08012   0.03552 
 1                    -0.82866  -2.09203  -0.03742 
 1                     1.78957  -1.37628   0.041 
 
 NAtoms=      9 NQM=        9 NQMF=       0 NMMI=      0 NMMIF=      0
                NMic=       0 NMicF=      0.
                    Isotopes and Nuclear Properties:
 (Nuclear quadrupole moments (NQMom) in fm**2, nuclear magnetic moments (NMagM)
  in nuclear magnetons)

  Atom         1           2           3           4           5           6           7           8           9
 IAtWgt=          12          12          16          12          12           1           1           1           1
 AtmWgt=  12.0000000  12.0000000  15.9949146  12.0000000  12.0000000   1.0078250   1.0078250   1.0078250   1.0078250
 NucSpn=           0           0           0           0           0           1           1           1           1
 AtZEff=   0.0000000   0.0000000   0.0000000   0.0000000   0.0000000   0.0000000   0.0000000   0.0000000   0.0000000
 NQMom=    0.0000000   0.0000000   0.0000000   0.0000000   0.0000000   0.0000000   0.0000000   0.0000000   0.0000000
 NMagM=    0.0000000   0.0000000   0.0000000   0.0000000   0.0000000   2.7928460   2.7928460   2.7928460   2.7928460
 AtZNuc=   6.0000000   6.0000000   8.0000000   6.0000000   6.0000000   1.0000000   1.0000000   1.0000000   1.0000000
 Leave Link  101 at Tue Dec 15 17:07:34 2015, MaxMem=    33554432 cpu:         0.1
 (Enter /home/Applications/g09/g09/l103.exe)

 GradGradGradGradGradGradGradGradGradGradGradGradGradGradGradGradGradGrad
 Berny optimization.
 Initialization pass.
 Trust Radius=3.00D-01 FncErr=1.00D-07 GrdErr=1.00D-07
 Number of steps in this run=      2 maximum allowed number of steps=      2.
 GradGradGradGradGradGradGradGradGradGradGradGradGradGradGradGradGradGrad

 Leave Link  103 at Tue Dec 15 17:07:34 2015, MaxMem=    33554432 cpu:         0.0
 (Enter /home/Applications/g09/g09/l202.exe)
                          Input orientation:                          
 ---------------------------------------------------------------------
 Center     Atomic      Atomic             Coordinates (Angstroms)
 Number     Number       Type             X           Y           Z
 ---------------------------------------------------------------------
      1          6           0        0.981038   -0.719956   -0.038484
      2          6           0       -0.355373   -1.089199    0.030660
      3          8           0       -1.178013    0.036646    0.002547
      4          6           0       -0.394732    1.079171    0.029436
      5          6           0        1.004896    0.755981    0.016696
      6          1           0        1.797302    1.396519   -0.004344
      7          1           0       -0.861854    2.080124    0.035523
      8          1           0       -0.828656   -2.092030   -0.037421
      9          1           0        1.789573   -1.376284    0.040996
 ---------------------------------------------------------------------
                    Distance matrix (angstroms):
                    1          2          3          4          5
     1  C    0.000000
     2  C    1.388206   0.000000
     3  O    2.288150   1.394652   0.000000
     4  C    2.265880   2.168728   1.304266   0.000000
     5  C    1.477161   2.292426   2.298420   1.436514   0.000000
     6  H    2.268682   3.288469   3.271361   2.215144   1.019136
     7  H    3.352935   3.209541   2.068054   1.104603   2.288769
     8  H    2.271031   1.110991   2.157524   3.201449   3.387626
     9  H    1.044420   2.164097   3.287007   3.286424   2.272193
                    6          7          8          9
     6  H    0.000000
     7  H    2.745909   0.000000
     8  H    4.366546   4.172924   0.000000
     9  H    2.773184   4.356243   2.715431   0.000000
 Stoichiometry    C4H4O
 Framework group  C1[X(C4H4O)]
 Deg. of freedom    21
 Full point group                 C1      NOp   1
 Largest Abelian subgroup         C1      NOp   1
 Largest concise Abelian subgroup C1      NOp   1
                         Standard orientation:                         
 ---------------------------------------------------------------------
 Center     Atomic      Atomic             Coordinates (Angstroms)
 Number     Number       Type             X           Y           Z
 ---------------------------------------------------------------------
      1          6           0        1.010083    0.697276   -0.032860
      2          6           0        0.930391   -0.687172    0.030939
      3          8           0       -0.399434   -1.105088   -0.013396
      4          6           0       -1.135891   -0.028866    0.008723
      5          6           0       -0.380748    1.193153    0.008364
      6          1           0       -0.733018    2.149220   -0.013539
      7          1           0       -2.233786   -0.150229    0.002140
      8          1           0        1.729140   -1.456914   -0.030691
      9          1           0        1.890128    1.252281    0.058256
 ---------------------------------------------------------------------
 Rotational constants (GHZ):      9.3753332      8.8315712      4.5504030
 Leave Link  202 at Tue Dec 15 17:07:35 2015, MaxMem=    33554432 cpu:         0.0
 (Enter /home/Applications/g09/g09/l301.exe)

 Semi-emprical parameters in input format:
 Method=8 CoreType=1 PeptideFC=0.0106250000 RIJScale=0.5404210000
 ****
 H       
 PQN=1 NValence=1 F0ss=0.4721550000 ZetaOverlap=1.0856700000 U=-0.3858490000
 Beta=-0.2268830000 CoreKO=1.0354420000 KON=0,0,0,1.0458670000 KON=1,0,1,1.0589200000
 KON=0,1,1,1.1438880000 KON=2,1,1,1.0589200000 EISol=-0.4188110042 EHeat=0.0830298228
 Alpha=1.4046640000
 GCore=0.0085280000,1.5127750000,2.2676710000
 GCore=0.0003530000,1.4368830000,3.4779940000
 GCore=-0.0013010000,0.5600570000,3.5861320000
 ****
 C       
 PQN=2,2 NValence=4 F0ss=0.4494440000 F0sp=0.4261420000 F0pp=0.3497590000 F2pp=0.1878900000
 G1sp=0.2701540000
 ZetaOverlap=1.8086650000,1.3781170000
 U=-1.6741410000,-1.4557970000
 Beta=-0.5453250000,-0.2836780000 DDN=0,1,0.7474020000 DDN=1,1,0.7964360000
 CoreKO=1.1124280000 KON=0,0,0,1.1124280000 KON=1,0,1,0.8159680000 KON=0,1,1,1.1124280000
 KON=2,1,1,0.8516400000 EISol=-4.4398989268 EHeat=0.2723305520 Alpha=1.3653470000
 DipHyp=1.4947180026
 GCore=0.0007890000,1.3361580000,2.6678360000
 GCore=0.0031890000,1.4001430000,3.2045450000
 GCore=-0.0015090000,1.3827320000,3.8739390000
 GCore=-0.0001030000,1.2700780000,4.6088130000
 ****
 O       
 PQN=2,2 NValence=6 F0ss=0.6666250000 F0sp=0.5321300000 F0pp=0.4958710000 F2pp=0.2358080000
 G1sp=0.4343770000
 ZetaOverlap=2.7336680000,2.5240390000
 U=-3.5951870000,-1.8323600000
 Beta=-1.1573400000,-1.2481890000 DDN=0,1,0.4953610000 DDN=1,1,0.5211070000
 CoreKO=0.8515990000 KON=0,0,0,0.8822960000 KON=1,0,1,0.5019540000 KON=0,1,1,0.8671530000
 KON=2,1,1,0.5515580000 EISol=-11.6164441184 EHeat=0.0949133088 Alpha=2.4031680000
 DipHyp=0.9906650029
 GCore=0.0204720000,1.2640290000,1.6023330000
 GCore=0.0052790000,1.9602000000,2.5761670000
 ****
 
 Standard basis: VSTO-6G (5D, 7F)
 Ernie: Thresh=  0.10000D-02 Tol=  0.10000D-05 Strict=F.
  NNHCO=     0 NNPyr=     0 NCTC=     0               EPep=         0.000000000
    EC=        68.318429957  ECS=         1.973806413   EG=         0.403240983
   EHC=         0.000000000  EAt=       -31.051283842  AtH=         1.516354808
 EPDDG=         0.000000000  ECC=        70.695477353 EAtT=        32.567638650
 There are    24 symmetry adapted cartesian basis functions of A   symmetry.
 There are    24 symmetry adapted basis functions of A   symmetry.
    24 basis functions,   144 primitive gaussians,    24 cartesian basis functions
    13 alpha electrons       13 beta electrons
       nuclear repulsion energy       103.2631160033 Hartrees.
 IExCor=    0 DFT=F Ex=HF Corr=None ExCW=0 ScaHFX=  1.000000
 ScaDFX=  1.000000  1.000000  1.000000  1.000000 ScalE2=  1.000000  1.000000
 IRadAn=      0 IRanWt=     -1 IRanGd=            0 ICorTp=0 IEmpDi=  4
 Integral buffers will be    131072 words long.
 Regular integral format.
 Two-electron integral symmetry is turned off.
 Leave Link  301 at Tue Dec 15 17:07:35 2015, MaxMem=    33554432 cpu:         0.0
 (Enter /home/Applications/g09/g09/l302.exe)
 Do NDO integrals.
 NPDir=0 NMtPBC=     1 NCelOv=     1 NCel=       1 NClECP=     1 NCelD=      1
         NCelK=      1 NCelE2=     1 NClLst=     1 CellRange=     0.0.
 One-electron integrals computed using PRISM.
 NBasis=    24 RedAO= F EigKep=  0.00D+00  NBF=    24
 NBsUse=    24 1.00D-04 EigRej=  0.00D+00 NBFU=    24
 Leave Link  302 at Tue Dec 15 17:07:35 2015, MaxMem=    33554432 cpu:         0.0
 (Enter /home/Applications/g09/g09/l308.exe)
 Leave Link  308 at Tue Dec 15 17:07:35 2015, MaxMem=    33554432 cpu:         0.0
 (Enter /home/Applications/g09/g09/l303.exe)
 DipDrv:  MaxL=1.
 Leave Link  303 at Tue Dec 15 17:07:35 2015, MaxMem=    33554432 cpu:         0.0
 (Enter /home/Applications/g09/g09/l401.exe)
 Simple Huckel Guess.
 JPrj=0 DoOrth=F DoCkMO=F.
 Leave Link  401 at Tue Dec 15 17:07:35 2015, MaxMem=    33554432 cpu:         0.0
 (Enter /home/Applications/g09/g09/l502.exe)
 Closed shell SCF:
 Using DIIS extrapolation, IDIIS=  1040.
 Overlap will be assumed to be unity.
 Two-electron integral symmetry not used.
 Keep J ints in memory in canonical form, NReq=888082.
 IVT=       79475 IEndB=       79475 NGot=    33554432 MDV=    33473473
 LenX=    33473473 LenY=    33472456
 Requested convergence on RMS density matrix=1.00D-08 within 128 cycles.
 Requested convergence on MAX density matrix=1.00D-06.
 Requested convergence on             energy=1.00D-06.
 No special actions if energy rises.
 FoFCou: FMM=F IPFlag=           0 FMFlag=           0 FMFlg1=           0
         NFxFlg=           0 DoJE=F BraDBF=F KetDBF=F FulRan=T
         wScrn=  0.000000 ICntrl=     600 IOpCl=  2 I1Cent=           0 NGrid=           0
         NMat0=    1 NMatS0=     54 NMatT0=    0 NMatD0=    1 NMtDS0=    0 NMtDT0=    0
 Symmetry not used in FoFCou.

 Cycle   1  Pass 1  IDiag  1:
 E=  5.66391069573322    
 DIIS: error= 1.80D-01 at cycle   1 NSaved=   1.
 NSaved= 1 IEnMin= 1 EnMin=  5.66391069573322     IErMin= 1 ErrMin= 1.80D-01
 ErrMax= 1.80D-01  0.00D+00 EMaxC= 1.00D-01 BMatC= 6.78D-01 BMatP= 6.78D-01
 IDIUse=3 WtCom= 0.00D+00 WtEn= 1.00D+00
 Coeff-Com:  0.100D+01
 Coeff-En:   0.100D+01
 Coeff:      0.100D+01
 GapD=    2.000 DampG=2.000 DampE=0.250 DampFc=0.5000 IDamp=-1.
 Damping current iteration by 5.00D-01
 RMSDP=7.02D-02 MaxDP=7.33D-01              OVMax= 0.00D+00

 Cycle   2  Pass 1  IDiag  1:
 E=  4.30253106970507     Delta-E=       -1.361379626028 Rises=F Damp=T
 DIIS: error= 1.00D-01 at cycle   2 NSaved=   2.
 NSaved= 2 IEnMin= 2 EnMin=  4.30253106970507     IErMin= 2 ErrMin= 1.00D-01
 ErrMax= 1.00D-01  0.00D+00 EMaxC= 1.00D-01 BMatC= 2.23D-01 BMatP= 6.78D-01
 IDIUse=3 WtCom= 0.00D+00 WtEn= 1.00D+00
 Coeff-Com: -0.116D+01 0.216D+01
 Coeff-En:   0.000D+00 0.100D+01
 Coeff:      0.000D+00 0.100D+01
 RMSDP=3.86D-02 MaxDP=3.81D-01 DE=-1.36D+00 OVMax= 0.00D+00

 Cycle   3  Pass 1  IDiag  1:
 E=  2.65782386486798     Delta-E=       -1.644707204837 Rises=F Damp=F
 DIIS: error= 2.13D-02 at cycle   3 NSaved=   3.
 NSaved= 3 IEnMin= 3 EnMin=  2.65782386486798     IErMin= 3 ErrMin= 2.13D-02
 ErrMax= 2.13D-02  0.00D+00 EMaxC= 1.00D-01 BMatC= 1.64D-02 BMatP= 2.23D-01
 IDIUse=3 WtCom= 7.87D-01 WtEn= 2.13D-01
 Coeff-Com:  0.283D+00-0.680D+00 0.140D+01
 Coeff-En:   0.000D+00 0.000D+00 0.100D+01
 Coeff:      0.223D+00-0.536D+00 0.131D+01
 RMSDP=1.13D-02 MaxDP=5.80D-02 DE=-1.64D+00 OVMax= 0.00D+00

 Cycle   4  Pass 1  IDiag  1:
 E=  2.59930315851867     Delta-E=       -0.058520706349 Rises=F Damp=F
 DIIS: error= 4.99D-03 at cycle   4 NSaved=   4.
 NSaved= 4 IEnMin= 4 EnMin=  2.59930315851867     IErMin= 4 ErrMin= 4.99D-03
 ErrMax= 4.99D-03  0.00D+00 EMaxC= 1.00D-01 BMatC= 1.22D-03 BMatP= 1.64D-02
 IDIUse=3 WtCom= 9.50D-01 WtEn= 4.99D-02
 Coeff-Com: -0.201D-01 0.352D-01-0.325D+00 0.131D+01
 Coeff-En:   0.000D+00 0.000D+00 0.000D+00 0.100D+01
 Coeff:     -0.191D-01 0.335D-01-0.309D+00 0.129D+01
 RMSDP=3.99D-03 MaxDP=2.05D-02 DE=-5.85D-02 OVMax= 0.00D+00

 Cycle   5  Pass 1  IDiag  3:
 E=  2.59417113595991     Delta-E=       -0.005132022559 Rises=F Damp=F
 DIIS: error= 1.23D-03 at cycle   5 NSaved=   5.
 NSaved= 5 IEnMin= 5 EnMin=  2.59417113595991     IErMin= 5 ErrMin= 1.23D-03
 ErrMax= 1.23D-03  0.00D+00 EMaxC= 1.00D-01 BMatC= 4.05D-05 BMatP= 1.22D-03
 IDIUse=3 WtCom= 9.88D-01 WtEn= 1.23D-02
 Coeff-Com:  0.130D-01-0.221D-01 0.111D+00-0.528D+00 0.143D+01
 Coeff-En:   0.000D+00 0.000D+00 0.000D+00 0.000D+00 0.100D+01
 Coeff:      0.128D-01-0.218D-01 0.109D+00-0.522D+00 0.142D+01
 Gap=     0.381 Goal=   None    Shift=    0.000
 RMSDP=8.46D-04 MaxDP=4.56D-03 DE=-5.13D-03 OVMax= 9.21D-03

 Cycle   6  Pass 1  IDiag  3:
 E=  2.59397355282756     Delta-E=       -0.000197583132 Rises=F Damp=F
 DIIS: error= 2.09D-04 at cycle   6 NSaved=   6.
 NSaved= 6 IEnMin= 6 EnMin=  2.59397355282756     IErMin= 6 ErrMin= 2.09D-04
 ErrMax= 2.09D-04  0.00D+00 EMaxC= 1.00D-01 BMatC= 1.12D-06 BMatP= 4.05D-05
 IDIUse=3 WtCom= 9.98D-01 WtEn= 2.09D-03
 Coeff-Com: -0.225D-02 0.444D-02-0.252D-01 0.122D+00-0.442D+00 0.134D+01
 Coeff-En:   0.000D+00 0.000D+00 0.000D+00 0.000D+00 0.000D+00 0.100D+01
 Coeff:     -0.224D-02 0.443D-02-0.252D-01 0.122D+00-0.441D+00 0.134D+01
 Gap=     0.382 Goal=   None    Shift=    0.000
 RMSDP=1.39D-04 MaxDP=7.75D-04 DE=-1.98D-04 OVMax= 1.29D-03

 Cycle   7  Pass 1  IDiag  3:
 E=  2.59396828240462     Delta-E=       -0.000005270423 Rises=F Damp=F
 DIIS: error= 3.56D-05 at cycle   7 NSaved=   7.
 NSaved= 7 IEnMin= 7 EnMin=  2.59396828240462     IErMin= 7 ErrMin= 3.56D-05
 ErrMax= 3.56D-05  0.00D+00 EMaxC= 1.00D-01 BMatC= 3.81D-08 BMatP= 1.12D-06
 IDIUse=1 WtCom= 1.00D+00 WtEn= 0.00D+00
 Coeff-Com:  0.165D-03-0.421D-03 0.526D-02-0.286D-01 0.123D+00-0.506D+00
 Coeff-Com:  0.141D+01
 Coeff:      0.165D-03-0.421D-03 0.526D-02-0.286D-01 0.123D+00-0.506D+00
 Coeff:      0.141D+01
 Gap=     0.382 Goal=   None    Shift=    0.000
 RMSDP=2.39D-05 MaxDP=1.61D-04 DE=-5.27D-06 OVMax= 1.34D-04

 Cycle   8  Pass 1  IDiag  3:
 E=  2.59396811559985     Delta-E=       -0.000000166805 Rises=F Damp=F
 DIIS: error= 6.57D-06 at cycle   8 NSaved=   8.
 NSaved= 8 IEnMin= 8 EnMin=  2.59396811559985     IErMin= 8 ErrMin= 6.57D-06
 ErrMax= 6.57D-06  0.00D+00 EMaxC= 1.00D-01 BMatC= 1.11D-09 BMatP= 3.81D-08
 IDIUse=1 WtCom= 1.00D+00 WtEn= 0.00D+00
 Coeff-Com:  0.268D-04-0.410D-04-0.542D-03 0.424D-02-0.251D-01 0.131D+00
 Coeff-Com: -0.485D+00 0.137D+01
 Coeff:      0.268D-04-0.410D-04-0.542D-03 0.424D-02-0.251D-01 0.131D+00
 Coeff:     -0.485D+00 0.137D+01
 Gap=     0.382 Goal=   None    Shift=    0.000
 RMSDP=3.93D-06 MaxDP=3.13D-05 DE=-1.67D-07 OVMax= 2.53D-05

 Cycle   9  Pass 1  IDiag  3:
 E=  2.59396811100005     Delta-E=       -0.000000004600 Rises=F Damp=F
 DIIS: error= 8.09D-07 at cycle   9 NSaved=   9.
 NSaved= 9 IEnMin= 9 EnMin=  2.59396811100005     IErMin= 9 ErrMin= 8.09D-07
 ErrMax= 8.09D-07  0.00D+00 EMaxC= 1.00D-01 BMatC= 2.61D-11 BMatP= 1.11D-09
 IDIUse=1 WtCom= 1.00D+00 WtEn= 0.00D+00
 Coeff-Com:  0.247D-06 0.184D-05-0.706D-06-0.363D-03 0.400D-02-0.259D-01
 Coeff-Com:  0.105D+00-0.393D+00 0.131D+01
 Coeff:      0.247D-06 0.184D-05-0.706D-06-0.363D-03 0.400D-02-0.259D-01
 Coeff:      0.105D+00-0.393D+00 0.131D+01
 Gap=     0.382 Goal=   None    Shift=    0.000
 RMSDP=6.15D-07 MaxDP=4.03D-06 DE=-4.60D-09 OVMax= 4.44D-06

 Cycle  10  Pass 1  IDiag  3:
 E=  2.59396811088915     Delta-E=       -0.000000000111 Rises=F Damp=F
 DIIS: error= 1.03D-07 at cycle  10 NSaved=  10.
 NSaved=10 IEnMin=10 EnMin=  2.59396811088915     IErMin=10 ErrMin= 1.03D-07
 ErrMax= 1.03D-07  0.00D+00 EMaxC= 1.00D-01 BMatC= 6.07D-13 BMatP= 2.61D-11
 IDIUse=1 WtCom= 1.00D+00 WtEn= 0.00D+00
 Coeff-Com:  0.437D-06-0.138D-05 0.592D-05 0.602D-04-0.885D-03 0.610D-02
 Coeff-Com: -0.258D-01 0.104D+00-0.427D+00 0.134D+01
 Coeff:      0.437D-06-0.138D-05 0.592D-05 0.602D-04-0.885D-03 0.610D-02
 Coeff:     -0.258D-01 0.104D+00-0.427D+00 0.134D+01
 Gap=     0.382 Goal=   None    Shift=    0.000
 RMSDP=1.03D-07 MaxDP=8.50D-07 DE=-1.11D-10 OVMax= 1.04D-06

 Cycle  11  Pass 1  IDiag  3:
 E=  2.59396811088607     Delta-E=       -0.000000000003 Rises=F Damp=F
 DIIS: error= 2.66D-08 at cycle  11 NSaved=  11.
 NSaved=11 IEnMin=11 EnMin=  2.59396811088607     IErMin=11 ErrMin= 2.66D-08
 ErrMax= 2.66D-08  0.00D+00 EMaxC= 1.00D-01 BMatC= 2.73D-14 BMatP= 6.07D-13
 IDIUse=1 WtCom= 1.00D+00 WtEn= 0.00D+00
 Coeff-Com: -0.157D-06 0.348D-06 0.816D-06-0.268D-04 0.265D-03-0.169D-02
 Coeff-Com:  0.717D-02-0.291D-01 0.124D+00-0.488D+00 0.139D+01
 Coeff:     -0.157D-06 0.348D-06 0.816D-06-0.268D-04 0.265D-03-0.169D-02
 Coeff:      0.717D-02-0.291D-01 0.124D+00-0.488D+00 0.139D+01
 Gap=     0.382 Goal=   None    Shift=    0.000
 RMSDP=2.52D-08 MaxDP=2.20D-07 DE=-3.08D-12 OVMax= 2.79D-07

 Cycle  12  Pass 1  IDiag  3:
 E=  2.59396811088594     Delta-E=        0.000000000000 Rises=F Damp=F
 DIIS: error= 7.21D-09 at cycle  12 NSaved=  12.
 NSaved=12 IEnMin=12 EnMin=  2.59396811088594     IErMin=12 ErrMin= 7.21D-09
 ErrMax= 7.21D-09  0.00D+00 EMaxC= 1.00D-01 BMatC= 1.64D-15 BMatP= 2.73D-14
 IDIUse=1 WtCom= 1.00D+00 WtEn= 0.00D+00
 Coeff-Com:  0.440D-07-0.795D-07-0.237D-06 0.624D-05-0.612D-04 0.399D-03
 Coeff-Com: -0.177D-02 0.775D-02-0.359D-01 0.161D+00-0.670D+00 0.154D+01
 Coeff:      0.440D-07-0.795D-07-0.237D-06 0.624D-05-0.612D-04 0.399D-03
 Coeff:     -0.177D-02 0.775D-02-0.359D-01 0.161D+00-0.670D+00 0.154D+01
 Gap=     0.382 Goal=   None    Shift=    0.000
 RMSDP=8.09D-09 MaxDP=7.45D-08 DE=-1.28D-13 OVMax= 9.21D-08

 Cycle  13  Pass 2  IDiag  1:
 SCF Done:  E(RAM1) =   2.59396811089     A.U. after   13 cycles
            NFock= 12  Conv=0.81D-08     -V/T= 1.1817
 KE=-1.427454962608D+01 PE=-1.683528778178D+02 EE= 8.195827955143D+01
 Leave Link  502 at Tue Dec 15 17:07:35 2015, MaxMem=    33554432 cpu:         0.0
 (Enter /home/Applications/g09/g09/l801.exe)
 Range of M.O.s used for correlation:     1    24
 NBasis=    24 NAE=    13 NBE=    13 NFC=     0 NFV=     0
 NROrb=     24 NOA=    13 NOB=    13 NVA=    11 NVB=    11
 Leave Link  801 at Tue Dec 15 17:07:35 2015, MaxMem=    33554432 cpu:         0.0
 (Enter /home/Applications/g09/g09/l914.exe)
 RHF ground state
 MDV=    33554432 DFT=F DoStab=F Mixed=F DoRPA=F DoScal=F NonHer=F
 Making orbital integer symmetry assigments:
 Orbital symmetries:
       Occupied  (A) (A) (A) (A) (A) (A) (A) (A) (A) (A) (A) (A)
                 (A)
       Virtual   (A) (A) (A) (A) (A) (A) (A) (A) (A) (A) (A)
    60 initial guesses have been made.
 Convergence on wavefunction:    0.000001000000000
 Davidson Disk Diagonalization:  ConvIn= 1.00D-06 SkipCon=T Conv= 1.00D-06.
 Max sub-space:   240 roots to seek:    60 dimension of matrix:          286
 Iteration     1 Dimension    60 NMult     0 NNew     60
 CISAX will form    60 AO SS matrices at one time.
 NMat=    60 NSing=    60 JSym2X= 0.
 FoFJK:  IHMeth= 8 ICntrl=       0 DoSepK=F KAlg= 0 I1Cent=   0 FoldK=F
 IRaf=         1 NMat= 120 IRICut=       1 DoRegI=T DoRafI=F ISym2E= 0.
 FoFCou: FMM=F IPFlag=           0 FMFlag=      100000 FMFlg1=           0
         NFxFlg=           0 DoJE=F BraDBF=F KetDBF=F FulRan=T
         wScrn=  0.000000 ICntrl=       0 IOpCl=  0 I1Cent=           0 NGrid=           0
         NMat0=  120 NMatS0=     60 NMatT0=    0 NMatD0=  120 NMtDS0=    0 NMtDT0=    0
 Symmetry not used in FoFCou.
 New state      3 was old state      4
 New state      4 was old state      3
 New state      5 was old state      6
 New state      6 was old state      7
 New state      7 was old state      5
 New state      9 was old state     10
 New state     10 was old state      9
 New state     12 was old state     13
 New state     13 was old state     12
 Excitation Energies [eV] at current iteration:
 Root      1 :     5.129829019720235
 Root      2 :     6.134468701237435
 Root      3 :     6.559231694167899
 Root      4 :     6.670254832969299
 Root      5 :     7.494648063339151
 Root      6 :     7.948578101331280
 Root      7 :     8.218365434525801
 Root      8 :     9.180606735415520
 Root      9 :     9.498764811663936
 Root     10 :     9.587946993987233
 Root     11 :     9.829963365482682
 Root     12 :    10.052363914563880
 Root     13 :    10.172195081584060
 Root     14 :    10.262389818080380
 Root     15 :    10.424827157802500
 Root     16 :    10.570229538617130
 Root     17 :    10.887053401906010
 Root     18 :    10.923375365791030
 Root     19 :    11.545551244098530
 Root     20 :    11.650499303526830
 Root     21 :    11.912260714092890
 Root     22 :    12.194565127824970
 Root     23 :    12.393564279683570
 Root     24 :    12.599764469215100
 Root     25 :    12.733149359730670
 Root     26 :    12.884464370057730
 Root     27 :    13.039100571617120
 Root     28 :    13.305586787680020
 Root     29 :    13.362717231698730
 Root     30 :    13.416054703360730
 Root     31 :    13.672561288933180
 Root     32 :    13.698455106364510
 Root     33 :    14.019879341608960
 Root     34 :    14.184187866962860
 Root     35 :    14.236774856726400
 Root     36 :    14.505883268209090
 Root     37 :    14.998645900590010
 Root     38 :    15.039109614723970
 Root     39 :    15.370992837951330
 Root     40 :    15.518312397913420
 Root     41 :    15.661700395203710
 Root     42 :    15.715679880632640
 Root     43 :    15.814904830701210
 Root     44 :    15.840512344352770
 Root     45 :    15.976046960792800
 Root     46 :    16.155132309885490
 Root     47 :    16.429106691572300
 Root     48 :    16.522678303316040
 Root     49 :    16.534856968508860
 Root     50 :    16.838214790701160
 Root     51 :    17.027886516055040
 Root     52 :    17.231278898334030
 Root     53 :    17.422239278320210
 Root     54 :    17.516482449749640
 Root     55 :    17.733756198086910
 Root     56 :    18.341920130201170
 Root     57 :    18.500059128010370
 Root     58 :    18.575960485870780
 Root     59 :    18.833956114286920
 Root     60 :    19.026594115821260
 Iteration     2 Dimension   120 NMult    60 NNew     60
 CISAX will form    60 AO SS matrices at one time.
 NMat=    60 NSing=    60 JSym2X= 0.
 Root      1 not converged, maximum delta is    0.020352439885054
 Root      2 not converged, maximum delta is    0.015201973440731
 Root      3 not converged, maximum delta is    0.022755422768791
 Root      4 not converged, maximum delta is    0.025619137292361
 Root      5 not converged, maximum delta is    0.020426277250233
 Root      6 not converged, maximum delta is    0.011966998673034
 Root      7 not converged, maximum delta is    0.009854932898360
 Root      8 not converged, maximum delta is    0.012006979371741
 New state      9 was old state     10
 Root      9 not converged, maximum delta is    0.087846720345142
 New state     10 was old state      9
 Root     10 not converged, maximum delta is    0.088479179311752
 Root     11 not converged, maximum delta is    0.043760136737440
 Root     12 not converged, maximum delta is    0.255937954348173
 Root     13 not converged, maximum delta is    0.249656777518870
 Root     14 not converged, maximum delta is    0.042543840739348
 New state     15 was old state     16
 Root     15 not converged, maximum delta is    0.175641866010946
 Excitation Energies [eV] at current iteration:
 Root      1 :     5.049992093631115   Change is   -0.079836926089120
 Root      2 :     6.122249775969568   Change is   -0.012218925267867
 Root      3 :     6.538111196002118   Change is   -0.021120498165781
 Root      4 :     6.651788557648685   Change is   -0.018466275320613
 Root      5 :     7.481444700074090   Change is   -0.013203363265061
 Root      6 :     7.943789926553144   Change is   -0.004788174778136
 Root      7 :     8.201535502538853   Change is   -0.016829931986947
 Root      8 :     9.174096313544258   Change is   -0.006510421871262
 Root      9 :     9.402882353504202   Change is   -0.185064640483031
 Root     10 :     9.486671394049763   Change is   -0.012093417614171
 Root     11 :     9.802642698942822   Change is   -0.027320666539860
 Root     12 :     9.949955737291619   Change is   -0.102408177272262
 Root     13 :    10.051113955721190   Change is   -0.121081125862868
 Root     14 :    10.248693127997950   Change is   -0.013696690082427
 Root     15 :    10.371150412052110   Change is   -0.199079126565017
 Root     16 :    10.397106058294610   Change is   -0.027721099507887
 Root     17 :    10.753821980230010   Change is   -0.169553385561025
 Root     18 :    10.838063108207640   Change is   -0.048990293698374
 Root     19 :    11.328073888912390   Change is   -0.322425414614437
 Root     20 :    11.522053425161240   Change is   -0.023497818937292
 Root     21 :    11.862390324497700   Change is   -0.049870389595183
 Root     22 :    11.952044703506470   Change is   -0.242520424318507
 Root     23 :    12.194210510470090   Change is   -0.199353769213474
 Root     24 :    12.373325496054620   Change is   -0.226438973160476
 Root     25 :    12.680909175883820   Change is   -0.052240183846845
 Root     26 :    12.752626054156360   Change is   -0.286474517460761
 Root     27 :    12.840000264328370   Change is   -0.044464105729354
 Root     28 :    13.156530987809430   Change is   -0.149055799870596
 Root     29 :    13.275012249403030   Change is   -0.087704982295704
 Root     30 :    13.284168113834370   Change is   -0.131886589526359
 Root     31 :    13.483908232195390   Change is   -0.188653056737781
 Root     32 :    13.512346593411460   Change is   -0.186108512953050
 Root     33 :    13.786584963607560   Change is   -0.233294378001402
 Root     34 :    14.028252020902720   Change is   -0.208522835823681
 Root     35 :    14.175818578897650   Change is   -0.008369288065213
 Root     36 :    14.433203049040560   Change is   -0.072680219168528
 Root     37 :    14.827164301981320   Change is   -0.211945312742647
 Root     38 :    14.906225493658360   Change is   -0.092420406931650
 Root     39 :    15.073601504191550   Change is   -0.297391333759784
 Root     40 :    15.315297624356890   Change is   -0.346402770846824
 Root     41 :    15.396416564518590   Change is   -0.121895833394836
 Root     42 :    15.427949563533900   Change is   -0.386955267167308
 Root     43 :    15.609245354060030   Change is   -0.106434526572607
 Root     44 :    15.829568171963090   Change is   -0.010944172389681
 Root     45 :    15.901033146714610   Change is   -0.075013814078188
 Root     46 :    15.947937735583640   Change is   -0.207194574301848
 Root     47 :    16.121106573751220   Change is   -0.308000117821073
 Root     48 :    16.294113038868640   Change is   -0.240743929640219
 Root     49 :    16.379795866518730   Change is   -0.142882436797306
 Root     50 :    16.474590141313950   Change is   -0.363624649387217
 Root     51 :    16.619376401448930   Change is   -0.408510114606107
 Root     52 :    17.082272742751190   Change is   -0.149006155582838
 Root     53 :    17.111041146899400   Change is   -0.311198131420814
 Root     54 :    17.388186719374310   Change is   -0.128295730375337
 Root     55 :    17.560999828298380   Change is   -0.172756369788524
 Root     56 :    17.833504144439630   Change is   -0.508415985761543
 Root     57 :    18.111069779040950   Change is   -0.388989348969422
 Root     58 :    18.359670630076650   Change is   -0.216289855794129
 Root     59 :    18.375127831029720   Change is   -0.458828283257202
 Root     60 :    18.483134719955370
 Iteration     3 Dimension   135 NMult   120 NNew     15
 CISAX will form    15 AO SS matrices at one time.
 NMat=    15 NSing=    15 JSym2X= 0.
 Root      1 not converged, maximum delta is    0.000740439375007
 Root      2 not converged, maximum delta is    0.000027570797242
 Root      3 not converged, maximum delta is    0.000065113952860
 Root      4 not converged, maximum delta is    0.000028674119037
 Root      5 not converged, maximum delta is    0.000051566933750
 Root      6 not converged, maximum delta is    0.000025542208828
 Root      7 not converged, maximum delta is    0.000381431323501
 Root      8 not converged, maximum delta is    0.000089771686532
 Root      9 not converged, maximum delta is    0.001884783529840
 Root     10 not converged, maximum delta is    0.000417776047870
 Root     11 not converged, maximum delta is    0.000251268880537
 Root     12 not converged, maximum delta is    0.001291697704660
 Root     13 not converged, maximum delta is    0.001101075737012
 Root     14 not converged, maximum delta is    0.000248264616249
 Root     15 not converged, maximum delta is    0.004743660349368
 Excitation Energies [eV] at current iteration:
 Root      1 :     5.049849014946486   Change is   -0.000143078684629
 Root      2 :     6.122249441151666   Change is   -0.000000334817901
 Root      3 :     6.538109537371502   Change is   -0.000001658630615
 Root      4 :     6.651788074804228   Change is   -0.000000482844458
 Root      5 :     7.481443879849978   Change is   -0.000000820224112
 Root      6 :     7.943789537211838   Change is   -0.000000389341305
 Root      7 :     8.201507997242969   Change is   -0.000027505295885
 Root      8 :     9.174093940412883   Change is   -0.000002373131375
 Root      9 :     9.402072917313072   Change is   -0.000809436191131
 Root     10 :     9.486657397707763   Change is   -0.000013996342001
 Root     11 :     9.802630322294913   Change is   -0.000012376647909
 Root     12 :     9.949629431359435   Change is   -0.000326305932184
 Root     13 :    10.050678473253990   Change is   -0.000435482467199
 Root     14 :    10.248682508472010   Change is   -0.000010619525943
 Root     15 :    10.370409617717200   Change is   -0.000740794334913
 Iteration     4 Dimension   143 NMult   135 NNew      8
 CISAX will form     8 AO SS matrices at one time.
 NMat=     8 NSing=     8 JSym2X= 0.
 Root      1 not converged, maximum delta is    0.000032621928952
 Root      2 not converged, maximum delta is    0.000001596791518
 Root      3 not converged, maximum delta is    0.000002233113693
 Root      4 not converged, maximum delta is    0.000002487267223
 Root      5 not converged, maximum delta is    0.000002036321737
 Root      6 not converged, maximum delta is    0.000001265341066
 Root      7 not converged, maximum delta is    0.000009284231699
 Root      8 not converged, maximum delta is    0.000002762608394
 Root      9 not converged, maximum delta is    0.000084610601690
 Root     10 not converged, maximum delta is    0.000009360363420
 Root     11 not converged, maximum delta is    0.000008540501804
 Root     12 not converged, maximum delta is    0.000031110077186
 Root     13 not converged, maximum delta is    0.000042593160710
 Root     14 not converged, maximum delta is    0.000011669588519
 Root     15 not converged, maximum delta is    0.000079048441288
 Excitation Energies [eV] at current iteration:
 Root      1 :     5.049848628311522   Change is   -0.000000386634964
 Root      2 :     6.122249440650362   Change is   -0.000000000501304
 Root      3 :     6.538109535667093   Change is   -0.000000001704409
 Root      4 :     6.651788073612977   Change is   -0.000000001191250
 Root      5 :     7.481443878445169   Change is   -0.000000001404810
 Root      6 :     7.943789536668517   Change is   -0.000000000543321
 Root      7 :     8.201507968076116   Change is   -0.000000029166853
 Root      8 :     9.174093937859958   Change is   -0.000000002552925
 Root      9 :     9.402070963671957   Change is   -0.000001953641115
 Root     10 :     9.486657367000351   Change is   -0.000000030707411
 Root     11 :     9.802630300667426   Change is   -0.000000021627487
 Root     12 :     9.949629114090220   Change is   -0.000000317269216
 Root     13 :    10.050677883441600   Change is   -0.000000589812389
 Root     14 :    10.248682475684840   Change is   -0.000000032787164
 Root     15 :    10.370408371112750   Change is   -0.000001246604448
 Convergence achieved on expansion vectors.
 ***********************************************************************
 Excited states from <AA,BB:AA,BB> singles matrix:
 ***********************************************************************
 
 1PDM for each excited state written to RWF  633
 Ground to excited state transition densities written to RWF  633
 Ground to excited state transition electric dipole moments (Au):
       state          X           Y           Z        Dip. S.      Osc.
         1        -1.5905      0.7039      0.0659      3.0296      0.3748
         2        -0.0511      0.0200      0.0976      0.0125      0.0019
         3        -0.0370      0.0158     -0.0599      0.0052      0.0008
         4        -0.0487      0.0169      0.1353      0.0210      0.0034
         5        -0.0364     -0.0595      0.1527      0.0282      0.0052
         6        -0.0099      0.0067     -0.0042      0.0002      0.0000
         7        -0.3394     -0.7316      0.0351      0.6517      0.1309
         8         0.0333     -0.0166      0.1890      0.0371      0.0083
         9        -0.4677      0.4041      0.0529      0.3849      0.0887
        10        -0.1510      0.0900      0.0998      0.0409      0.0095
        11        -0.1775     -0.0196      0.0203      0.0323      0.0078
        12        -0.7395      0.0273     -0.0149      0.5478      0.1335
        13         0.7099     -0.3553      0.0400      0.6319      0.1556
        14        -0.0610      0.0144      0.0166      0.0042      0.0011
        15         0.0145     -0.0232      0.0449      0.0028      0.0007
 Ground to excited state transition velocity dipole moments (Au):
       state          X           Y           Z        Dip. S.      Osc.
         1         0.1788     -0.0876     -0.0041      0.0397      0.1425
         2         0.0059      0.0019     -0.0691      0.0048      0.0143
         3         0.0131      0.0029      0.0341      0.0013      0.0037
         4         0.0069     -0.0133     -0.1577      0.0251      0.0685
         5         0.0036      0.0186      0.0019      0.0004      0.0009
         6         0.0037     -0.0064     -0.0031      0.0001      0.0001
         7         0.1004      0.2265     -0.0096      0.0615      0.1360
         8        -0.0053      0.0040      0.0636      0.0041      0.0081
         9         0.1120     -0.0871     -0.0090      0.0202      0.0390
        10         0.0316     -0.0189      0.0185      0.0017      0.0032
        11         0.0208      0.0112     -0.1028      0.0111      0.0206
        12         0.0908     -0.0020      0.0271      0.0090      0.0164
        13        -0.1133      0.0242     -0.0268      0.0141      0.0255
        14         0.0130     -0.0044     -0.0893      0.0082      0.0144
        15        -0.0058      0.0060     -0.0156      0.0003      0.0005
 Ground to excited state transition magnetic dipole moments (Au):
       state          X           Y           Z
         1        -0.0045      0.0363     -0.5815
         2        -0.1880     -0.0923     -0.0165
         3        -0.1308     -0.9672     -0.0325
         4        -0.2468     -0.0533     -0.0397
         5        -0.8914      0.1254      0.0033
         6         0.2906      0.6796     -0.0188
         7         0.0880      0.0273      0.0347
         8        -0.4552      0.3160      0.0304
         9         0.0162      0.0277     -0.1824
        10        -0.4242     -0.2125     -0.0865
        11        -0.1214     -0.1793     -0.0761
        12        -0.0023      0.0424     -0.2988
        13        -0.0601      0.0051      0.1741
        14        -0.2076     -0.4119     -0.0322
        15         0.0288      0.1577     -0.0947
 Ground to excited state transition velocity quadrupole moments (Au):
       state          XX          YY          ZZ          XY          XZ          YZ
         1         0.1962     -0.2212      0.0035      0.2227      0.0045     -0.0199
         2        -0.0002      0.0114      0.0026      0.0143      0.1213     -0.1104
         3         0.0353      0.0208      0.0114      0.0212     -0.2048      0.0687
         4         0.0203     -0.0023     -0.0050     -0.0114     -0.1813     -0.0431
         5        -0.0310     -0.0010     -0.0040      0.0088     -0.0172      0.1888
         6        -0.0094      0.0033      0.0049      0.0019     -0.5092      0.1966
         7        -0.0954      0.1575     -0.0094      0.2527     -0.0352     -0.0114
         8         0.0013      0.0282      0.0070     -0.0121     -0.1365     -0.2743
         9         0.0290     -0.2626     -0.0176      0.0860     -0.0243      0.0057
        10         0.0855     -0.0669      0.0096      0.0297      0.0359     -0.2303
        11         0.0064     -0.0243     -0.0107      0.0566      0.2821     -0.0275
        12        -0.1034     -0.1851     -0.0668      0.2143     -0.0631      0.0027
        13        -0.5318     -0.1168     -0.1325     -0.0734     -0.0386      0.0053
        14         0.1121      0.0238      0.0243      0.0045     -0.1380     -0.0067
        15         0.4220      0.2391      0.0448     -0.0250     -0.0339      0.0384
 <0|del|b> * <b|rxdel|0> + <0|del|b> * <b|delr+rdel|0>
 Rotatory Strengths (R) in cgs (10**-40 erg-esu-cm/Gauss)
       state          XX          YY          ZZ    R(velocity)    E-M Angle
         1        -2.4936     -2.0435     -1.5830     -2.0400       90.79
         2        -0.3834      0.5705     -0.6357     -0.1495       90.56
         3        -3.8001     -3.8899     -8.8064     -5.4988       99.01
         4         9.1982      3.5594      2.4860      5.0812       82.52
         5         3.4417     -3.2351     -2.3627     -0.7187       92.80
         6        -9.1708      2.2618     -0.9020     -2.6036      122.86
         7        13.3562     11.4899      9.5933     11.4798       53.03
         8         3.1122      6.8581      1.7478      3.9060       80.94
         9        -3.7584      4.9802      0.8984      0.7067       87.75
        10         3.6861    -23.1795     -2.8469     -7.4468      123.66
        11        -3.1127     10.3414     -0.7837      2.1483       82.20
        12        -2.4140    -13.3887     -0.3960     -5.3996      107.03
        13        -1.5684     -0.3985      6.3173      1.4501       84.04
        14         3.4707      0.4621     -0.1537      1.2597       87.24
        15         2.7938      0.6478      0.7385      1.3934       46.77
 1/2[<0|r|b>*<b|rxdel|0> + (<0|rxdel|b>*<b|r|0>)*]
 Rotatory Strengths (R) in cgs (10**-40 erg-esu-cm/Gauss)
       state          XX          YY          ZZ     R(length)
         1        -5.1143    -18.0722     27.1061      1.3065
         2        -6.7986      1.3023      1.1386     -1.4526
         3        -3.4243     10.8237     -1.3747      2.0082
         4        -8.4923      0.6364      3.7972     -1.3529
         5       -22.9377      5.2786     -0.3509     -6.0034
         6         2.0254     -3.2106     -0.0562     -0.4138
         7        21.1221     14.1091     -0.8614     11.4566
         8        10.7029      3.7005     -4.0654      3.4460
         9         5.3649     -7.9268      6.8285      1.4222
        10       -45.3067     13.5256      6.1024     -8.5596
        11       -15.2413     -2.4865      1.0918     -5.5453
        12        -1.1859     -0.8181     -3.1396     -1.7145
        13        30.1809      1.2817     -4.9220      8.8469
        14        -8.9524      4.2078      0.3774     -1.4557
        15        -0.2962      2.5931      3.0055      1.7674
  1/2[<0|del|b>*<b|r|0> + (<0|r|b>*<b|del|0>)*] (Au)
       state          X           Y           Z        Dip. S.   Osc.(frdel)
         1        -0.2844     -0.0617     -0.0003      0.3463      0.2309
         2        -0.0003      0.0000     -0.0067      0.0070      0.0047
         3        -0.0005      0.0000     -0.0020      0.0025      0.0017
         4        -0.0003     -0.0002     -0.0213      0.0219      0.0146
         5        -0.0001     -0.0011      0.0003      0.0010      0.0006
         6         0.0000      0.0000      0.0000      0.0001      0.0000
         7        -0.0341     -0.1657     -0.0003      0.2001      0.1334
         8        -0.0002     -0.0001      0.0120     -0.0118     -0.0079
         9        -0.0524     -0.0352     -0.0005      0.0881      0.0587
        10        -0.0048     -0.0017      0.0018      0.0046      0.0031
        11        -0.0037     -0.0002     -0.0021      0.0060      0.0040
        12        -0.0672     -0.0001     -0.0004      0.0676      0.0451
        13        -0.0804     -0.0086     -0.0011      0.0901      0.0601
        14        -0.0008     -0.0001     -0.0015      0.0023      0.0016
        15        -0.0001     -0.0001     -0.0007      0.0009      0.0006

 Excitation energies and oscillator strengths:
 
 Excited State   1:      Singlet-A      5.0498 eV  245.52 nm  f=0.3748  <S**2>=0.000
      13 -> 14         0.69920
 This state for optimization and/or second-order correction.
 Total Energy, E(CIS) =   2.77954664133    
 Copying the excited state density for this state as the 1-particle RhoCI density.
 
 Excited State   2:      Singlet-A      6.1222 eV  202.51 nm  f=0.0019  <S**2>=0.000
      13 -> 15         0.66148
      13 -> 17         0.16637
 
 Excited State   3:      Singlet-A      6.5381 eV  189.63 nm  f=0.0008  <S**2>=0.000
      12 -> 14         0.68170
      13 -> 16        -0.14184
 
 Excited State   4:      Singlet-A      6.6518 eV  186.39 nm  f=0.0034  <S**2>=0.000
      12 -> 14         0.15165
      13 -> 15         0.10590
      13 -> 16         0.64777
 
 Excited State   5:      Singlet-A      7.4814 eV  165.72 nm  f=0.0052  <S**2>=0.000
      10 -> 14         0.67979
      11 -> 14         0.16191
 
 Excited State   6:      Singlet-A      7.9438 eV  156.08 nm  f=0.0000  <S**2>=0.000
      11 -> 16        -0.10011
      13 -> 15        -0.11273
      13 -> 16         0.11414
      13 -> 17         0.64340
      13 -> 18        -0.14010
      13 -> 21        -0.12424
 
 Excited State   7:      Singlet-A      8.2015 eV  151.17 nm  f=0.1309  <S**2>=0.000
      10 -> 14        -0.16252
      11 -> 14         0.68028
 
 Excited State   8:      Singlet-A      9.1741 eV  135.15 nm  f=0.0083  <S**2>=0.000
       7 -> 15         0.13720
      11 -> 15        -0.41017
      13 -> 18         0.53270
 
 Excited State   9:      Singlet-A      9.4021 eV  131.87 nm  f=0.0887  <S**2>=0.000
       8 -> 16        -0.10407
       9 -> 15         0.14949
      10 -> 16        -0.20420
      10 -> 18        -0.13519
      12 -> 15         0.48407
      12 -> 16        -0.18198
      12 -> 17         0.29523
 
 Excited State  10:      Singlet-A      9.4867 eV  130.69 nm  f=0.0095  <S**2>=0.000
       7 -> 16         0.11140
      11 -> 16         0.36305
      13 -> 19         0.56646
 
 Excited State  11:      Singlet-A      9.8026 eV  126.48 nm  f=0.0078  <S**2>=0.000
       7 -> 15        -0.10475
      11 -> 15         0.50912
      11 -> 16         0.12499
      13 -> 15        -0.17112
      13 -> 17         0.13027
      13 -> 18         0.33876
      13 -> 19        -0.15958
 
 Excited State  12:      Singlet-A      9.9496 eV  124.61 nm  f=0.1335  <S**2>=0.000
       9 -> 15        -0.10136
      10 -> 15         0.49574
      10 -> 16         0.15581
      10 -> 18         0.17244
      12 -> 15         0.33416
      12 -> 17        -0.12215
      12 -> 18         0.11700
 
 Excited State  13:      Singlet-A     10.0507 eV  123.36 nm  f=0.1556  <S**2>=0.000
      10 -> 16        -0.26037
      10 -> 19        -0.10191
      12 -> 16         0.57601
      12 -> 17         0.10072
      12 -> 19         0.14611
      13 -> 19         0.11370
 
 Excited State  14:      Singlet-A     10.2487 eV  120.98 nm  f=0.0011  <S**2>=0.000
       9 -> 14         0.63955
      11 -> 16        -0.17257
      13 -> 18         0.10707
 
 Excited State  15:      Singlet-A     10.3704 eV  119.56 nm  f=0.0007  <S**2>=0.000
       8 -> 15         0.11625
       8 -> 16        -0.11821
       9 -> 14        -0.12761
       9 -> 15        -0.26772
      10 -> 15         0.27298
      10 -> 16        -0.14766
      10 -> 19        -0.15167
      11 -> 16        -0.14760
      12 -> 15        -0.21240
      12 -> 16        -0.20773
      12 -> 17         0.27382
      12 -> 19         0.10239
 SavETr:  write IOETrn=   770 NScale= 10 NData=  16 NLR=1 NState=   15 LETran=     280.
 The selected state is a singlet
 CISAX will form     1 AO SS matrices at one time.
 NMat=     1 NSing=     1 JSym2X= 0.
 Leave Link  914 at Tue Dec 15 17:07:35 2015, MaxMem=    33554432 cpu:         0.1
 (Enter /home/Applications/g09/g09/l1002.exe)
 Minotr:  Closed shell wavefunction.
          Computing CIS/TD-HF/TD-KS derivatives.
          Using Z-Vector for PSCF gradient.
          Skipping F1 and S1 gradient terms here.
          IDoAtm=111111111
          Direct CPHF calculation.
          Differentiating once with respect to electric field.
                with respect to dipole field.
          Differentiating once with respect to nuclear coordinates.
          Electric field/nuclear overlap derivatives assumed to be zero.
          Requested convergence is 1.0D-10 RMS, and 1.0D-09 maximum.
          NewPWx=T KeepS1=F KeepF1=F KeepIn=T MapXYZ=F SortEE=F KeepMc=T.
          MDV=      33495423 using IRadAn=       0.
 Keep J ints in memory in canonical form, NReq=871704.
 FoFCou: FMM=F IPFlag=           0 FMFlag=           0 FMFlg1=           0
         NFxFlg=           0 DoJE=F BraDBF=F KetDBF=F FulRan=T
         wScrn=  0.000000 ICntrl=     600 IOpCl=  2 I1Cent=           0 NGrid=           0
         NMat0=    1 NMatS0=     54 NMatT0=    0 NMatD0=    1 NMtDS0=    0 NMtDT0=    0
 Symmetry not used in FoFCou.
          Solving linear equations separately, MaxMat=       0.
          There are     1 degrees of freedom in the 1st order CPHF.  IDoFFX=0 NUNeed=     1.
 LinEq1:  Iter=  0 NonCon=     1 RMS=8.37D-03 Max=5.55D-02 NDo=     1
 AX will form     1 AO Fock derivatives at one time.
 LinEq1:  Iter=  1 NonCon=     1 RMS=8.69D-04 Max=2.78D-03 NDo=     1
 LinEq1:  Iter=  2 NonCon=     1 RMS=1.56D-04 Max=1.37D-03 NDo=     1
 LinEq1:  Iter=  3 NonCon=     1 RMS=1.74D-05 Max=6.20D-05 NDo=     1
 LinEq1:  Iter=  4 NonCon=     1 RMS=2.39D-06 Max=9.79D-06 NDo=     1
 LinEq1:  Iter=  5 NonCon=     1 RMS=2.74D-07 Max=1.40D-06 NDo=     1
 LinEq1:  Iter=  6 NonCon=     1 RMS=3.93D-08 Max=1.88D-07 NDo=     1
 LinEq1:  Iter=  7 NonCon=     1 RMS=4.39D-09 Max=1.51D-08 NDo=     1
 LinEq1:  Iter=  8 NonCon=     1 RMS=4.17D-10 Max=1.58D-09 NDo=     1
 LinEq1:  Iter=  9 NonCon=     0 RMS=4.99D-11 Max=2.63D-10 NDo=     1
 Linear equations converged to 1.000D-10 1.000D-09 after     9 iterations.
 End of Minotr F.D. properties file   721 does not exist.
 End of Minotr F.D. properties file   722 does not exist.
 End of Minotr F.D. properties file   788 does not exist.
 Leave Link 1002 at Tue Dec 15 17:07:35 2015, MaxMem=    33554432 cpu:         0.0
 (Enter /home/Applications/g09/g09/l601.exe)
 Copying SCF densities to generalized density rwf, IOpCl= 0 IROHF=0.

 **********************************************************************

            Population analysis using the SCF density.

 **********************************************************************

 Orbital symmetries:
       Occupied  (A) (A) (A) (A) (A) (A) (A) (A) (A) (A) (A) (A)
                 (A)
       Virtual   (A) (A) (A) (A) (A) (A) (A) (A) (A) (A) (A)
 The electronic state is 1-A.
 Alpha  occ. eigenvalues --   -1.84097  -1.09678  -0.85690  -0.79596  -0.73416
 Alpha  occ. eigenvalues --   -0.66841  -0.62236  -0.55580  -0.54155  -0.46181
 Alpha  occ. eigenvalues --   -0.44425  -0.43289  -0.30360
 Alpha virt. eigenvalues --    0.07807   0.15366   0.17628   0.25238   0.27779
 Alpha virt. eigenvalues --    0.29017   0.35327   0.39078   0.49488   0.56975
 Alpha virt. eigenvalues --    0.61176
     Molecular Orbital Coefficients:
                           1         2         3         4         5
                           O         O         O         O         O
     Eigenvalues --    -1.84097  -1.09678  -0.85690  -0.79596  -0.73416
   1 1   C  1S          0.06475   0.46567  -0.22254  -0.23768   0.20801
   2        1PX        -0.07308  -0.20897  -0.16742  -0.22725   0.00176
   3        1PY        -0.07073  -0.07566   0.19596   0.08173   0.41839
   4        1PZ         0.00133   0.01421  -0.00568  -0.01428   0.01521
   5 2   C  1S          0.20306   0.25721  -0.46805   0.07029  -0.38569
   6        1PX        -0.24630  -0.06908  -0.03201  -0.34237   0.04323
   7        1PY        -0.04187   0.32404   0.06948  -0.39230   0.18796
   8        1PZ        -0.00934  -0.01024   0.02836  -0.00808   0.03039
   9 3   O  1S          0.84930  -0.25019  -0.04014   0.06593   0.26651
  10        1PX         0.00472   0.05953  -0.20329   0.23588  -0.07300
  11        1PY         0.04694   0.14242   0.08530  -0.09921  -0.12619
  12        1PZ         0.00106   0.00123   0.00146   0.00103  -0.00156
  13 4   C  1S          0.24161   0.22253   0.51789  -0.18388  -0.32631
  14        1PX         0.18549   0.25123  -0.10173   0.01704   0.07737
  15        1PY        -0.21758   0.24377  -0.03993   0.55753   0.03946
  16        1PZ        -0.00497  -0.00168  -0.00833   0.00684   0.00512
  17 5   C  1S          0.06155   0.44775   0.24765   0.25447   0.17770
  18        1PX         0.01467   0.13185  -0.23630  -0.17515   0.27815
  19        1PY        -0.10018  -0.18744  -0.06279   0.09569   0.29781
  20        1PZ        -0.00117  -0.00482  -0.00374  -0.00484  -0.00066
  21 6   H  1S          0.00338   0.14631   0.14825   0.20514   0.18662
  22 7   H  1S          0.04882   0.01908   0.30782  -0.09488  -0.21481
  23 8   H  1S          0.03980   0.03305  -0.26698   0.02075  -0.24657
  24 9   H  1S          0.00392   0.15214  -0.13681  -0.19470   0.22099
                           6         7         8         9        10
                           O         O         O         O         O
     Eigenvalues --    -0.66841  -0.62236  -0.55580  -0.54155  -0.46181
   1 1   C  1S         -0.18046   0.00201   0.08875  -0.13120  -0.08869
   2        1PX        -0.23116   0.02907   0.08305   0.11761  -0.17466
   3        1PY        -0.04958   0.00329  -0.21544  -0.25504  -0.42242
   4        1PZ         0.01036   0.36882  -0.00664   0.01032  -0.02840
   5 2   C  1S         -0.16598   0.03488  -0.03527  -0.17584   0.13116
   6        1PX        -0.38125  -0.01331  -0.32786   0.51537   0.00140
   7        1PY         0.11941  -0.00975   0.45567   0.24281   0.33024
   8        1PZ         0.04046   0.52897  -0.03274   0.01856  -0.08396
   9 3   O  1S         -0.18231   0.00497   0.15005   0.23275  -0.01704
  10        1PX         0.03471   0.00695   0.08423  -0.10169  -0.02703
  11        1PY         0.15917  -0.01004  -0.09438  -0.05388   0.02794
  12        1PZ         0.01750   0.20341  -0.01006  -0.00697   0.00668
  13 4   C  1S         -0.10585   0.01429  -0.14302  -0.04314  -0.11807
  14        1PX         0.46991  -0.03662  -0.45245   0.34941  -0.07011
  15        1PY        -0.18541   0.01557   0.33720   0.37110  -0.26587
  16        1PZ         0.03117   0.62853  -0.00511   0.00911   0.10188
  17 5   C  1S         -0.17453   0.00312  -0.18299   0.01405   0.07945
  18        1PX         0.14215  -0.01365  -0.05533  -0.33965  -0.09516
  19        1PY        -0.19723  -0.00249  -0.15933  -0.18407   0.52579
  20        1PZ         0.01793   0.37583  -0.00174   0.01779   0.02400
  21 6   H  1S         -0.24129   0.00128  -0.19384  -0.02997   0.39795
  22 7   H  1S         -0.31992   0.02976   0.17860  -0.23495  -0.03716
  23 8   H  1S         -0.29825   0.00954  -0.33473   0.03667  -0.04421
  24 9   H  1S         -0.23616   0.03153   0.01900  -0.10752  -0.30529
                          11        12        13        14        15
                           O         O         O         V         V
     Eigenvalues --    -0.44425  -0.43289  -0.30360   0.07807   0.15366
   1 1   C  1S         -0.01861  -0.01505  -0.02600  -0.02946  -0.07907
   2        1PX        -0.00046   0.58405  -0.02233  -0.01815   0.16612
   3        1PY        -0.06909   0.04250   0.00924   0.00535  -0.06791
   4        1PZ         0.27613  -0.00742   0.54555   0.69729   0.01493
   5 2   C  1S          0.05265   0.06275  -0.01354  -0.00371  -0.00653
   6        1PX        -0.02469  -0.33677   0.00278   0.00279   0.06304
   7        1PY         0.04388   0.02615  -0.00595   0.00301  -0.02851
   8        1PZ         0.67604  -0.05322  -0.41170  -0.22811  -0.00420
   9 3   O  1S         -0.00639  -0.11724  -0.00239  -0.00052   0.01019
  10        1PX         0.00453   0.06550   0.00038   0.00038   0.05965
  11        1PY         0.00721   0.12432   0.00231  -0.00006   0.05173
  12        1PZ        -0.01683  -0.00037  -0.14605  -0.00306  -0.00038
  13 4   C  1S         -0.02023   0.11527   0.00138  -0.00249  -0.05428
  14        1PX        -0.01310   0.25566  -0.00172  -0.00735   0.44841
  15        1PY        -0.02270  -0.03508  -0.00043  -0.00913   0.23249
  16        1PZ        -0.65610   0.00064  -0.30895   0.17569   0.00665
  17 5   C  1S         -0.00065  -0.06211   0.00779  -0.00475  -0.12087
  18        1PX        -0.03145  -0.44276   0.01928  -0.01857   0.31833
  19        1PY         0.07580   0.19021   0.00405  -0.01129   0.28675
  20        1PZ        -0.11765   0.01162   0.64349  -0.65461  -0.02092
  21 6   H  1S          0.05585   0.18728  -0.00675   0.00065  -0.08070
  22 7   H  1S         -0.00519  -0.09544   0.00174  -0.01399   0.68246
  23 8   H  1S         -0.00986  -0.14664   0.00236   0.00111  -0.09777
  24 9   H  1S         -0.02266   0.34737  -0.00375   0.01627  -0.10763
                          16        17        18        19        20
                           V         V         V         V         V
     Eigenvalues --     0.17628   0.25238   0.27779   0.29017   0.35327
   1 1   C  1S         -0.11934  -0.10087   0.04098   0.12746   0.37146
   2        1PX        -0.04726   0.55662  -0.01488   0.10891   0.23902
   3        1PY         0.41583  -0.02450   0.11527   0.49835  -0.17353
   4        1PZ        -0.00643   0.01440   0.00196   0.00912   0.02402
   5 2   C  1S         -0.04466  -0.05373   0.22600   0.44129  -0.26377
   6        1PX        -0.21068  -0.09637   0.11790   0.19325  -0.15615
   7        1PY         0.47067   0.04432  -0.00587   0.08789  -0.14942
   8        1PZ         0.00506  -0.00215  -0.00356  -0.00874   0.00152
   9 3   O  1S          0.01160   0.00554   0.02077   0.00199  -0.03036
  10        1PX         0.00320  -0.01507  -0.00876   0.04790  -0.05643
  11        1PY         0.08038   0.01907   0.04599  -0.02802  -0.14046
  12        1PZ         0.00145   0.00289   0.00245   0.00043   0.00687
  13 4   C  1S         -0.01255   0.21839   0.44742  -0.19472  -0.18853
  14        1PX         0.04216  -0.13224  -0.08757   0.03170   0.02547
  15        1PY         0.06432   0.09939   0.21802  -0.13608  -0.18298
  16        1PZ        -0.00058   0.00067   0.00379  -0.00310  -0.00349
  17 5   C  1S         -0.11347   0.09889  -0.00529   0.00769   0.47052
  18        1PX        -0.12570   0.48759   0.05074  -0.23518  -0.20659
  19        1PY         0.13353  -0.16617   0.50971  -0.19283   0.08730
  20        1PZ        -0.00002  -0.01232  -0.00781   0.00403  -0.00613
  21 6   H  1S         -0.14430   0.26748  -0.48788   0.07437  -0.42124
  22 7   H  1S          0.06050  -0.22920  -0.31901   0.11845   0.08244
  23 8   H  1S          0.66447   0.10957  -0.21542  -0.33018   0.12569
  24 9   H  1S         -0.13209  -0.42189  -0.11435  -0.44934  -0.30426
                          21        22        23        24
                           V         V         V         V
     Eigenvalues --     0.39078   0.49488   0.56975   0.61176
   1 1   C  1S          0.60957  -0.00738   0.06161  -0.00577
   2        1PX        -0.11756  -0.00552   0.03293  -0.00736
   3        1PY        -0.01136   0.00000  -0.00371   0.00785
   4        1PZ         0.02852   0.01146   0.00289  -0.00067
   5 2   C  1S         -0.24086   0.00151  -0.16198  -0.17387
   6        1PX        -0.06098   0.00461   0.16194   0.13615
   7        1PY        -0.18711   0.00671  -0.06418   0.11387
   8        1PZ         0.00236  -0.16287   0.00123   0.00598
   9 3   O  1S         -0.00098   0.00050   0.11500  -0.01513
  10        1PX        -0.02757  -0.02271   0.36436   0.85266
  11        1PY         0.00245  -0.03321   0.85268  -0.36144
  12        1PZ         0.00306   0.96686   0.03916   0.00767
  13 4   C  1S          0.16811  -0.00012  -0.15560   0.21290
  14        1PX         0.05380   0.00400  -0.17761   0.04772
  15        1PY         0.14321   0.00812   0.01039  -0.18000
  16        1PZ         0.00104  -0.19080  -0.00347  -0.00541
  17 5   C  1S         -0.54795  -0.00426   0.06821   0.00068
  18        1PX        -0.12845   0.00287  -0.03024  -0.00719
  19        1PY         0.06229  -0.00183   0.01261  -0.00388
  20        1PZ         0.00366   0.01369   0.00106   0.00029
  21 6   H  1S          0.25560   0.00292  -0.03395   0.00435
  22 7   H  1S         -0.04136   0.00073  -0.00724  -0.00177
  23 8   H  1S          0.06666  -0.00097  -0.00785   0.00281
  24 9   H  1S         -0.26897   0.00523  -0.03279  -0.00212
     Density Matrix:
                           1         2         3         4         5
   1 1   C  1S          0.87419
   2        1PX         0.06120   1.15162
   3        1PY         0.09070   0.06486   1.05979
   4        1PZ        -0.01048  -0.00307   0.00010   1.02339
   5 2   C  1S          0.35381   0.04582  -0.55376   0.02448   1.13038
   6        1PX         0.05352   0.07964  -0.09728   0.00043  -0.26414
   7        1PY         0.44347   0.01883  -0.53778   0.01808  -0.17865
   8        1PZ        -0.01730  -0.00418   0.00758   0.32207   0.01270
   9 3   O  1S          0.01267  -0.00180  -0.02423   0.00110   0.00612
  10        1PX         0.03581  -0.00461  -0.07191   0.00117   0.33269
  11        1PY         0.02622  -0.01747  -0.07826   0.00130   0.09157
  12        1PZ         0.00108   0.00256   0.00055  -0.01869   0.01647
  13 4   C  1S          0.00204  -0.02760   0.03861   0.00110  -0.00361
  14        1PX        -0.00906   0.00535   0.01603  -0.00232   0.00536
  15        1PY         0.04656  -0.02811   0.01107   0.00551  -0.04584
  16        1PZ         0.01075   0.00412   0.00063  -0.24070  -0.00133
  17 5   C  1S          0.28195  -0.44096   0.22774   0.01416   0.00109
  18        1PX         0.48716  -0.53791   0.31985   0.02218   0.04665
  19        1PY        -0.09201   0.13111   0.02641   0.00743   0.01633
  20        1PZ        -0.04458  -0.00034  -0.00069   0.91361  -0.00755
  21 6   H  1S          0.03344  -0.05148   0.01980  -0.00171   0.06110
  22 7   H  1S          0.06132  -0.05035   0.01443   0.00401   0.04984
  23 8   H  1S          0.09346  -0.00501  -0.13675   0.00386   0.55549
  24 9   H  1S          0.54926   0.67240   0.43669   0.02964   0.08839
                           6         7         8         9        10
   6        1PX         1.63644
   7        1PY         0.09808   1.38691
   8        1PZ         0.00797   0.00037   1.84251
   9 3   O  1S         -0.04372  -0.00217   0.00010   1.96984
  10        1PX        -0.39648  -0.18108  -0.01684  -0.06240   0.25918
  11        1PY        -0.18999   0.08221  -0.00866  -0.22047  -0.02485
  12        1PZ        -0.02068  -0.00817   0.31335  -0.00949   0.00337
  13 4   C  1S         -0.03254  -0.03304  -0.00316   0.01229  -0.22206
  14        1PX         0.00318  -0.01492   0.00018   0.03880  -0.00824
  15        1PY         0.02407   0.01156   0.00139  -0.03452   0.27871
  16        1PZ         0.00176   0.00310   0.01812   0.00052   0.00221
  17 5   C  1S          0.04267   0.03398  -0.00192   0.01601  -0.01088
  18        1PX         0.01144   0.02322  -0.00386  -0.01622   0.00498
  19        1PY        -0.02567  -0.00275  -0.00569  -0.02511  -0.00202
  20        1PZ         0.00217   0.00248  -0.29441  -0.00042   0.00096
  21 6   H  1S         -0.00338   0.05310   0.00111   0.00486  -0.01306
  22 7   H  1S         -0.05169  -0.01357  -0.00223   0.00653  -0.09028
  23 8   H  1S          0.54099  -0.52440  -0.01490   0.00528   0.05732
  24 9   H  1S         -0.03954   0.03777   0.00138   0.00496   0.02057
                          11        12        13        14        15
  11        1PY         0.21814
  12        1PZ         0.00439   0.12700
  13 4   C  1S          0.31269   0.00742   1.15550
  14        1PX         0.30624   0.00611   0.11409   1.46711
  15        1PY        -0.26527  -0.01370  -0.30195  -0.12625   1.55847
  16        1PZ        -0.01278   0.37041  -0.00380  -0.00142  -0.00279
  17 5   C  1S          0.04665  -0.00057   0.33111   0.20183   0.38348
  18        1PX        -0.06002  -0.00181  -0.35971  -0.10814  -0.35605
  19        1PY        -0.10270  -0.00058  -0.40665  -0.21733  -0.37995
  20        1PZ         0.00108  -0.03042   0.00508   0.00442   0.00130
  21 6   H  1S          0.01203   0.00231   0.07915   0.04659   0.01077
  22 7   H  1S         -0.00113   0.00135   0.55074  -0.74351  -0.06695
  23 8   H  1S         -0.04925  -0.00098   0.04374   0.02723  -0.02961
  24 9   H  1S          0.00438   0.00209   0.06311   0.03774   0.04430
                          16        17        18        19        20
  16        1PZ         1.86521
  17 5   C  1S          0.00639   0.87263
  18        1PX        -0.00071   0.01377   1.05350
  19        1PY        -0.00471   0.12512  -0.07699   1.12707
  20        1PZ         0.23558   0.00076   0.00209   0.00329   1.14115
  21 6   H  1S          0.00194   0.56972  -0.27161   0.74238  -0.01122
  22 7   H  1S          0.00024   0.09680  -0.08523  -0.12222  -0.00003
  23 8   H  1S          0.00147   0.06413   0.05768  -0.02271   0.00048
  24 9   H  1S         -0.00561   0.02938   0.05074  -0.01210   0.00640
                          21        22        23        24
  21 6   H  1S          0.82721
  22 7   H  1S          0.01146   0.70699
  23 8   H  1S          0.02754   0.02877   0.72236
  24 9   H  1S          0.00436   0.03086   0.01278   0.82341
    Full Mulliken population analysis:
                           1         2         3         4         5
   1 1   C  1S          0.87419
   2        1PX         0.00000   1.15162
   3        1PY         0.00000   0.00000   1.05979
   4        1PZ         0.00000   0.00000   0.00000   1.02339
   5 2   C  1S          0.00000   0.00000   0.00000   0.00000   1.13038
   6        1PX         0.00000   0.00000   0.00000   0.00000   0.00000
   7        1PY         0.00000   0.00000   0.00000   0.00000   0.00000
   8        1PZ         0.00000   0.00000   0.00000   0.00000   0.00000
   9 3   O  1S          0.00000   0.00000   0.00000   0.00000   0.00000
  10        1PX         0.00000   0.00000   0.00000   0.00000   0.00000
  11        1PY         0.00000   0.00000   0.00000   0.00000   0.00000
  12        1PZ         0.00000   0.00000   0.00000   0.00000   0.00000
  13 4   C  1S          0.00000   0.00000   0.00000   0.00000   0.00000
  14        1PX         0.00000   0.00000   0.00000   0.00000   0.00000
  15        1PY         0.00000   0.00000   0.00000   0.00000   0.00000
  16        1PZ         0.00000   0.00000   0.00000   0.00000   0.00000
  17 5   C  1S          0.00000   0.00000   0.00000   0.00000   0.00000
  18        1PX         0.00000   0.00000   0.00000   0.00000   0.00000
  19        1PY         0.00000   0.00000   0.00000   0.00000   0.00000
  20        1PZ         0.00000   0.00000   0.00000   0.00000   0.00000
  21 6   H  1S          0.00000   0.00000   0.00000   0.00000   0.00000
  22 7   H  1S          0.00000   0.00000   0.00000   0.00000   0.00000
  23 8   H  1S          0.00000   0.00000   0.00000   0.00000   0.00000
  24 9   H  1S          0.00000   0.00000   0.00000   0.00000   0.00000
                           6         7         8         9        10
   6        1PX         1.63644
   7        1PY         0.00000   1.38691
   8        1PZ         0.00000   0.00000   1.84251
   9 3   O  1S          0.00000   0.00000   0.00000   1.96984
  10        1PX         0.00000   0.00000   0.00000   0.00000   0.25918
  11        1PY         0.00000   0.00000   0.00000   0.00000   0.00000
  12        1PZ         0.00000   0.00000   0.00000   0.00000   0.00000
  13 4   C  1S          0.00000   0.00000   0.00000   0.00000   0.00000
  14        1PX         0.00000   0.00000   0.00000   0.00000   0.00000
  15        1PY         0.00000   0.00000   0.00000   0.00000   0.00000
  16        1PZ         0.00000   0.00000   0.00000   0.00000   0.00000
  17 5   C  1S          0.00000   0.00000   0.00000   0.00000   0.00000
  18        1PX         0.00000   0.00000   0.00000   0.00000   0.00000
  19        1PY         0.00000   0.00000   0.00000   0.00000   0.00000
  20        1PZ         0.00000   0.00000   0.00000   0.00000   0.00000
  21 6   H  1S          0.00000   0.00000   0.00000   0.00000   0.00000
  22 7   H  1S          0.00000   0.00000   0.00000   0.00000   0.00000
  23 8   H  1S          0.00000   0.00000   0.00000   0.00000   0.00000
  24 9   H  1S          0.00000   0.00000   0.00000   0.00000   0.00000
                          11        12        13        14        15
  11        1PY         0.21814
  12        1PZ         0.00000   0.12700
  13 4   C  1S          0.00000   0.00000   1.15550
  14        1PX         0.00000   0.00000   0.00000   1.46711
  15        1PY         0.00000   0.00000   0.00000   0.00000   1.55847
  16        1PZ         0.00000   0.00000   0.00000   0.00000   0.00000
  17 5   C  1S          0.00000   0.00000   0.00000   0.00000   0.00000
  18        1PX         0.00000   0.00000   0.00000   0.00000   0.00000
  19        1PY         0.00000   0.00000   0.00000   0.00000   0.00000
  20        1PZ         0.00000   0.00000   0.00000   0.00000   0.00000
  21 6   H  1S          0.00000   0.00000   0.00000   0.00000   0.00000
  22 7   H  1S          0.00000   0.00000   0.00000   0.00000   0.00000
  23 8   H  1S          0.00000   0.00000   0.00000   0.00000   0.00000
  24 9   H  1S          0.00000   0.00000   0.00000   0.00000   0.00000
                          16        17        18        19        20
  16        1PZ         1.86521
  17 5   C  1S          0.00000   0.87263
  18        1PX         0.00000   0.00000   1.05350
  19        1PY         0.00000   0.00000   0.00000   1.12707
  20        1PZ         0.00000   0.00000   0.00000   0.00000   1.14115
  21 6   H  1S          0.00000   0.00000   0.00000   0.00000   0.00000
  22 7   H  1S          0.00000   0.00000   0.00000   0.00000   0.00000
  23 8   H  1S          0.00000   0.00000   0.00000   0.00000   0.00000
  24 9   H  1S          0.00000   0.00000   0.00000   0.00000   0.00000
                          21        22        23        24
  21 6   H  1S          0.82721
  22 7   H  1S          0.00000   0.70699
  23 8   H  1S          0.00000   0.00000   0.72236
  24 9   H  1S          0.00000   0.00000   0.00000   0.82341
     Gross orbital populations:
                           1
   1 1   C  1S          0.87419
   2        1PX         1.15162
   3        1PY         1.05979
   4        1PZ         1.02339
   5 2   C  1S          1.13038
   6        1PX         1.63644
   7        1PY         1.38691
   8        1PZ         1.84251
   9 3   O  1S          1.96984
  10        1PX         0.25918
  11        1PY         0.21814
  12        1PZ         0.12700
  13 4   C  1S          1.15550
  14        1PX         1.46711
  15        1PY         1.55847
  16        1PZ         1.86521
  17 5   C  1S          0.87263
  18        1PX         1.05350
  19        1PY         1.12707
  20        1PZ         1.14115
  21 6   H  1S          0.82721
  22 7   H  1S          0.70699
  23 8   H  1S          0.72236
  24 9   H  1S          0.82341
          Condensed to atoms (all electrons):
               1          2          3          4          5          6
     1  C    4.108998   0.000000   0.000000   0.000000   0.000000   0.000000
     2  C    0.000000   5.996243   0.000000   0.000000   0.000000   0.000000
     3  O    0.000000   0.000000   2.574151   0.000000   0.000000   0.000000
     4  C    0.000000   0.000000   0.000000   6.046292   0.000000   0.000000
     5  C    0.000000   0.000000   0.000000   0.000000   4.194348   0.000000
     6  H    0.000000   0.000000   0.000000   0.000000   0.000000   0.827205
     7  H    0.000000   0.000000   0.000000   0.000000   0.000000   0.000000
     8  H    0.000000   0.000000   0.000000   0.000000   0.000000   0.000000
     9  H    0.000000   0.000000   0.000000   0.000000   0.000000   0.000000
               7          8          9
     1  C    0.000000   0.000000   0.000000
     2  C    0.000000   0.000000   0.000000
     3  O    0.000000   0.000000   0.000000
     4  C    0.000000   0.000000   0.000000
     5  C    0.000000   0.000000   0.000000
     6  H    0.000000   0.000000   0.000000
     7  H    0.706992   0.000000   0.000000
     8  H    0.000000   0.722357   0.000000
     9  H    0.000000   0.000000   0.823413
 Mulliken charges:
               1
     1  C   -0.108998
     2  C   -1.996243
     3  O    3.425849
     4  C   -2.046292
     5  C   -0.194348
     6  H    0.172795
     7  H    0.293008
     8  H    0.277643
     9  H    0.176587
 Sum of Mulliken charges =   0.00000
 Mulliken charges with hydrogens summed into heavy atoms:
               1
     1  C    0.067589
     2  C   -1.718600
     3  O    3.425849
     4  C   -1.753284
     5  C   -0.021553
 Charge=              0.0000 electrons
 Dipole moment (field-independent basis, Debye):
    X=             -3.9033    Y=            -10.5378    Z=             -0.5662  Tot=             11.2518
 N-N= 1.032631160033D+02 E-N=-1.683528778691D+02  KE=-1.427454962608D+01
 Orbital energies and kinetic energies (alpha):
                                 1                 2
   1         O                -1.840972         -1.242736
   2         O                -1.096783         -0.954885
   3         O                -0.856898         -0.768282
   4         O                -0.795961         -0.540767
   5         O                -0.734159         -0.609832
   6         O                -0.668408         -0.552056
   7         O                -0.622361         -0.481085
   8         O                -0.555799         -0.359056
   9         O                -0.541549         -0.303899
  10         O                -0.461806         -0.409464
  11         O                -0.444246         -0.312284
  12         O                -0.432891         -0.333358
  13         O                -0.303603         -0.269571
  14         V                 0.078067         -0.182808
  15         V                 0.153656         -0.176361
  16         V                 0.176275         -0.169524
  17         V                 0.252376         -0.125279
  18         V                 0.277794         -0.124372
  19         V                 0.290169         -0.107676
  20         V                 0.353269         -0.072021
  21         V                 0.390784         -0.054133
  22         V                 0.494877          0.692153
  23         V                 0.569750          0.711222
  24         V                 0.611761          0.767936
 Total kinetic energy from orbitals=-1.427454962608D+01
 Leave Link  601 at Tue Dec 15 17:07:35 2015, MaxMem=    33554432 cpu:         0.0
 (Enter /home/Applications/g09/g09/l701.exe)
 Compute integral first derivatives.
 ... and contract with generalized density number  6.
 Leave Link  701 at Tue Dec 15 17:07:35 2015, MaxMem=    33554432 cpu:         0.0
 (Enter /home/Applications/g09/g09/l702.exe)
 L702 exits ... SP integral derivatives will be done elsewhere.
 Leave Link  702 at Tue Dec 15 17:07:35 2015, MaxMem=    33554432 cpu:         0.0
 (Enter /home/Applications/g09/g09/l703.exe)
 Compute integral first derivatives, UseDBF=F ICtDFT=           0.
 Integral derivatives from FoFJK, PRISM(SPDF).
 Calling FoFJK, ICntrl=  10005127 FMM=F ISym2X=0 I1Cent= 0 IOpClX= 0 NMat=1 NMatS=1 NMatT=0.
 FoFJK:  IHMeth= 8 ICntrl=10005127 DoSepK=F KAlg= 0 I1Cent=   0 FoldK=F
 IRaf=         0 NMat=   1 IRICut=       1 DoRegI=T DoRafI=F ISym2E= 0.
 FoFCou: FMM=F IPFlag=           0 FMFlag=      100000 FMFlg1=         800
         NFxFlg=           0 DoJE=F BraDBF=F KetDBF=F FulRan=T
         wScrn=  0.000000 ICntrl=10005127 IOpCl=  0 I1Cent=           0 NGrid=           0
         NMat0=    1 NMatS0=      1 NMatT0=    0 NMatD0=    1 NMtDS0=    0 NMtDT0=    0
 Symmetry not used in FoFCou.
 Leave Link  703 at Tue Dec 15 17:07:35 2015, MaxMem=    33554432 cpu:         0.0
 (Enter /home/Applications/g09/g09/l716.exe)
 Dipole        =-1.65169211D+00-4.54006492D+00-2.02352165D-01
 ***** Axes restored to original set *****
 -------------------------------------------------------------------
 Center     Atomic                   Forces (Hartrees/Bohr)
 Number     Number              X              Y              Z
 -------------------------------------------------------------------
      1        6          -0.025597623    0.067751883    0.008606265
      2        6          -0.120986762   -0.024295099   -0.015781341
      3        8           0.117273715   -0.077233896    0.008068781
      4        6          -0.051393965    0.092807485   -0.000750113
      5        6          -0.086105957   -0.083678252   -0.007091103
      6        1           0.082565567    0.065298613    0.000403721
      7        1           0.009084910    0.041503289    0.001168116
      8        1           0.006666144   -0.030556857    0.003784634
      9        1           0.068493971   -0.051597166    0.001591040
 -------------------------------------------------------------------
 Cartesian Forces:  Max     0.120986762 RMS     0.056939865
 Z-matrix is all fixed cartesians, so copy forces.
 Force constants in Cartesian coordinates: 
                1             2             3             4             5 
      1  0.874004D+00
      2 -0.610203D-01  0.747136D+00
      3  0.118433D-02 -0.101054D-01  0.172386D+00
      4 -0.452555D+00 -0.881933D-01  0.234826D-01  0.831522D+00
      5 -0.685911D-01 -0.198645D+00  0.739090D-02  0.118101D-01  0.807373D+00
      6  0.248310D-01  0.626549D-02 -0.848686D-01 -0.728083D-02  0.302454D-02
      7 -0.781554D-02  0.280298D-01 -0.138187D-02 -0.261541D+00  0.140137D+00
      8 -0.567669D-02  0.204025D-01 -0.679018D-03  0.185345D+00 -0.335628D+00
      9  0.135966D-02 -0.293012D-02  0.752704D-02 -0.103033D-01  0.946012D-02
     10  0.743195D-02 -0.113984D-03  0.864071D-04  0.247846D-01  0.181324D-01
     11  0.320937D-01 -0.509918D-03 -0.236698D-03 -0.186524D-01 -0.136517D-01
     12  0.178393D-02 -0.341691D-03  0.104218D-02  0.124470D-02  0.107076D-02
     13 -0.157702D+00  0.685690D-02 -0.318607D-03  0.893899D-02 -0.327472D-01
     14 -0.125306D-01 -0.348239D+00 -0.121045D-01 -0.121280D-03  0.407887D-03
     15  0.545289D-04 -0.167782D-01 -0.671294D-01 -0.579335D-03  0.324886D-02
     16  0.185633D-01 -0.286090D-03 -0.373937D-03  0.102227D-04 -0.629533D-05
     17 -0.230504D-01  0.336086D-03  0.976676D-03 -0.680916D-05  0.419321D-05
     18 -0.261097D-02 -0.542915D-03  0.156506D-01  0.177709D-03 -0.109437D-03
     19  0.000000D+00 -0.115335D-05  0.308432D-04  0.352723D-05  0.000000D+00
     20  0.000000D+00  0.000000D+00 -0.734526D-05  0.297153D-05  0.000000D+00
     21  0.167202D-05 -0.133676D-03  0.357480D-02 -0.217959D-03  0.000000D+00
     22  0.679927D-02 -0.250042D-01 -0.211192D-02 -0.145869D+00 -0.873768D-01
     23 -0.320895D-02  0.115143D-01 -0.533578D-03 -0.839269D-01 -0.282348D+00
     24  0.000000D+00  0.421788D-02  0.225412D-01 -0.870530D-02 -0.201436D-01
     25 -0.288726D+00  0.139732D+00 -0.205979D-01 -0.529395D-02  0.186414D-01
     26  0.141984D+00 -0.231995D+00  0.152989D-01 -0.625745D-02  0.224871D-01
     27 -0.266050D-01  0.203486D-01 -0.707236D-01  0.218168D-02 -0.394175D-02
                6             7             8             9            10 
      6  0.163686D+00
      7 -0.664165D-02  0.580744D+00
      8  0.694169D-02  0.878872D-01  0.769874D+00
      9 -0.452880D-01  0.158356D-01  0.360059D-02  0.554114D-01
     10  0.904448D-03 -0.348130D+00 -0.271038D+00 -0.940165D-02  0.856275D+00
     11 -0.649089D-03 -0.227529D+00 -0.461334D+00 -0.981390D-02  0.994831D-01
     12 -0.486181D-03 -0.880096D-02 -0.106772D-01 -0.468442D-01  0.489947D-02
     13 -0.212566D-02 -0.673522D-02  0.503998D-02 -0.756572D-04 -0.388135D+00
     14  0.523694D-04 -0.290882D-01  0.218642D-01  0.170262D-03  0.623735D-01
     15 -0.169705D-02 -0.116379D-02  0.247054D-03  0.104276D-01  0.363923D-02
     16  0.163965D-03  0.000000D+00 -0.169478D-05  0.609482D-04 -0.432191D-02
     17 -0.109214D-03  0.000000D+00 -0.219239D-05  0.788434D-04  0.535148D-02
     18  0.285034D-02  0.125915D-04 -0.130573D-03  0.469572D-02  0.148292D-03
     19 -0.102977D-03  0.225219D-01 -0.169258D-01  0.170727D-03 -0.147915D+00
     20 -0.867538D-04  0.105063D-01 -0.789513D-02  0.561632D-04  0.858075D-01
     21  0.636331D-02  0.689178D-03 -0.617518D-03  0.386619D-02 -0.139288D-03
     22 -0.697600D-02  0.209521D-01  0.153663D-01  0.227768D-02  0.106630D-04
     23 -0.145812D-01 -0.997268D-02 -0.732161D-02 -0.138973D-02  0.434292D-05
     24 -0.616773D-01  0.124315D-02  0.102413D-02  0.463670D-02 -0.138097D-03
     25 -0.277227D-02  0.283279D-05  0.396591D-05  0.759307D-04  0.000000D+00
     26 -0.857877D-03  0.286435D-04  0.401010D-04  0.767766D-03  0.000000D+00
     27  0.211176D-01  0.207714D-03  0.290800D-03  0.556761D-02  0.119518D-05
               11            12            13            14            15 
     11  0.923642D+00
     12  0.135914D-01  0.155585D+00
     13  0.423424D-01  0.405377D-03  0.837147D+00
     14 -0.182029D+00 -0.150766D-02  0.110989D+00  0.748166D+00
     15 -0.198591D-02 -0.768331D-01 -0.106739D-01  0.956819D-02  0.162414D+00
     16 -0.187478D-01  0.787995D-03 -0.317182D+00 -0.156216D+00  0.733208D-02
     17  0.231910D-01 -0.393251D-03 -0.157520D+00 -0.251354D+00  0.337231D-02
     18 -0.557319D-04  0.177053D-01  0.937133D-02  0.465636D-02 -0.659556D-01
     19  0.909976D-01  0.315267D-03  0.575788D-02  0.249333D-01  0.544636D-04
     20 -0.289311D+00 -0.152536D-02  0.268608D-02  0.116359D-01 -0.868410D-04
     21 -0.754330D-03 -0.567564D-01  0.162731D-03 -0.229422D-04  0.184598D-01
     22  0.000000D+00 -0.311305D-03  0.261447D-04 -0.161004D-04  0.419343D-03
     23  0.000000D+00 -0.126791D-03 -0.342336D-04  0.210817D-04 -0.549084D-03
     24  0.000000D+00  0.403175D-02  0.322508D-03 -0.198606D-03  0.517282D-02
     25  0.121336D-04 -0.324481D-03  0.178845D-01 -0.323394D-03  0.917365D-03
     26  0.337624D-05 -0.902884D-04  0.223871D-01 -0.472680D-03  0.296367D-02
     27 -0.955529D-04  0.255530D-02  0.293186D-02 -0.613465D-03  0.151411D-01
               16            17            18            19            20 
     16  0.302897D+00
     17  0.175249D+00  0.227831D+00
     18 -0.762434D-02 -0.399257D-02  0.360653D-01
     19  0.000000D+00  0.000000D+00 -0.555375D-04  0.119632D+00
     20  0.000000D+00  0.000000D+00  0.132261D-04 -0.990030D-01  0.285570D+00
     21 -0.835482D-04 -0.108079D-03 -0.643692D-02 -0.412786D-03  0.163691D-02
     22  0.000000D+00  0.000000D+00  0.000000D+00  0.000000D+00  0.000000D+00
     23  0.000000D+00  0.000000D+00  0.000000D+00  0.000000D+00  0.000000D+00
     24  0.000000D+00  0.000000D+00  0.000000D+00  0.000000D+00  0.000000D+00
     25  0.334177D-04 -0.222590D-04  0.580927D-03  0.000000D+00  0.000000D+00
     26  0.929865D-05 -0.619366D-05  0.161646D-03  0.000000D+00  0.000000D+00
     27 -0.263166D-03  0.175290D-03 -0.457482D-02  0.000000D+00  0.000000D+00
               21            22            23            24            25 
     21  0.309292D-01
     22  0.000000D+00  0.118091D+00
     23  0.000000D+00  0.971261D-01  0.278010D+00
     24  0.000000D+00  0.739310D-02  0.162757D-01  0.338174D-01
     25  0.000000D+00 -0.942234D-05  0.123375D-04 -0.116229D-03  0.276109D+00
     26  0.000000D+00 -0.952731D-04  0.124750D-03 -0.117524D-02 -0.158057D+00
     27  0.000000D+00 -0.690892D-03  0.904648D-03 -0.852251D-02  0.222366D-01
               26            27 
     26  0.209819D+00
     27 -0.170686D-01  0.394393D-01
 Leave Link  716 at Tue Dec 15 17:07:35 2015, MaxMem=    33554432 cpu:         0.0
 (Enter /home/Applications/g09/g09/l103.exe)

 GradGradGradGradGradGradGradGradGradGradGradGradGradGradGradGradGradGrad
 Berny optimization.
 Search for a local minimum.
 Step number   1 out of a maximum of    2
 All quantities printed in internal units (Hartrees-Bohrs-Radians)
 Second derivative matrix not updated -- first step.
 ITU=  0
     Eigenvalues ---    0.01373   0.02709   0.07067   0.07452   0.07566
     Eigenvalues ---    0.07900   0.11930   0.12702   0.15010   0.24232
     Eigenvalues ---    0.24770   0.26440   0.32247   0.43089   0.60319
     Eigenvalues ---    0.86014   1.09148   1.27303   1.31736   1.43757
     Eigenvalues ---    1.66610
 Quadratic step=8.776D-01 exceeds max=3.000D-01 adjusted using Lamda=-3.635D-01.
 Angle between NR and scaled steps=  25.09 degrees.
 Angle between quadratic step and forces=  28.89 degrees.
 Linear search not attempted -- first point.
 TrRot= -0.005776 -0.003940 -0.000051  0.000434  0.000096  0.000434
 MatCor failed.
 Variable       Old X    -DE/DX   Delta X   Delta X   Delta X     New X
                                 (Linear)    (Quad)   (Total)
    X1        1.85389  -0.02560   0.00000  -0.03809  -0.04271   1.81119
    Y1       -1.36052   0.06775   0.00000   0.01485   0.01249  -1.34803
    Z1       -0.07272   0.00861   0.00000   0.01972   0.01949  -0.05323
    X2       -0.67156  -0.12099   0.00000  -0.08210  -0.08603  -0.75759
    Y2       -2.05829  -0.02430   0.00000  -0.06783  -0.07243  -2.13072
    Z2        0.05794  -0.01578   0.00000  -0.02446  -0.02444   0.03350
    X3       -2.22612   0.11727   0.00000   0.12353   0.11774  -2.10838
    Y3        0.06925  -0.07723   0.00000  -0.04841  -0.05417   0.01508
    Z3        0.00481   0.00807   0.00000   0.01269   0.01284   0.01765
    X4       -0.74594  -0.05139   0.00000  -0.04729  -0.05493  -0.80086
    Y4        2.03934   0.09281   0.00000   0.10715   0.10252   2.14186
    Z4        0.05563  -0.00075   0.00000  -0.00254  -0.00251   0.05311
    X5        1.89898  -0.08611   0.00000  -0.06368  -0.07068   1.82830
    Y5        1.42860  -0.08368   0.00000  -0.01621  -0.01856   1.41004
    Z5        0.03155  -0.00709   0.00000  -0.01192  -0.01215   0.01940
    X6        3.39641   0.08257   0.00000   0.08152   0.07340   3.46981
    Y6        2.63904   0.06530   0.00000   0.05733   0.05641   2.69545
    Z6       -0.00821   0.00040   0.00000   0.00215   0.00176  -0.00645
    X7       -1.62867   0.00908   0.00000   0.00719  -0.00210  -1.63077
    Y7        3.93086   0.04150   0.00000   0.11888   0.11353   4.04440
    Z7        0.06713   0.00117   0.00000   0.00254   0.00264   0.06977
    X8       -1.56593   0.00667   0.00000  -0.00826  -0.01054  -1.57647
    Y8       -3.95336  -0.03056   0.00000  -0.08477  -0.09007  -4.04344
    Z8       -0.07072   0.00378   0.00000   0.00257   0.00267  -0.06805
    X9        3.38180   0.06849   0.00000   0.07931   0.07584   3.45765
    Y9       -2.60080  -0.05160   0.00000  -0.04879  -0.04973  -2.65053
    Z9        0.07747   0.00159   0.00000   0.00009  -0.00029   0.07718
         Item               Value     Threshold  Converged?
 Maximum Force            0.120987     0.000450     NO 
 RMS     Force            0.056940     0.000300     NO 
 Maximum Displacement     0.117738     0.001800     NO 
 RMS     Displacement     0.057580     0.001200     NO 
 Predicted change in Energy=-5.521921D-02
 GradGradGradGradGradGradGradGradGradGradGradGradGradGradGradGradGradGrad

 Leave Link  103 at Tue Dec 15 17:07:35 2015, MaxMem=    33554432 cpu:         0.0
 (Enter /home/Applications/g09/g09/l9999.exe)
 1\1\GINC-DUSTIN-DESKTOP\Force\RAM1-FC\STO-3G\C4H4O1\DUSTIN\15-Dec-2015
 \0\\#P AM1(Input,print) CIS(Singlets,NStates=15) pop(full) force\\AM1-
 Reparam Input\\0,1\C,0.981038,-0.719956,-0.038484\C,-0.355373,-1.08919
 9,0.03066\O,-1.178013,0.036646,0.002547\C,-0.394732,1.079171,0.029436\
 C,1.004896,0.755981,0.016696\H,1.797302,1.396519,-0.004344\H,-0.861854
 ,2.080124,0.035523\H,-0.828656,-2.09203,-0.037421\H,1.789573,-1.376284
 ,0.040996\\Version=ES64L-G09RevD.01\State=1-A\HF=2.5939681\RMSD=8.085e
 -09\RMSF=5.694e-02\Dipole=-4.8312013,0.1098749,-0.1692469\PG=C01 [X(C4
 H4O1)]\\@


 What some people mistake for the high cost
 of living is really the cost of living high.
                              -- Doug Larson
 Job cpu time:       0 days  0 hours  0 minutes  0.7 seconds.
 File lengths (MBytes):  RWF=      7 Int=      0 D2E=      0 Chk=      2 Scr=      1
 Normal termination of Gaussian 09 at Tue Dec 15 17:07:35 2015.
