 Entering Gaussian System, Link 0=g09
 Input=FuranDFT_94.com
 Output=FuranDFT_94.log
 Initial command:
 /home/Applications/g09/g09/l1.exe "/home/Applications/g09/scratch/Gau-6461.inp" -scrdir="/home/Applications/g09/scratch/"
 Entering Link 1 = /home/Applications/g09/g09/l1.exe PID=      6463.
  
 Copyright (c) 1988,1990,1992,1993,1995,1998,2003,2009,2013,
            Gaussian, Inc.  All Rights Reserved.
  
 This is part of the Gaussian(R) 09 program.  It is based on
 the Gaussian(R) 03 system (copyright 2003, Gaussian, Inc.),
 the Gaussian(R) 98 system (copyright 1998, Gaussian, Inc.),
 the Gaussian(R) 94 system (copyright 1995, Gaussian, Inc.),
 the Gaussian 92(TM) system (copyright 1992, Gaussian, Inc.),
 the Gaussian 90(TM) system (copyright 1990, Gaussian, Inc.),
 the Gaussian 88(TM) system (copyright 1988, Gaussian, Inc.),
 the Gaussian 86(TM) system (copyright 1986, Carnegie Mellon
 University), and the Gaussian 82(TM) system (copyright 1983,
 Carnegie Mellon University). Gaussian is a federally registered
 trademark of Gaussian, Inc.
  
 This software contains proprietary and confidential information,
 including trade secrets, belonging to Gaussian, Inc.
  
 This software is provided under written license and may be
 used, copied, transmitted, or stored only in accord with that
 written license.
  
 The following legend is applicable only to US Government
 contracts under FAR:
  
                    RESTRICTED RIGHTS LEGEND
  
 Use, reproduction and disclosure by the US Government is
 subject to restrictions as set forth in subparagraphs (a)
 and (c) of the Commercial Computer Software - Restricted
 Rights clause in FAR 52.227-19.
  
 Gaussian, Inc.
 340 Quinnipiac St., Bldg. 40, Wallingford CT 06492
  
  
 ---------------------------------------------------------------
 Warning -- This program may not be used in any manner that
 competes with the business of Gaussian, Inc. or will provide
 assistance to any competitor of Gaussian, Inc.  The licensee
 of this program is prohibited from giving any competitor of
 Gaussian, Inc. access to this program.  By using this program,
 the user acknowledges that Gaussian, Inc. is engaged in the
 business of creating and licensing software in the field of
 computational chemistry and represents and warrants to the
 licensee that it is not a competitor of Gaussian, Inc. and that
 it will not use this program in any manner prohibited above.
 ---------------------------------------------------------------
  

 Cite this work as:
 Gaussian 09, Revision D.01,
 M. J. Frisch, G. W. Trucks, H. B. Schlegel, G. E. Scuseria, 
 M. A. Robb, J. R. Cheeseman, G. Scalmani, V. Barone, B. Mennucci, 
 G. A. Petersson, H. Nakatsuji, M. Caricato, X. Li, H. P. Hratchian, 
 A. F. Izmaylov, J. Bloino, G. Zheng, J. L. Sonnenberg, M. Hada, 
 M. Ehara, K. Toyota, R. Fukuda, J. Hasegawa, M. Ishida, T. Nakajima, 
 Y. Honda, O. Kitao, H. Nakai, T. Vreven, J. A. Montgomery, Jr., 
 J. E. Peralta, F. Ogliaro, M. Bearpark, J. J. Heyd, E. Brothers, 
 K. N. Kudin, V. N. Staroverov, T. Keith, R. Kobayashi, J. Normand, 
 K. Raghavachari, A. Rendell, J. C. Burant, S. S. Iyengar, J. Tomasi, 
 M. Cossi, N. Rega, J. M. Millam, M. Klene, J. E. Knox, J. B. Cross, 
 V. Bakken, C. Adamo, J. Jaramillo, R. Gomperts, R. E. Stratmann, 
 O. Yazyev, A. J. Austin, R. Cammi, C. Pomelli, J. W. Ochterski, 
 R. L. Martin, K. Morokuma, V. G. Zakrzewski, G. A. Voth, 
 P. Salvador, J. J. Dannenberg, S. Dapprich, A. D. Daniels, 
 O. Farkas, J. B. Foresman, J. V. Ortiz, J. Cioslowski, 
 and D. J. Fox, Gaussian, Inc., Wallingford CT, 2013.
 
 ******************************************
 Gaussian 09:  ES64L-G09RevD.01 24-Apr-2013
                15-Dec-2015 
 ******************************************
 -------------------------------------------------------
 #P B3LYP/3-21G CIS(Singlets,NStates=15) pop(full) force
 -------------------------------------------------------
 1/10=7,30=1,38=1/1,3;
 2/12=2,17=6,18=5,40=1/2;
 3/5=5,11=9,16=1,25=1,30=1,71=1,74=-5/1,2,8,3;
 4//1;
 5/5=2,38=5/2;
 8/6=1,10=1,108=15/1;
 9/15=2,41=15,42=1,48=1/14;
 10/5=4/2;
 6/7=3,18=1/1;
 7/12=6,13=5,29=1/1,2,3,16;
 1/10=7,30=1/3;
 99//99;
 Leave Link    1 at Tue Dec 15 16:29:44 2015, MaxMem=           0 cpu:         0.0
 (Enter /home/Applications/g09/g09/l101.exe)
 --------
 FuranDFT
 --------
 Symbolic Z-matrix:
 Charge =  0 Multiplicity = 1
 6                     0.92336  -0.74577   0.03288 
 6                    -0.3672   -1.09614   0.04301 
 8                    -1.144    -0.01137   0.0313 
 6                    -0.32381   1.12754   0.03604 
 6                     0.92186   0.70071   0.00373 
 1                     1.7953    1.37011  -0.02749 
 1                    -0.82058   2.04848  -0.01639 
 1                    -0.82538  -1.99961  -0.03455 
 1                     1.84021  -1.36175   0.0363 
 
 NAtoms=      9 NQM=        9 NQMF=       0 NMMI=      0 NMMIF=      0
                NMic=       0 NMicF=      0.
                    Isotopes and Nuclear Properties:
 (Nuclear quadrupole moments (NQMom) in fm**2, nuclear magnetic moments (NMagM)
  in nuclear magnetons)

  Atom         1           2           3           4           5           6           7           8           9
 IAtWgt=          12          12          16          12          12           1           1           1           1
 AtmWgt=  12.0000000  12.0000000  15.9949146  12.0000000  12.0000000   1.0078250   1.0078250   1.0078250   1.0078250
 NucSpn=           0           0           0           0           0           1           1           1           1
 AtZEff=   0.0000000   0.0000000   0.0000000   0.0000000   0.0000000   0.0000000   0.0000000   0.0000000   0.0000000
 NQMom=    0.0000000   0.0000000   0.0000000   0.0000000   0.0000000   0.0000000   0.0000000   0.0000000   0.0000000
 NMagM=    0.0000000   0.0000000   0.0000000   0.0000000   0.0000000   2.7928460   2.7928460   2.7928460   2.7928460
 AtZNuc=   6.0000000   6.0000000   8.0000000   6.0000000   6.0000000   1.0000000   1.0000000   1.0000000   1.0000000
 Leave Link  101 at Tue Dec 15 16:29:44 2015, MaxMem=    33554432 cpu:         0.0
 (Enter /home/Applications/g09/g09/l103.exe)

 GradGradGradGradGradGradGradGradGradGradGradGradGradGradGradGradGradGrad
 Berny optimization.
 Initialization pass.
 Trust Radius=3.00D-01 FncErr=1.00D-07 GrdErr=1.00D-07
 Number of steps in this run=      2 maximum allowed number of steps=      2.
 GradGradGradGradGradGradGradGradGradGradGradGradGradGradGradGradGradGrad

 Leave Link  103 at Tue Dec 15 16:29:44 2015, MaxMem=    33554432 cpu:         0.0
 (Enter /home/Applications/g09/g09/l202.exe)
                          Input orientation:                          
 ---------------------------------------------------------------------
 Center     Atomic      Atomic             Coordinates (Angstroms)
 Number     Number       Type             X           Y           Z
 ---------------------------------------------------------------------
      1          6           0        0.923356   -0.745765    0.032883
      2          6           0       -0.367199   -1.096141    0.043006
      3          8           0       -1.143995   -0.011369    0.031299
      4          6           0       -0.323813    1.127539    0.036038
      5          6           0        0.921860    0.700705    0.003726
      6          1           0        1.795301    1.370111   -0.027493
      7          1           0       -0.820582    2.048479   -0.016388
      8          1           0       -0.825380   -1.999614   -0.034545
      9          1           0        1.840210   -1.361753    0.036298
 ---------------------------------------------------------------------
                    Distance matrix (angstroms):
                    1          2          3          4          5
     1  C    0.000000
     2  C    1.337310   0.000000
     3  O    2.193919   1.334271   0.000000
     4  C    2.250491   2.224114   1.403507   0.000000
     5  C    1.446765   2.211758   2.185307   1.317168   0.000000
     6  H    2.289293   3.280819   3.248293   2.133898   1.100899
     7  H    3.294169   3.177691   2.085628   1.047692   2.202953
     8  H    2.152850   1.015976   2.014688   3.167907   3.216525
     9  H    1.104570   2.223342   3.275522   3.298419   2.257911
                    6          7          8          9
     6  H    0.000000
     7  H    2.702434   0.000000
     8  H    4.268848   4.048137   0.000000
     9  H    2.732978   4.325768   2.741761   0.000000
 Stoichiometry    C4H4O
 Framework group  C1[X(C4H4O)]
 Deg. of freedom    21
 Full point group                 C1      NOp   1
 Largest Abelian subgroup         C1      NOp   1
 Largest concise Abelian subgroup C1      NOp   1
                         Standard orientation:                         
 ---------------------------------------------------------------------
 Center     Atomic      Atomic             Coordinates (Angstroms)
 Number     Number       Type             X           Y           Z
 ---------------------------------------------------------------------
      1          6           0       -0.743755    0.928976   -0.008493
      2          6           0       -1.092569   -0.362042   -0.008402
      3          8           0       -0.006767   -1.137432    0.000742
      4          6           0        1.131052   -0.315910   -0.016647
      5          6           0        0.702879    0.929417    0.010949
      6          1           0        1.371381    1.803845    0.032348
      7          1           0        2.052946   -0.811230    0.032611
      8          1           0       -1.994924   -0.820840    0.078009
      9          1           0       -1.360904    1.845042   -0.013350
 ---------------------------------------------------------------------
 Rotational constants (GHZ):      9.6830023      9.3106122      4.7478819
 Leave Link  202 at Tue Dec 15 16:29:44 2015, MaxMem=    33554432 cpu:         0.0
 (Enter /home/Applications/g09/g09/l301.exe)
 Standard basis: 3-21G (6D, 7F)
 Ernie: Thresh=  0.10000D-02 Tol=  0.10000D-05 Strict=F.
 There are    53 symmetry adapted cartesian basis functions of A   symmetry.
 There are    53 symmetry adapted basis functions of A   symmetry.
    53 basis functions,    87 primitive gaussians,    53 cartesian basis functions
    18 alpha electrons       18 beta electrons
       nuclear repulsion energy       161.9638809182 Hartrees.
 IExCor=  402 DFT=T Ex+Corr=B3LYP ExCW=0 ScaHFX=  0.200000
 ScaDFX=  0.800000  0.720000  1.000000  0.810000 ScalE2=  1.000000  1.000000
 IRadAn=      0 IRanWt=     -1 IRanGd=            0 ICorTp=0 IEmpDi=  4
 NAtoms=    9 NActive=    9 NUniq=    9 SFac= 1.00D+00 NAtFMM=   60 NAOKFM=F Big=F
 Integral buffers will be    131072 words long.
 Regular integral format.
 Two-electron integral symmetry is turned on.
 Leave Link  301 at Tue Dec 15 16:29:44 2015, MaxMem=    33554432 cpu:         0.0
 (Enter /home/Applications/g09/g09/l302.exe)
 NPDir=0 NMtPBC=     1 NCelOv=     1 NCel=       1 NClECP=     1 NCelD=      1
         NCelK=      1 NCelE2=     1 NClLst=     1 CellRange=     0.0.
 One-electron integrals computed using PRISM.
 NBasis=    53 RedAO= T EigKep=  3.07D-03  NBF=    53
 NBsUse=    53 1.00D-06 EigRej= -1.00D+00 NBFU=    53
 Precomputing XC quadrature grid using
 IXCGrd= 4 IRadAn=           0 IRanWt=          -1 IRanGd=           0 AccXCQ= 0.00D+00.
 Generated NRdTot=       0 NPtTot=           0 NUsed=           0 NTot=          32
 NSgBfM=    53    53    53    53    53 MxSgAt=     9 MxSgA2=     9.
 Leave Link  302 at Tue Dec 15 16:29:45 2015, MaxMem=    33554432 cpu:         0.1
 (Enter /home/Applications/g09/g09/l308.exe)
 Leave Link  308 at Tue Dec 15 16:29:45 2015, MaxMem=    33554432 cpu:         0.0
 (Enter /home/Applications/g09/g09/l303.exe)
 DipDrv:  MaxL=1.
 Leave Link  303 at Tue Dec 15 16:29:45 2015, MaxMem=    33554432 cpu:         0.0
 (Enter /home/Applications/g09/g09/l401.exe)
 ExpMin= 1.83D-01 ExpMax= 3.22D+02 ExpMxC= 3.22D+02 IAcc=1 IRadAn=         1 AccDes= 0.00D+00
 Harris functional with IExCor=  402 and IRadAn=       1 diagonalized for initial guess.
 HarFok:  IExCor=  402 AccDes= 0.00D+00 IRadAn=         1 IDoV= 1 UseB2=F ITyADJ=14
 ICtDFT=  3500011 ScaDFX=  1.000000  1.000000  1.000000  1.000000
 FoFCou: FMM=F IPFlag=           0 FMFlag=      100000 FMFlg1=           0
         NFxFlg=           0 DoJE=T BraDBF=F KetDBF=T FulRan=T
         wScrn=  0.000000 ICntrl=     500 IOpCl=  0 I1Cent=   200000004 NGrid=           0
         NMat0=    1 NMatS0=      1 NMatT0=    0 NMatD0=    1 NMtDS0=    0 NMtDT0=    0
 Petite list used in FoFCou.
 Harris En= -228.735650746984    
 JPrj=0 DoOrth=F DoCkMO=F.
 Leave Link  401 at Tue Dec 15 16:29:45 2015, MaxMem=    33554432 cpu:         0.1
 (Enter /home/Applications/g09/g09/l502.exe)
 Closed shell SCF:
 Using DIIS extrapolation, IDIIS=  1040.
 Integral symmetry usage will be decided dynamically.
 Keep R1 ints in memory in canonical form, NReq=1925595.
 IVT=       27707 IEndB=       27707 NGot=    33554432 MDV=    32502130
 LenX=    32502130 LenY=    32498880
 Requested convergence on RMS density matrix=1.00D-08 within 128 cycles.
 Requested convergence on MAX density matrix=1.00D-06.
 Requested convergence on             energy=1.00D-06.
 No special actions if energy rises.
 FoFCou: FMM=F IPFlag=           0 FMFlag=           0 FMFlg1=           0
         NFxFlg=           0 DoJE=F BraDBF=F KetDBF=F FulRan=T
         wScrn=  0.000000 ICntrl=     600 IOpCl=  0 I1Cent=           0 NGrid=           0
         NMat0=    1 NMatS0=   1431 NMatT0=    0 NMatD0=    1 NMtDS0=    0 NMtDT0=    0
 Symmetry not used in FoFCou.
 Integral accuracy reduced to 1.0D-05 until final iterations.

 Cycle   1  Pass 0  IDiag  1:
 E= -228.662173749049    
 DIIS: error= 3.66D-02 at cycle   1 NSaved=   1.
 NSaved= 1 IEnMin= 1 EnMin= -228.662173749049     IErMin= 1 ErrMin= 3.66D-02
 ErrMax= 3.66D-02  0.00D+00 EMaxC= 1.00D-01 BMatC= 7.56D-02 BMatP= 7.56D-02
 IDIUse=3 WtCom= 6.34D-01 WtEn= 3.66D-01
 Coeff-Com:  0.100D+01
 Coeff-En:   0.100D+01
 Coeff:      0.100D+01
 Gap=     0.245 Goal=   None    Shift=    0.000
 GapD=    0.245 DampG=1.000 DampE=0.500 DampFc=0.5000 IDamp=-1.
 Damping current iteration by 5.00D-01
 RMSDP=1.15D-02 MaxDP=1.05D-01              OVMax= 1.73D-01

 Cycle   2  Pass 0  IDiag  1:
 E= -228.695384415842     Delta-E=       -0.033210666792 Rises=F Damp=T
 DIIS: error= 1.23D-02 at cycle   2 NSaved=   2.
 NSaved= 2 IEnMin= 2 EnMin= -228.695384415842     IErMin= 2 ErrMin= 1.23D-02
 ErrMax= 1.23D-02  0.00D+00 EMaxC= 1.00D-01 BMatC= 7.78D-03 BMatP= 7.56D-02
 IDIUse=3 WtCom= 8.77D-01 WtEn= 1.23D-01
 Coeff-Com:  0.757D-01 0.924D+00
 Coeff-En:   0.134D+00 0.866D+00
 Coeff:      0.828D-01 0.917D+00
 Gap=     0.262 Goal=   None    Shift=    0.000
 RMSDP=4.26D-03 MaxDP=3.83D-02 DE=-3.32D-02 OVMax= 1.50D-01

 Cycle   3  Pass 0  IDiag  1:
 E= -228.731115209482     Delta-E=       -0.035730793640 Rises=F Damp=F
 DIIS: error= 2.03D-02 at cycle   3 NSaved=   3.
 NSaved= 3 IEnMin= 3 EnMin= -228.731115209482     IErMin= 2 ErrMin= 1.23D-02
 ErrMax= 2.03D-02  0.00D+00 EMaxC= 1.00D-01 BMatC= 1.16D-02 BMatP= 7.78D-03
 IDIUse=2 WtCom= 0.00D+00 WtEn= 1.00D+00
 Coeff-En:   0.000D+00 0.000D+00 0.100D+01
 Coeff:      0.000D+00 0.000D+00 0.100D+01
 Gap=     0.250 Goal=   None    Shift=    0.000
 RMSDP=5.95D-03 MaxDP=5.23D-02 DE=-3.57D-02 OVMax= 1.26D-01

 Cycle   4  Pass 0  IDiag  1:
 E= -228.700653405362     Delta-E=        0.030461804120 Rises=F Damp=F
 DIIS: error= 4.11D-02 at cycle   4 NSaved=   4.
 NSaved= 4 IEnMin= 3 EnMin= -228.731115209482     IErMin= 2 ErrMin= 1.23D-02
 ErrMax= 4.11D-02  0.00D+00 EMaxC= 1.00D-01 BMatC= 4.55D-02 BMatP= 7.78D-03
 IDIUse=2 WtCom= 0.00D+00 WtEn= 1.00D+00
 Coeff-En:   0.000D+00 0.000D+00 0.748D+00 0.252D+00
 Coeff:      0.000D+00 0.000D+00 0.748D+00 0.252D+00
 Gap=     0.261 Goal=   None    Shift=    0.000
 RMSDP=2.97D-03 MaxDP=2.45D-02 DE= 3.05D-02 OVMax= 6.79D-02

 Cycle   5  Pass 0  IDiag  1:
 E= -228.739265807095     Delta-E=       -0.038612401733 Rises=F Damp=F
 DIIS: error= 9.72D-03 at cycle   5 NSaved=   5.
 NSaved= 5 IEnMin= 5 EnMin= -228.739265807095     IErMin= 5 ErrMin= 9.72D-03
 ErrMax= 9.72D-03  0.00D+00 EMaxC= 1.00D-01 BMatC= 2.58D-03 BMatP= 7.78D-03
 IDIUse=3 WtCom= 9.03D-01 WtEn= 9.72D-02
 Coeff-Com: -0.551D-02 0.224D-01 0.238D+00-0.881D-01 0.833D+00
 Coeff-En:   0.000D+00 0.000D+00 0.227D+00 0.000D+00 0.773D+00
 Coeff:     -0.498D-02 0.202D-01 0.237D+00-0.796D-01 0.827D+00
 Gap=     0.265 Goal=   None    Shift=    0.000
 RMSDP=1.03D-03 MaxDP=7.81D-03 DE=-3.86D-02 OVMax= 2.25D-02

 Cycle   6  Pass 0  IDiag  1:
 E= -228.741608795779     Delta-E=       -0.002342988684 Rises=F Damp=F
 DIIS: error= 5.27D-04 at cycle   6 NSaved=   6.
 NSaved= 6 IEnMin= 6 EnMin= -228.741608795779     IErMin= 6 ErrMin= 5.27D-04
 ErrMax= 5.27D-04  0.00D+00 EMaxC= 1.00D-01 BMatC= 1.19D-05 BMatP= 2.58D-03
 IDIUse=3 WtCom= 9.95D-01 WtEn= 5.27D-03
 Coeff-Com: -0.483D-02 0.121D-01 0.713D-01-0.525D-01 0.383D+00 0.591D+00
 Coeff-En:   0.000D+00 0.000D+00 0.000D+00 0.000D+00 0.000D+00 0.100D+01
 Coeff:     -0.481D-02 0.120D-01 0.710D-01-0.522D-01 0.381D+00 0.593D+00
 Gap=     0.265 Goal=   None    Shift=    0.000
 RMSDP=7.51D-05 MaxDP=6.91D-04 DE=-2.34D-03 OVMax= 1.44D-03

 Cycle   7  Pass 0  IDiag  1:
 E= -228.741620455236     Delta-E=       -0.000011659457 Rises=F Damp=F
 DIIS: error= 1.21D-04 at cycle   7 NSaved=   7.
 NSaved= 7 IEnMin= 7 EnMin= -228.741620455236     IErMin= 7 ErrMin= 1.21D-04
 ErrMax= 1.21D-04  0.00D+00 EMaxC= 1.00D-01 BMatC= 3.92D-07 BMatP= 1.19D-05
 IDIUse=3 WtCom= 9.99D-01 WtEn= 1.21D-03
 Coeff-Com: -0.197D-02 0.421D-02 0.205D-01-0.208D-01 0.143D+00 0.346D+00
 Coeff-Com:  0.509D+00
 Coeff-En:   0.000D+00 0.000D+00 0.000D+00 0.000D+00 0.000D+00 0.000D+00
 Coeff-En:   0.100D+01
 Coeff:     -0.197D-02 0.421D-02 0.204D-01-0.207D-01 0.143D+00 0.346D+00
 Coeff:      0.510D+00
 Gap=     0.265 Goal=   None    Shift=    0.000
 RMSDP=1.27D-05 MaxDP=1.56D-04 DE=-1.17D-05 OVMax= 3.62D-04

 Cycle   8  Pass 0  IDiag  1:
 E= -228.741620858039     Delta-E=       -0.000000402803 Rises=F Damp=F
 DIIS: error= 2.11D-05 at cycle   8 NSaved=   8.
 NSaved= 8 IEnMin= 8 EnMin= -228.741620858039     IErMin= 8 ErrMin= 2.11D-05
 ErrMax= 2.11D-05  0.00D+00 EMaxC= 1.00D-01 BMatC= 1.57D-08 BMatP= 3.92D-07
 IDIUse=1 WtCom= 1.00D+00 WtEn= 0.00D+00
 Coeff-Com: -0.232D-03 0.192D-03 0.388D-02-0.329D-02 0.285D-01 0.119D+00
 Coeff-Com:  0.228D+00 0.624D+00
 Coeff:     -0.232D-03 0.192D-03 0.388D-02-0.329D-02 0.285D-01 0.119D+00
 Coeff:      0.228D+00 0.624D+00
 Gap=     0.265 Goal=   None    Shift=    0.000
 RMSDP=2.03D-06 MaxDP=1.81D-05 DE=-4.03D-07 OVMax= 3.53D-05

 Initial convergence to 1.0D-05 achieved.  Increase integral accuracy.
 Cycle   9  Pass 1  IDiag  1:
 E= -228.741662270405     Delta-E=       -0.000041412367 Rises=F Damp=F
 DIIS: error= 1.73D-05 at cycle   1 NSaved=   1.
 NSaved= 1 IEnMin= 1 EnMin= -228.741662270405     IErMin= 1 ErrMin= 1.73D-05
 ErrMax= 1.73D-05  0.00D+00 EMaxC= 1.00D-01 BMatC= 6.85D-09 BMatP= 6.85D-09
 IDIUse=1 WtCom= 1.00D+00 WtEn= 0.00D+00
 Coeff-Com:  0.100D+01
 Coeff:      0.100D+01
 Gap=     0.265 Goal=   None    Shift=    0.000
 RMSDP=2.03D-06 MaxDP=1.81D-05 DE=-4.14D-05 OVMax= 2.33D-05

 Cycle  10  Pass 1  IDiag  1:
 E= -228.741662278426     Delta-E=       -0.000000008020 Rises=F Damp=F
 DIIS: error= 6.95D-06 at cycle   2 NSaved=   2.
 NSaved= 2 IEnMin= 2 EnMin= -228.741662278426     IErMin= 2 ErrMin= 6.95D-06
 ErrMax= 6.95D-06  0.00D+00 EMaxC= 1.00D-01 BMatC= 1.40D-09 BMatP= 6.85D-09
 IDIUse=1 WtCom= 1.00D+00 WtEn= 0.00D+00
 Coeff-Com:  0.210D+00 0.790D+00
 Coeff:      0.210D+00 0.790D+00
 Gap=     0.265 Goal=   None    Shift=    0.000
 RMSDP=1.44D-06 MaxDP=1.35D-05 DE=-8.02D-09 OVMax= 3.12D-05

 Cycle  11  Pass 1  IDiag  1:
 E= -228.741662277576     Delta-E=        0.000000000850 Rises=F Damp=F
 DIIS: error= 9.88D-06 at cycle   3 NSaved=   3.
 NSaved= 3 IEnMin= 2 EnMin= -228.741662278426     IErMin= 2 ErrMin= 6.95D-06
 ErrMax= 9.88D-06  0.00D+00 EMaxC= 1.00D-01 BMatC= 2.37D-09 BMatP= 1.40D-09
 IDIUse=1 WtCom= 1.00D+00 WtEn= 0.00D+00
 Coeff-Com: -0.146D-01 0.571D+00 0.443D+00
 Coeff:     -0.146D-01 0.571D+00 0.443D+00
 Gap=     0.265 Goal=   None    Shift=    0.000
 RMSDP=9.21D-07 MaxDP=7.66D-06 DE= 8.50D-10 OVMax= 2.03D-05

 Cycle  12  Pass 1  IDiag  1:
 E= -228.741662279538     Delta-E=       -0.000000001962 Rises=F Damp=F
 DIIS: error= 6.93D-07 at cycle   4 NSaved=   4.
 NSaved= 4 IEnMin= 4 EnMin= -228.741662279538     IErMin= 4 ErrMin= 6.93D-07
 ErrMax= 6.93D-07  0.00D+00 EMaxC= 1.00D-01 BMatC= 2.47D-11 BMatP= 1.40D-09
 IDIUse=1 WtCom= 1.00D+00 WtEn= 0.00D+00
 Coeff-Com: -0.119D-01 0.242D+00 0.217D+00 0.553D+00
 Coeff:     -0.119D-01 0.242D+00 0.217D+00 0.553D+00
 Gap=     0.265 Goal=   None    Shift=    0.000
 RMSDP=1.15D-07 MaxDP=1.92D-06 DE=-1.96D-09 OVMax= 1.74D-06

 Cycle  13  Pass 1  IDiag  1:
 E= -228.741662279562     Delta-E=       -0.000000000023 Rises=F Damp=F
 DIIS: error= 1.58D-07 at cycle   5 NSaved=   5.
 NSaved= 5 IEnMin= 5 EnMin= -228.741662279562     IErMin= 5 ErrMin= 1.58D-07
 ErrMax= 1.58D-07  0.00D+00 EMaxC= 1.00D-01 BMatC= 1.01D-12 BMatP= 2.47D-11
 IDIUse=1 WtCom= 1.00D+00 WtEn= 0.00D+00
 Coeff-Com: -0.421D-02 0.663D-01 0.666D-01 0.239D+00 0.633D+00
 Coeff:     -0.421D-02 0.663D-01 0.666D-01 0.239D+00 0.633D+00
 Gap=     0.265 Goal=   None    Shift=    0.000
 RMSDP=2.28D-08 MaxDP=3.85D-07 DE=-2.33D-11 OVMax= 4.42D-07

 Cycle  14  Pass 1  IDiag  1:
 E= -228.741662279563     Delta-E=       -0.000000000002 Rises=F Damp=F
 DIIS: error= 3.51D-08 at cycle   6 NSaved=   6.
 NSaved= 6 IEnMin= 6 EnMin= -228.741662279563     IErMin= 6 ErrMin= 3.51D-08
 ErrMax= 3.51D-08  0.00D+00 EMaxC= 1.00D-01 BMatC= 9.21D-14 BMatP= 1.01D-12
 IDIUse=1 WtCom= 1.00D+00 WtEn= 0.00D+00
 Coeff-Com: -0.639D-03 0.526D-02 0.792D-02 0.546D-01 0.287D+00 0.646D+00
 Coeff:     -0.639D-03 0.526D-02 0.792D-02 0.546D-01 0.287D+00 0.646D+00
 Gap=     0.265 Goal=   None    Shift=    0.000
 RMSDP=8.02D-09 MaxDP=9.87D-08 DE=-1.53D-12 OVMax= 1.33D-07

 SCF Done:  E(RB3LYP) =  -228.741662280     A.U. after   14 cycles
            NFock= 14  Conv=0.80D-08     -V/T= 2.0072
 KE= 2.270999681537D+02 PE=-8.567126079663D+02 EE= 2.389070966148D+02
 Leave Link  502 at Tue Dec 15 16:29:48 2015, MaxMem=    33554432 cpu:         3.0
 (Enter /home/Applications/g09/g09/l801.exe)
 DoSCS=F DFT=T ScalE2(SS,OS)=  1.000000  1.000000
 ExpMin= 1.83D-01 ExpMax= 3.22D+02 ExpMxC= 3.22D+02 IAcc=3 IRadAn=         5 AccDes= 0.00D+00
 HarFok:  IExCor=  205 AccDes= 0.00D+00 IRadAn=         5 IDoV=-2 UseB2=F ITyADJ=14
 ICtDFT= 12500011 ScaDFX=  1.000000  1.000000  1.000000  1.000000
 Largest valence mixing into a core orbital is  1.98D-04
 Largest core mixing into a valence orbital is  4.71D-05
 Range of M.O.s used for correlation:     6    53
 NBasis=    53 NAE=    18 NBE=    18 NFC=     5 NFV=     0
 NROrb=     48 NOA=    13 NOB=    13 NVA=    35 NVB=    35
 Leave Link  801 at Tue Dec 15 16:29:48 2015, MaxMem=    33554432 cpu:         0.2
 (Enter /home/Applications/g09/g09/l914.exe)
 RHF ground state
 MDV=    33554432 DFT=T DoStab=F Mixed=T DoRPA=F DoScal=F NonHer=F
 Keep R1, R2, and R3 ints in memory in canonical form, NReq=5596273.
 FoFCou: FMM=F IPFlag=           0 FMFlag=           0 FMFlg1=           0
         NFxFlg=           0 DoJE=F BraDBF=F KetDBF=F FulRan=T
         wScrn=  0.000000 ICntrl=     600 IOpCl=  0 I1Cent=           0 NGrid=           0
         NMat0=    1 NMatS0=   1431 NMatT0=    0 NMatD0=    1 NMtDS0=    0 NMtDT0=    0
 Symmetry not used in FoFCou.
 Making orbital integer symmetry assigments:
 Orbital symmetries:
       Occupied  (A) (A) (A) (A) (A) (A) (A) (A) (A) (A) (A) (A)
                 (A) (A) (A) (A) (A) (A)
       Virtual   (A) (A) (A) (A) (A) (A) (A) (A) (A) (A) (A) (A)
                 (A) (A) (A) (A) (A) (A) (A) (A) (A) (A) (A) (A)
                 (A) (A) (A) (A) (A) (A) (A) (A) (A) (A) (A)
    60 initial guesses have been made.
 Convergence on wavefunction:    0.000001000000000
 Davidson Disk Diagonalization:  ConvIn= 1.00D-06 SkipCon=T Conv= 1.00D-06.
 Max sub-space:   240 roots to seek:    60 dimension of matrix:          910
 Iteration     1 Dimension    60 NMult     0 NNew     60
 CISAX will form    60 AO SS matrices at one time.
 NMat=    60 NSing=    60 JSym2X= 0.
 New state      1 was old state      2
 New state      2 was old state      1
 New state      3 was old state      5
 New state      4 was old state      6
 New state      5 was old state      7
 New state      6 was old state      8
 New state      7 was old state      9
 New state      8 was old state      4
 New state      9 was old state     11
 New state     10 was old state     13
 New state     11 was old state     10
 New state     13 was old state     14
 New state     14 was old state     15
 New state     15 was old state      3
 Excitation Energies [eV] at current iteration:
 Root      1 :     7.584508734412442
 Root      2 :     8.321842680972289
 Root      3 :     8.719418940579857
 Root      4 :     8.772847674919010
 Root      5 :     9.647117359960330
 Root      6 :     9.702991622596240
 Root      7 :     9.969179794771062
 Root      8 :    10.063804522440190
 Root      9 :    10.137817961970270
 Root     10 :    10.427852677997740
 Root     11 :    10.485523518680930
 Root     12 :    10.557282716603420
 Root     13 :    10.839611999613710
 Root     14 :    11.010261478080930
 Root     15 :    11.068054199566090
 Root     16 :    11.177739173508970
 Root     17 :    11.371503278386180
 Root     18 :    11.538505218482080
 Root     19 :    11.663608476955320
 Root     20 :    11.734175239002500
 Root     21 :    11.967974316899580
 Root     22 :    12.084774582026170
 Root     23 :    12.272733263464190
 Root     24 :    12.620584746003710
 Root     25 :    12.730329346099220
 Root     26 :    13.244224291431800
 Root     27 :    13.526299581964350
 Root     28 :    13.543658183863060
 Root     29 :    13.716517574701760
 Root     30 :    13.806686000055540
 Root     31 :    14.062161134248700
 Root     32 :    14.167415276608930
 Root     33 :    14.186850308019910
 Root     34 :    14.335468178829440
 Root     35 :    14.453219586386610
 Root     36 :    14.502104190563760
 Root     37 :    14.671417623688270
 Root     38 :    14.766629004762520
 Root     39 :    14.883099349205940
 Root     40 :    15.029766174548900
 Root     41 :    15.111611848798270
 Root     42 :    15.279423651921440
 Root     43 :    15.376067772379840
 Root     44 :    15.394502615105550
 Root     45 :    15.439132271112780
 Root     46 :    15.657721335657240
 Root     47 :    15.711036538031190
 Root     48 :    15.825651389179420
 Root     49 :    15.965504726131990
 Root     50 :    16.042615312696280
 Root     51 :    16.091490342571840
 Root     52 :    16.185196438290620
 Root     53 :    16.245249592385270
 Root     54 :    16.522447530538860
 Root     55 :    16.555906047918060
 Root     56 :    16.751177704837810
 Root     57 :    17.003906403772110
 Root     58 :    17.313630954634510
 Root     59 :    17.751162048357400
 Root     60 :    18.616938582318030
 Iteration     2 Dimension   120 NMult    60 NNew     60
 CISAX will form    60 AO SS matrices at one time.
 NMat=    60 NSing=    60 JSym2X= 0.
 Root      1 not converged, maximum delta is    0.232528992765787
 Root      2 not converged, maximum delta is    0.180074849844121
 Root      3 not converged, maximum delta is    0.014846195698956
 Root      4 not converged, maximum delta is    0.037994771705987
 New state      5 was old state      8
 Root      5 not converged, maximum delta is    0.242553953797273
 New state      6 was old state      5
 Root      6 not converged, maximum delta is    0.127603855856076
 New state      7 was old state      6
 Root      7 not converged, maximum delta is    0.281267267703252
 New state      8 was old state      7
 Root      8 not converged, maximum delta is    0.308649263163388
 New state      9 was old state     15
 Root      9 not converged, maximum delta is    0.506625680662668
 New state     10 was old state      9
 Root     10 not converged, maximum delta is    0.203830622633822
 New state     11 was old state     10
 Root     11 not converged, maximum delta is    0.059835462694305
 New state     12 was old state     11
 Root     12 not converged, maximum delta is    0.080187285511455
 New state     13 was old state     12
 Root     13 not converged, maximum delta is    0.198186284518668
 New state     14 was old state     13
 Root     14 not converged, maximum delta is    0.018283378169111
 New state     15 was old state     14
 Root     15 not converged, maximum delta is    0.169344171459228
 Excitation Energies [eV] at current iteration:
 Root      1 :     7.382122293720086   Change is   -0.202386440692355
 Root      2 :     7.628879133249938   Change is   -0.692963547722350
 Root      3 :     8.711458451943351   Change is   -0.007960488636507
 Root      4 :     8.746333443393448   Change is   -0.026514231525562
 Root      5 :     9.532399844494059   Change is   -0.531404677946131
 Root      6 :     9.623777178623932   Change is   -0.023340181336397
 Root      7 :     9.701707181187093   Change is   -0.001284441409147
 Root      8 :     9.898516562555303   Change is   -0.070663232215759
 Root      9 :    10.009126089820190   Change is   -1.058928109745905
 Root     10 :    10.129191121670140   Change is   -0.008626840300128
 Root     11 :    10.412851594067890   Change is   -0.015001083929849
 Root     12 :    10.468023066221950   Change is   -0.017500452458975
 Root     13 :    10.600571162068670   Change is    0.043288445465252
 Root     14 :    10.829800145479910   Change is   -0.009811854133793
 Root     15 :    11.005705272461990   Change is   -0.004556205618941
 Root     16 :    11.143153247990190   Change is   -0.034585925518780
 Root     17 :    11.339526346433240   Change is   -0.031976931952943
 Root     18 :    11.484176653724230   Change is   -0.054328564757850
 Root     19 :    11.638155126151340   Change is   -0.025453350803979
 Root     20 :    11.692052147772410   Change is   -0.042123091230087
 Root     21 :    11.851376392370940   Change is   -0.116597924528641
 Root     22 :    12.066073527196520   Change is   -0.018701054829652
 Root     23 :    12.212375551704490   Change is   -0.060357711759697
 Root     24 :    12.591132799407930   Change is   -0.029451946595786
 Root     25 :    12.653685078383680   Change is   -0.076644267715538
 Root     26 :    12.880310629297180   Change is   -1.181850504951519
 Root     27 :    13.210121669320400   Change is   -0.034102622111407
 Root     28 :    13.414932345995410   Change is   -0.111367235968945
 Root     29 :    13.503605870754550   Change is   -0.040052313108506
 Root     30 :    13.596336537694020   Change is   -0.210349462361519
 Root     31 :    13.701368539859240   Change is   -0.015149034842519
 Root     32 :    14.078804134941050   Change is   -0.108046173078861
 Root     33 :    14.108183830680590   Change is   -0.059231445928344
 Root     34 :    14.157858376585700   Change is   -0.177609802243736
 Root     35 :    14.298056642768360   Change is   -0.204047547795405
 Root     36 :    14.433020249559490   Change is   -0.020199336827127
 Root     37 :    14.615367279308170   Change is   -0.056050344380100
 Root     38 :    14.688325866762700   Change is   -0.078303137999818
 Root     39 :    14.693847942628360   Change is   -0.335918231920549
 Root     40 :    14.811400535455860   Change is   -0.071698813750078
 Root     41 :    15.069633635224940   Change is   -0.306434137154894
 Root     42 :    15.086244529752260   Change is   -0.025367319046007
 Root     43 :    15.241309298675030   Change is   -0.038114353246414
 Root     44 :    15.275506645481220   Change is   -0.118995969624331
 Root     45 :    15.405018016463390   Change is   -0.034114254649397
 Root     46 :    15.589049313023710   Change is   -0.068672022633537
 Root     47 :    15.612586874678280   Change is   -0.213064514501144
 Root     48 :    15.650844073476300   Change is   -0.060192464554890
 Root     49 :    15.710799154206500   Change is   -0.254705571925496
 Root     50 :    15.799989601280990   Change is   -0.242625711415296
 Root     51 :    15.993696988815910   Change is   -0.097793353755925
 Root     52 :    16.124644991900130   Change is   -0.879261411871980
 Root     53 :    16.139350243369380   Change is   -0.045846194921242
 Root     54 :    16.194830194173750   Change is   -0.050419398211513
 Root     55 :    16.504617405458020   Change is   -0.051288642460040
 Root     56 :    16.533105031901810   Change is   -0.780525922732704
 Root     57 :    16.571867983328210   Change is    0.049420452789353
 Root     58 :    16.621500480869410   Change is   -0.129677223968401
 Root     59 :    16.802487037155050   Change is   -0.948675011202353
 Root     60 :    16.905819358240010   Change is   -1.711119224078029
 Iteration     3 Dimension   135 NMult   120 NNew     15
 CISAX will form    15 AO SS matrices at one time.
 NMat=    15 NSing=    15 JSym2X= 0.
 Root      1 not converged, maximum delta is    0.001299085279409
 Root      2 not converged, maximum delta is    0.002195337770719
 Root      3 not converged, maximum delta is    0.000147385340972
 Root      4 not converged, maximum delta is    0.000215713532710
 Root      5 not converged, maximum delta is    0.002747124000456
 Root      6 not converged, maximum delta is    0.000770923738001
 Root      7 not converged, maximum delta is    0.002174557586225
 Root      8 not converged, maximum delta is    0.007227601483435
 Root      9 not converged, maximum delta is    0.010027881751513
 Root     10 not converged, maximum delta is    0.003591707574168
 Root     11 not converged, maximum delta is    0.000328444066674
 Root     12 not converged, maximum delta is    0.000622760766347
 Root     13 not converged, maximum delta is    0.000734020355739
 Root     14 not converged, maximum delta is    0.000094159786676
 Root     15 not converged, maximum delta is    0.000154646158121
 Excitation Energies [eV] at current iteration:
 Root      1 :     7.380788432145522   Change is   -0.001333861574564
 Root      2 :     7.627359412885578   Change is   -0.001519720364361
 Root      3 :     8.711444549368261   Change is   -0.000013902575089
 Root      4 :     8.746312517706270   Change is   -0.000020925687178
 Root      5 :     9.530695021469038   Change is   -0.001704823025021
 Root      6 :     9.623732588932551   Change is   -0.000044589691381
 Root      7 :     9.701508116520603   Change is   -0.000199064666490
 Root      8 :     9.896090333503880   Change is   -0.002426229051422
 Root      9 :    10.007463596793880   Change is   -0.001662493026306
 Root     10 :    10.128668848024380   Change is   -0.000522273645762
 Root     11 :    10.412810886781870   Change is   -0.000040707286021
 Root     12 :    10.467959381216230   Change is   -0.000063685005719
 Root     13 :    10.600356184442170   Change is   -0.000214977626500
 Root     14 :    10.829791414255270   Change is   -0.000008731224639
 Root     15 :    11.005687917813130   Change is   -0.000017354648863
 Iteration     4 Dimension   150 NMult   135 NNew     15
 CISAX will form    15 AO SS matrices at one time.
 NMat=    15 NSing=    15 JSym2X= 0.
 Root      1 not converged, maximum delta is    0.000050577458627
 Root      2 not converged, maximum delta is    0.000059041770985
 Root      3 not converged, maximum delta is    0.000004471875560
 Root      4 not converged, maximum delta is    0.000003137398018
 Root      5 not converged, maximum delta is    0.000064515619760
 Root      6 not converged, maximum delta is    0.000008696543509
 Root      7 not converged, maximum delta is    0.000019935006798
 Root      8 not converged, maximum delta is    0.000088059762748
 Root      9 not converged, maximum delta is    0.000073547574315
 Root     10 not converged, maximum delta is    0.000041896553978
 Root     11 not converged, maximum delta is    0.000009870948652
 Root     12 not converged, maximum delta is    0.000008577665353
 Root     13 not converged, maximum delta is    0.000030788916311
 Root     14 not converged, maximum delta is    0.000003395642763
 Root     15 not converged, maximum delta is    0.000003807469784
 Excitation Energies [eV] at current iteration:
 Root      1 :     7.380786467285927   Change is   -0.000001964859595
 Root      2 :     7.627357768180837   Change is   -0.000001644704740
 Root      3 :     8.711444531705100   Change is   -0.000000017663161
 Root      4 :     8.746312506195489   Change is   -0.000000011510782
 Root      5 :     9.530692314984410   Change is   -0.000002706484626
 Root      6 :     9.623732547627549   Change is   -0.000000041305002
 Root      7 :     9.701507820902791   Change is   -0.000000295617812
 Root      8 :     9.896086356249123   Change is   -0.000003977254757
 Root      9 :    10.007460881909220   Change is   -0.000002714884660
 Root     10 :    10.128668054489410   Change is   -0.000000793534971
 Root     11 :    10.412810833101700   Change is   -0.000000053680172
 Root     12 :    10.467959333325950   Change is   -0.000000047890289
 Root     13 :    10.600355824286820   Change is   -0.000000360155355
 Root     14 :    10.829791406253930   Change is   -0.000000008001341
 Root     15 :    11.005687904079850   Change is   -0.000000013733276
 Iteration     5 Dimension   165 NMult   150 NNew     15
 CISAX will form    15 AO SS matrices at one time.
 NMat=    15 NSing=    15 JSym2X= 0.
 Root      1 not converged, maximum delta is    0.000001613380413
 Root      2 not converged, maximum delta is    0.000002299048567
 Root      3 has converged.
 Root      4 has converged.
 Root      5 not converged, maximum delta is    0.000002525357718
 Root      6 has converged.
 Root      7 has converged.
 Root      8 not converged, maximum delta is    0.000002803396025
 Root      9 not converged, maximum delta is    0.000002525318177
 Root     10 not converged, maximum delta is    0.000001382202175
 Root     11 has converged.
 Root     12 not converged, maximum delta is    0.000001015861338
 Root     13 not converged, maximum delta is    0.000001171241517
 Root     14 has converged.
 Root     15 has converged.
 Excitation Energies [eV] at current iteration:
 Root      1 :     7.380786465188221   Change is   -0.000000002097706
 Root      2 :     7.627357766752300   Change is   -0.000000001428537
 Root      3 :     8.711444531689997   Change is   -0.000000000015102
 Root      4 :     8.746312506186571   Change is   -0.000000000008917
 Root      5 :     9.530692312296065   Change is   -0.000000002688346
 Root      6 :     9.623732547596980   Change is   -0.000000000030570
 Root      7 :     9.701507820600531   Change is   -0.000000000302260
 Root      8 :     9.896086352432562   Change is   -0.000000003816562
 Root      9 :    10.007460879241890   Change is   -0.000000002667333
 Root     10 :    10.128668053695110   Change is   -0.000000000794295
 Root     11 :    10.412810833040980   Change is   -0.000000000060717
 Root     12 :    10.467959333277660   Change is   -0.000000000048283
 Root     13 :    10.600355823851950   Change is   -0.000000000434870
 Root     14 :    10.829791406248160   Change is   -0.000000000005776
 Root     15 :    11.005687904069130   Change is   -0.000000000010723
 Iteration     6 Dimension   172 NMult   165 NNew      7
 CISAX will form     7 AO SS matrices at one time.
 NMat=     7 NSing=     7 JSym2X= 0.
 Root      1 has converged.
 Root      2 has converged.
 Root      3 has converged.
 Root      4 has converged.
 Root      5 has converged.
 Root      6 has converged.
 Root      7 has converged.
 Root      8 has converged.
 Root      9 has converged.
 Root     10 has converged.
 Root     11 has converged.
 Root     12 has converged.
 Root     13 has converged.
 Root     14 has converged.
 Root     15 has converged.
 Excitation Energies [eV] at current iteration:
 Root      1 :     7.380786465187227   Change is   -0.000000000000994
 Root      2 :     7.627357766751727   Change is   -0.000000000000572
 Root      3 :     8.711444531689962   Change is   -0.000000000000036
 Root      4 :     8.746312506186547   Change is   -0.000000000000024
 Root      5 :     9.530692312294164   Change is   -0.000000000001900
 Root      6 :     9.623732547596964   Change is   -0.000000000000015
 Root      7 :     9.701507820600321   Change is   -0.000000000000210
 Root      8 :     9.896086352429977   Change is   -0.000000000002585
 Root      9 :    10.007460879239970   Change is   -0.000000000001918
 Root     10 :    10.128668053694520   Change is   -0.000000000000588
 Root     11 :    10.412810833040930   Change is   -0.000000000000050
 Root     12 :    10.467959333277640   Change is   -0.000000000000021
 Root     13 :    10.600355823851540   Change is   -0.000000000000405
 Root     14 :    10.829791406248150   Change is   -0.000000000000008
 Root     15 :    11.005687904069120   Change is   -0.000000000000012
 Convergence achieved on expansion vectors.
 ***********************************************************************
 Excited states from <AA,BB:AA,BB> singles matrix:
 ***********************************************************************
 
 1PDM for each excited state written to RWF  633
 Ground to excited state transition densities written to RWF  633
 Ground to excited state transition electric dipole moments (Au):
       state          X           Y           Z        Dip. S.      Osc.
         1        -0.5778     -0.1620      0.0138      0.3603      0.0651
         2        -0.9064     -0.0226      0.0021      0.8221      0.1536
         3         0.0072     -0.0515     -0.0420      0.0045      0.0010
         4         0.0466     -0.0093     -0.1298      0.0191      0.0041
         5         0.7600     -0.2828      0.0010      0.6576      0.1535
         6        -0.0250     -0.0260      0.0571      0.0046      0.0011
         7        -0.2817      0.0524     -0.0406      0.0837      0.0199
         8         0.0025      1.0519     -0.0342      1.1077      0.2686
         9        -0.0313      0.8471      0.1210      0.7333      0.1798
        10        -0.0601     -0.4453      0.0075      0.2020      0.0501
        11        -0.0017     -0.0816     -0.0225      0.0072      0.0018
        12         0.0189      0.0767      0.0359      0.0075      0.0019
        13        -0.0105      0.2805     -0.0587      0.0822      0.0214
        14        -0.0334      0.0028      0.0075      0.0012      0.0003
        15         0.0102      0.0317     -0.0084      0.0012      0.0003
 Ground to excited state transition velocity dipole moments (Au):
       state          X           Y           Z        Dip. S.      Osc.
         1         0.0077     -0.0536     -0.0005      0.0029      0.0072
         2         0.0066      0.0193      0.0030      0.0004      0.0010
         3         0.0020     -0.0040      0.0099      0.0001      0.0002
         4        -0.0036      0.0006      0.0717      0.0051      0.0107
         5        -0.0806      0.0053     -0.0049      0.0066      0.0125
         6         0.0069     -0.0017     -0.0265      0.0008      0.0014
         7         0.0320      0.0016     -0.0044      0.0010      0.0020
         8        -0.0064     -0.0339      0.0404      0.0028      0.0052
         9        -0.0025     -0.0286     -0.0393      0.0024      0.0043
        10         0.0129      0.0181     -0.0032      0.0005      0.0009
        11        -0.0015      0.0044      0.0167      0.0003      0.0005
        12        -0.0066     -0.0054      0.0336      0.0012      0.0021
        13        -0.0017     -0.0143     -0.0522      0.0029      0.0050
        14         0.0070      0.0034      0.0090      0.0001      0.0002
        15        -0.0020     -0.0018     -0.0048      0.0000      0.0000
 Ground to excited state transition magnetic dipole moments (Au):
       state          X           Y           Z
         1        -0.0503      0.0398     -0.3084
         2        -0.0379      0.0390     -0.4463
         3        -0.1029     -0.5139      0.0269
         4        -1.5316      0.1553     -0.0151
         5        -0.0543      0.0232     -0.3142
         6        -0.1812      0.0731      0.0505
         7        -0.2044      0.0102      0.1044
         8        -0.1236     -0.0443     -0.0393
         9         0.2700     -0.0704     -0.0356
        10         0.2853      0.0210     -0.0404
        11         0.0602      0.0600      0.0759
        12         0.0726      0.0678      0.0334
        13         0.0812      0.0445     -0.0088
        14        -0.0627      0.0962     -0.0061
        15         0.0286      0.2269     -0.0145
 Ground to excited state transition velocity quadrupole moments (Au):
       state          XX          YY          ZZ          XY          XZ          YZ
         1        -0.0464     -0.0187      0.0330     -0.0908      0.0039     -0.0022
         2         0.0113      0.0162     -0.0118     -0.2162      0.0067     -0.0020
         3        -0.0092     -0.0014      0.0038     -0.0014      0.0269     -0.0489
         4        -0.0020      0.0007     -0.0019      0.0139     -0.0183     -0.1885
         5        -0.0664      0.0550      0.0120     -0.3281     -0.0236     -0.0285
         6        -0.0116      0.0161     -0.0054      0.0654      0.1676     -0.0028
         7         0.0064     -0.0088     -0.0046      0.1201     -0.1029     -0.0901
         8         0.2429     -0.2086     -0.0414     -0.0778      0.0567     -0.0907
         9         0.1526     -0.1610     -0.0338     -0.0403     -0.0208      0.0549
        10        -0.0988      0.0926      0.0251      0.0231      0.0325     -0.0370
        11        -0.0179      0.0067      0.0067      0.0259      0.0546      0.0289
        12         0.0085     -0.0062     -0.0058     -0.0091     -0.0088      0.1158
        13         0.0821     -0.0506     -0.0219     -0.0098     -0.0737      0.0439
        14         0.0195     -0.0078     -0.0048      0.0036     -0.0799     -0.0144
        15         0.0184     -0.0036     -0.0102     -0.0192      0.0123      0.0354
 <0|del|b> * <b|rxdel|0> + <0|del|b> * <b|delr+rdel|0>
 Rotatory Strengths (R) in cgs (10**-40 erg-esu-cm/Gauss)
       state          XX          YY          ZZ    R(velocity)    E-M Angle
         1        -2.2359     -0.3778     -3.5399     -2.0512       97.96
         2        -1.7066     -1.1980      0.8166     -0.6960       95.12
         3         2.6474     -0.0342      2.0121      1.5418       68.40
         4         0.0172      4.5486      5.4230      3.3296       87.64
         5         3.4363      6.6768      2.0995      4.0709       76.49
         6        -2.9054     -0.8782     -1.6374     -1.8070      119.36
         7        -0.8002     -9.2930     -3.7805     -4.6246      160.05
         8        -1.2750      2.8498     -0.2034      0.4571       84.44
         9         4.2297     -0.9682      1.9803      1.7473       78.51
        10        -0.1434      3.2492      4.8843      2.6634       49.65
        11         1.5897      0.6478      0.4219      0.8865       43.16
        12         0.3752      0.1783     -0.0294      0.1747       85.50
        13        -0.6506     -0.2393      0.3219     -0.1893       93.56
        14         0.5194     -0.5580     -0.2516     -0.0967       96.83
        15        -0.1906     -0.1308     -0.3580     -0.2265      108.02
 1/2[<0|r|b>*<b|rxdel|0> + (<0|rxdel|b>*<b|r|0>)*]
 Rotatory Strengths (R) in cgs (10**-40 erg-esu-cm/Gauss)
       state          XX          YY          ZZ     R(length)
         1       -20.5340      4.5635      3.0147     -4.3186
         2       -24.2861      0.6243      0.6557     -7.6687
         3         0.5262    -18.7030      0.7991     -5.7926
         4        50.4301      1.0264     -1.3844     16.6907
         5        29.2076      4.6292      0.2295     11.3554
         6        -3.2067      1.3459     -2.0375     -1.2994
         7       -40.7170     -0.3778      2.9933    -12.7005
         8         0.2145     32.9512     -0.9496     10.7387
         9         5.9851     42.1873      3.0453     17.0726
        10        12.1234      6.6269      0.2155      6.3219
        11         0.0730      3.4616      1.2054      1.5800
        12        -0.9682     -3.6807     -0.8493     -1.8328
        13         0.6030     -8.8241     -0.3657     -2.8622
        14        -1.4787     -0.1899      0.0320     -0.5455
        15        -0.2064     -5.0880     -0.0865     -1.7936
  1/2[<0|del|b>*<b|r|0> + (<0|r|b>*<b|del|0>)*] (Au)
       state          X           Y           Z        Dip. S.   Osc.(frdel)
         1        -0.0044      0.0087      0.0000     -0.0042     -0.0028
         2        -0.0060     -0.0004      0.0000      0.0064      0.0043
         3         0.0000      0.0002     -0.0004      0.0002      0.0001
         4        -0.0002      0.0000     -0.0093      0.0095      0.0063
         5        -0.0613     -0.0015      0.0000      0.0628      0.0419
         6        -0.0002      0.0000     -0.0015      0.0016      0.0011
         7        -0.0090      0.0001      0.0002      0.0088      0.0058
         8         0.0000     -0.0356     -0.0014      0.0370      0.0247
         9         0.0001     -0.0242     -0.0048      0.0289      0.0192
        10        -0.0008     -0.0081      0.0000      0.0089      0.0059
        11         0.0000     -0.0004     -0.0004      0.0007      0.0005
        12        -0.0001     -0.0004      0.0012     -0.0007     -0.0004
        13         0.0000     -0.0040      0.0031      0.0009      0.0006
        14        -0.0002      0.0000      0.0001      0.0002      0.0001
        15         0.0000     -0.0001      0.0000      0.0000      0.0000

 Excitation energies and oscillator strengths:
 
 Excited State   1:      Singlet-A      7.3808 eV  167.98 nm  f=0.0651  <S**2>=0.000
      17 -> 19         0.42032
      18 -> 19         0.40495
      18 -> 20        -0.37322
 This state for optimization and/or second-order correction.
 Total Energy, E(CIS) =  -228.470423356    
 Copying the excited state density for this state as the 1-particle RhoCI density.
 
 Excited State   2:      Singlet-A      7.6274 eV  162.55 nm  f=0.1536  <S**2>=0.000
      17 -> 19        -0.33206
      18 -> 19         0.54900
      18 -> 20         0.25012
 
 Excited State   3:      Singlet-A      8.7114 eV  142.32 nm  f=0.0010  <S**2>=0.000
      18 -> 21         0.69686
 
 Excited State   4:      Singlet-A      8.7463 eV  141.76 nm  f=0.0041  <S**2>=0.000
      16 -> 19         0.70096
 
 Excited State   5:      Singlet-A      9.5307 eV  130.09 nm  f=0.1535  <S**2>=0.000
      17 -> 20         0.62269
      17 -> 21         0.19060
      18 -> 20         0.16896
 
 Excited State   6:      Singlet-A      9.6237 eV  128.83 nm  f=0.0011  <S**2>=0.000
      17 -> 21         0.31291
      18 -> 22         0.56842
      18 -> 23        -0.24274
 
 Excited State   7:      Singlet-A      9.7015 eV  127.80 nm  f=0.0199  <S**2>=0.000
      17 -> 20        -0.18097
      17 -> 21         0.56206
      18 -> 22        -0.35703
 
 Excited State   8:      Singlet-A      9.8961 eV  125.29 nm  f=0.2686  <S**2>=0.000
      15 -> 19        -0.17372
      17 -> 19        -0.29531
      17 -> 20         0.15570
      17 -> 21         0.12568
      17 -> 22        -0.12246
      18 -> 20        -0.35435
      18 -> 22         0.11657
      18 -> 23         0.37638
 
 Excited State   9:      Singlet-A     10.0075 eV  123.89 nm  f=0.1798  <S**2>=0.000
      15 -> 19         0.48133
      17 -> 19        -0.23020
      18 -> 20        -0.27725
      18 -> 23        -0.28983
 
 Excited State  10:      Singlet-A     10.1287 eV  122.41 nm  f=0.0501  <S**2>=0.000
      15 -> 19         0.46601
      17 -> 19         0.11554
      17 -> 21         0.13447
      18 -> 20         0.13227
      18 -> 23         0.44127
 
 Excited State  11:      Singlet-A     10.4128 eV  119.07 nm  f=0.0018  <S**2>=0.000
      14 -> 19        -0.41233
      16 -> 20         0.54743
      18 -> 24         0.12740
 
 Excited State  12:      Singlet-A     10.4680 eV  118.44 nm  f=0.0019  <S**2>=0.000
      15 -> 19        -0.11845
      17 -> 22        -0.12774
      18 -> 24         0.66587
 
 Excited State  13:      Singlet-A     10.6004 eV  116.96 nm  f=0.0214  <S**2>=0.000
      17 -> 22         0.66162
      18 -> 24         0.12704
 
 Excited State  14:      Singlet-A     10.8298 eV  114.48 nm  f=0.0003  <S**2>=0.000
      14 -> 19         0.53460
      16 -> 20         0.41714
 
 Excited State  15:      Singlet-A     11.0057 eV  112.65 nm  f=0.0003  <S**2>=0.000
      17 -> 23         0.64393
      17 -> 24         0.10964
      17 -> 25        -0.11592
      18 -> 25        -0.18167
 SavETr:  write IOETrn=   770 NScale= 10 NData=  16 NLR=1 NState=   15 LETran=     280.
 The selected state is a singlet
 CISAX will form     1 AO SS matrices at one time.
 NMat=     1 NSing=     1 JSym2X= 0.
 CISAX will form     1 AO SS matrices at one time.
 NMat=     1 NSing=     1 JSym2X= 0.
 Leave Link  914 at Tue Dec 15 16:30:16 2015, MaxMem=    33554432 cpu:        27.5
 (Enter /home/Applications/g09/g09/l1002.exe)
 Minotr:  Closed shell wavefunction.
          Computing CIS/TD-HF/TD-KS derivatives.
          Using Z-Vector for PSCF gradient.
          Skipping F1 and S1 gradient terms here.
          IDoAtm=111111111
          Frozen-core window.
          Direct CPHF calculation.
          Differentiating once with respect to electric field.
                with respect to dipole field.
          Differentiating once with respect to nuclear coordinates.
          Requested convergence is 1.0D-10 RMS, and 1.0D-09 maximum.
          NewPWx=F KeepS1=T KeepF1=T KeepIn=T MapXYZ=F SortEE=F KeepMc=T.
          MDV=      33554290 using IRadAn=       0.
 Using stored XC quadrature information.
 Keep R1 ints in memory in canonical form, NReq=1898913.
 FoFCou: FMM=F IPFlag=           0 FMFlag=           0 FMFlg1=           0
         NFxFlg=           0 DoJE=F BraDBF=F KetDBF=F FulRan=T
         wScrn=  0.000000 ICntrl=     600 IOpCl=  0 I1Cent=           0 NGrid=           0
         NMat0=    1 NMatS0=   1431 NMatT0=    0 NMatD0=    1 NMtDS0=    0 NMtDT0=    0
 Symmetry not used in FoFCou.
          Solving linear equations separately, MaxMat=       0.
          There are     1 degrees of freedom in the 1st order CPHF.  IDoFFX=0 NUNeed=     1.
 LinEq1:  Iter=  0 NonCon=     1 RMS=4.07D-02 Max=5.75D-01 NDo=     1
 AX will form     1 AO Fock derivatives at one time.
 LinEq1:  Iter=  1 NonCon=     1 RMS=1.33D-02 Max=1.74D-01 NDo=     1
 LinEq1:  Iter=  2 NonCon=     1 RMS=9.71D-03 Max=1.10D-01 NDo=     1
 LinEq1:  Iter=  3 NonCon=     1 RMS=4.62D-03 Max=5.36D-02 NDo=     1
 LinEq1:  Iter=  4 NonCon=     1 RMS=3.50D-03 Max=3.32D-02 NDo=     1
 LinEq1:  Iter=  5 NonCon=     1 RMS=7.77D-04 Max=6.27D-03 NDo=     1
 LinEq1:  Iter=  6 NonCon=     1 RMS=3.40D-04 Max=3.34D-03 NDo=     1
 LinEq1:  Iter=  7 NonCon=     1 RMS=1.05D-04 Max=1.15D-03 NDo=     1
 LinEq1:  Iter=  8 NonCon=     1 RMS=7.19D-05 Max=6.92D-04 NDo=     1
 LinEq1:  Iter=  9 NonCon=     1 RMS=8.75D-06 Max=5.51D-05 NDo=     1
 LinEq1:  Iter= 10 NonCon=     1 RMS=8.35D-07 Max=6.15D-06 NDo=     1
 LinEq1:  Iter= 11 NonCon=     1 RMS=8.39D-08 Max=6.25D-07 NDo=     1
 LinEq1:  Iter= 12 NonCon=     1 RMS=1.08D-08 Max=7.26D-08 NDo=     1
 LinEq1:  Iter= 13 NonCon=     1 RMS=1.11D-09 Max=8.40D-09 NDo=     1
 LinEq1:  Iter= 14 NonCon=     1 RMS=1.13D-10 Max=5.31D-10 NDo=     1
 LinEq1:  Iter= 15 NonCon=     0 RMS=1.56D-11 Max=1.02D-10 NDo=     1
 Linear equations converged to 1.000D-10 1.000D-09 after    15 iterations.
 End of Minotr F.D. properties file   721 does not exist.
 End of Minotr F.D. properties file   722 does not exist.
 End of Minotr F.D. properties file   788 does not exist.
 Leave Link 1002 at Tue Dec 15 16:30:30 2015, MaxMem=    33554432 cpu:        14.4
 (Enter /home/Applications/g09/g09/l601.exe)
 Copying SCF densities to generalized density rwf, IOpCl= 0 IROHF=0.

 **********************************************************************

            Population analysis using the SCF density.

 **********************************************************************

 Orbital symmetries:
       Occupied  (A) (A) (A) (A) (A) (A) (A) (A) (A) (A) (A) (A)
                 (A) (A) (A) (A) (A) (A)
       Virtual   (A) (A) (A) (A) (A) (A) (A) (A) (A) (A) (A) (A)
                 (A) (A) (A) (A) (A) (A) (A) (A) (A) (A) (A) (A)
                 (A) (A) (A) (A) (A) (A) (A) (A) (A) (A) (A)
 The electronic state is 1-A.
 Alpha  occ. eigenvalues --  -19.10315 -10.16889 -10.16834 -10.12403 -10.12239
 Alpha  occ. eigenvalues --   -1.12171  -0.80418  -0.75750  -0.60037  -0.58177
 Alpha  occ. eigenvalues --   -0.53838  -0.45860  -0.44581  -0.41796  -0.39714
 Alpha  occ. eigenvalues --   -0.35410  -0.27498  -0.23854
 Alpha virt. eigenvalues --    0.02674   0.08612   0.12970   0.15823   0.17799
 Alpha virt. eigenvalues --    0.18462   0.21532   0.23776   0.37419   0.42301
 Alpha virt. eigenvalues --    0.48316   0.68055   0.69868   0.70114   0.76043
 Alpha virt. eigenvalues --    0.76751   0.79200   0.80916   0.82016   0.84099
 Alpha virt. eigenvalues --    0.91771   0.97868   1.03284   1.04054   1.18274
 Alpha virt. eigenvalues --    1.24439   1.34636   1.36545   1.50904   1.55683
 Alpha virt. eigenvalues --    1.63527   1.75126   1.97266   2.13650   3.18330
     Molecular Orbital Coefficients:
                           1         2         3         4         5
                           O         O         O         O         O
     Eigenvalues --   -19.10315 -10.16889 -10.16834 -10.12403 -10.12239
   1 1   C  1S          0.00016   0.00443  -0.01014  -0.37936   0.91013
   2        2S          0.00060   0.00249  -0.00501  -0.04581   0.10033
   3        2PX         0.00110  -0.00076   0.00097  -0.00121   0.00089
   4        2PY         0.00082  -0.00086   0.00282   0.00110  -0.00155
   5        2PZ        -0.00002  -0.00001   0.00000  -0.00001   0.00000
   6        3S         -0.00762  -0.03227   0.02308   0.07226  -0.08412
   7        3PX        -0.00614  -0.00099  -0.00495   0.02465  -0.01010
   8        3PY         0.00820   0.01940  -0.01137  -0.01926   0.02312
   9        3PZ         0.00014   0.00015   0.00016   0.00022  -0.00012
  10 2   C  1S         -0.00040  -0.45205   0.87551  -0.00347   0.01015
  11        2S         -0.00055  -0.05189   0.09357   0.00081  -0.00372
  12        2PX         0.00194  -0.00211   0.00139   0.00024  -0.00088
  13        2PY        -0.00167  -0.00024  -0.00056  -0.00002  -0.00259
  14        2PZ         0.00006   0.00001   0.00022  -0.00007   0.00006
  15        3S          0.01988   0.04902  -0.05892  -0.02368   0.03688
  16        3PX         0.01812   0.01873   0.00192  -0.00855   0.01468
  17        3PY         0.00048   0.01822  -0.00905  -0.00860   0.01932
  18        3PZ        -0.00025  -0.00052  -0.00078   0.00023  -0.00031
  19 3   O  1S          0.98279   0.00003   0.00035   0.00004   0.00009
  20        2S          0.10788   0.00063   0.00234   0.00012   0.00033
  21        2PX        -0.00033   0.00087  -0.00001   0.00003  -0.00001
  22        2PY         0.00425   0.00053   0.00085  -0.00008  -0.00013
  23        2PZ        -0.00011  -0.00004  -0.00006  -0.00003  -0.00002
  24        3S         -0.06123   0.00044  -0.00022  -0.00192  -0.00497
  25        3PX         0.00157  -0.00079   0.00149  -0.00290   0.00137
  26        3PY        -0.01392  -0.00120  -0.00469  -0.00069  -0.00221
  27        3PZ         0.00031   0.00018   0.00031   0.00012   0.00010
  28 4   C  1S         -0.00052   0.87607   0.45115   0.00902   0.00455
  29        2S         -0.00096   0.09648   0.04614  -0.00366  -0.00206
  30        2PX        -0.00178  -0.00263   0.00003   0.00118   0.00063
  31        2PY        -0.00158   0.00022  -0.00051  -0.00207  -0.00199
  32        2PZ         0.00004   0.00012   0.00012  -0.00001  -0.00001
  33        3S          0.01637  -0.07721  -0.02235   0.04318   0.00842
  34        3PX        -0.01456   0.01799  -0.00886  -0.01901  -0.00233
  35        3PY         0.00083  -0.02130   0.00245   0.02001   0.00687
  36        3PZ         0.00012  -0.00058  -0.00051   0.00022  -0.00003
  37 5   C  1S          0.00011  -0.00897  -0.00552   0.91030   0.37882
  38        2S          0.00040  -0.00534  -0.00318   0.10318   0.03885
  39        2PX        -0.00106  -0.00141  -0.00054  -0.00137   0.00048
  40        2PY         0.00096   0.00246   0.00200  -0.00189  -0.00036
  41        2PZ         0.00000   0.00006   0.00001  -0.00010  -0.00003
  42        3S         -0.00565   0.04469   0.00420  -0.11178  -0.00596
  43        3PX         0.00331   0.00335   0.00188   0.02234  -0.01322
  44        3PY         0.00639  -0.02353  -0.00116   0.02968   0.00126
  45        3PZ         0.00010  -0.00061   0.00021   0.00109   0.00001
  46 6   H  1S         -0.00077  -0.00085  -0.00070  -0.00291  -0.00132
  47        2S         -0.00200   0.00238   0.00057   0.00263   0.00599
  48 7   H  1S          0.00025  -0.00434  -0.00063  -0.00007  -0.00024
  49        2S          0.00397   0.00396   0.01098   0.00629   0.00206
  50 8   H  1S          0.00032   0.00324  -0.00315   0.00025  -0.00035
  51        2S          0.00512   0.00277   0.01381  -0.00161   0.00610
  52 9   H  1S         -0.00101  -0.00014  -0.00110   0.00106  -0.00328
  53        2S         -0.00333  -0.00254   0.00067   0.00211   0.00485
                           6         7         8         9        10
                           O         O         O         O         O
     Eigenvalues --    -1.12171  -0.80418  -0.75750  -0.60037  -0.58177
   1 1   C  1S         -0.02998   0.13450  -0.09169  -0.10719   0.02586
   2        2S          0.02975  -0.14369   0.09945   0.10932  -0.02521
   3        2PX         0.01098  -0.06332  -0.04523  -0.07457  -0.14305
   4        2PY        -0.03638   0.05336  -0.08061  -0.01906  -0.07786
   5        2PZ         0.00024  -0.00071   0.00064  -0.00149   0.00186
   6        3S          0.05876  -0.27125   0.17618   0.36227  -0.07792
   7        3PX         0.03024  -0.01776   0.01965  -0.01095  -0.05974
   8        3PY        -0.04214   0.03367   0.00689  -0.04123  -0.01760
   9        3PZ        -0.00046  -0.00081   0.00059  -0.00005   0.00013
  10 2   C  1S         -0.08330   0.03518  -0.15123   0.03184  -0.10093
  11        2S          0.09261  -0.04360   0.16512  -0.03176   0.11197
  12        2PX         0.09194   0.00077   0.01746  -0.01109  -0.18745
  13        2PY        -0.03365  -0.13322   0.02196   0.22281   0.00965
  14        2PZ         0.00100  -0.00001   0.00515  -0.00639   0.01278
  15        3S          0.06139  -0.03714   0.35914  -0.13746   0.31260
  16        3PX        -0.05098  -0.00986   0.02107  -0.01108  -0.10423
  17        3PY        -0.01429  -0.03032   0.04675   0.06034   0.00198
  18        3PZ         0.00207   0.00044   0.00213  -0.00314   0.00957
  19 3   O  1S         -0.20890  -0.09287   0.01871  -0.00958   0.03913
  20        2S          0.18924   0.08959  -0.01696   0.00810  -0.03945
  21        2PX        -0.01579  -0.03205  -0.19650   0.25750   0.03953
  22        2PY         0.11083  -0.02308   0.00336   0.00850  -0.03991
  23        2PZ        -0.00164  -0.00088   0.00097  -0.00335   0.00703
  24        3S          0.66689   0.33506  -0.06979   0.04008  -0.17284
  25        3PX        -0.01487  -0.02647  -0.16205   0.22649   0.03340
  26        3PY         0.14232  -0.00477  -0.00315   0.01069  -0.04006
  27        3PZ        -0.00260  -0.00065   0.00104  -0.00302   0.00540
  28 4   C  1S         -0.06886   0.07646   0.14039  -0.00332  -0.10673
  29        2S          0.07820  -0.08856  -0.15006  -0.00284   0.11637
  30        2PX        -0.07616   0.02179   0.02717  -0.04895   0.15211
  31        2PY        -0.02251  -0.12576   0.00546  -0.21847  -0.04815
  32        2PZ         0.00142  -0.00236  -0.00481  -0.00098   0.00825
  33        3S          0.05520  -0.12169  -0.35280   0.06741   0.34510
  34        3PX         0.03727   0.01071   0.02783  -0.04665   0.07898
  35        3PY        -0.01818  -0.03672  -0.03388  -0.05937  -0.01404
  36        3PZ         0.00060  -0.00124  -0.00294  -0.00031   0.00637
  37 5   C  1S         -0.03021   0.15391   0.05370   0.10158   0.05248
  38        2S          0.03020  -0.16479  -0.05922  -0.10404  -0.05096
  39        2PX        -0.01008   0.04397  -0.07344  -0.13226   0.11863
  40        2PY        -0.03648   0.07344   0.07143   0.02430  -0.06800
  41        2PZ        -0.00051   0.00283   0.00089   0.00035   0.00263
  42        3S          0.05666  -0.31022  -0.09113  -0.35287  -0.17775
  43        3PX        -0.01882   0.02317   0.01283  -0.04155   0.05733
  44        3PY        -0.03827   0.03558  -0.01243   0.03620  -0.00023
  45        3PZ        -0.00102   0.00179  -0.00009   0.00092   0.00160
  46 6   H  1S          0.00702  -0.05776  -0.02693  -0.10217  -0.03287
  47        2S          0.01142  -0.01417  -0.00532  -0.05539  -0.02567
  48 7   H  1S          0.01294  -0.02591  -0.08416   0.02823   0.17257
  49        2S         -0.02350  -0.00503  -0.03098   0.02955   0.08397
  50 8   H  1S          0.01719  -0.00765   0.09469  -0.06937   0.17505
  51        2S         -0.03034  -0.00294   0.03225  -0.04084   0.07610
  52 9   H  1S          0.00754  -0.04898   0.03963   0.09208  -0.01344
  53        2S          0.01648  -0.01187   0.00785   0.05442  -0.01166
                          11        12        13        14        15
                           O         O         O         O         O
     Eigenvalues --    -0.53838  -0.45860  -0.44581  -0.41796  -0.39714
   1 1   C  1S         -0.05595  -0.03470  -0.00463   0.02161   0.00713
   2        2S          0.05125   0.03908   0.00594  -0.01808  -0.00852
   3        2PX        -0.02151  -0.00117   0.01766   0.07210  -0.34021
   4        2PY         0.22837  -0.02540  -0.00483  -0.26149  -0.02732
   5        2PZ         0.00231  -0.01787   0.12067   0.00178   0.00007
   6        3S          0.24933   0.10166   0.00723  -0.09205  -0.03723
   7        3PX        -0.02970   0.01050   0.01087   0.08300  -0.20941
   8        3PY         0.11039   0.00682  -0.00047  -0.15838   0.01864
   9        3PZ         0.00079  -0.01131   0.08606   0.00178   0.00122
  10 2   C  1S          0.03102   0.00966   0.00536  -0.03902  -0.00433
  11        2S         -0.03702  -0.00564  -0.00603   0.04600   0.00663
  12        2PX        -0.11540   0.28157   0.04154   0.03037   0.08391
  13        2PY        -0.10142   0.02943   0.00342   0.18085   0.15250
  14        2PZ         0.00538  -0.03931   0.20136  -0.00479  -0.00091
  15        3S         -0.07616  -0.03631  -0.01361   0.13471   0.03353
  16        3PX        -0.08367   0.17204   0.02351   0.02464   0.05945
  17        3PY        -0.10764   0.03811   0.00374   0.10718   0.12669
  18        3PZ         0.00524  -0.03294   0.18593  -0.00367   0.00250
  19 3   O  1S         -0.05823   0.01068   0.00129  -0.00460  -0.01803
  20        2S          0.05777  -0.00899  -0.00090   0.00403   0.01359
  21        2PX         0.00621  -0.24748  -0.02844   0.11011   0.00819
  22        2PY        -0.17418   0.03034   0.01122  -0.01368   0.08082
  23        2PZ         0.00469  -0.04465   0.36625  -0.00639   0.01920
  24        3S          0.22770  -0.04260  -0.00457   0.01883   0.10190
  25        3PX         0.00456  -0.23020  -0.02543   0.11388   0.00715
  26        3PY        -0.15990   0.02626   0.01168  -0.01385   0.08210
  27        3PZ         0.00418  -0.04432   0.36858  -0.00655   0.01994
  28 4   C  1S          0.02448  -0.02297   0.00144   0.04672   0.00403
  29        2S         -0.03057   0.02348  -0.00198  -0.05646  -0.00272
  30        2PX         0.11609   0.28441   0.03415   0.05582  -0.06268
  31        2PY        -0.09937  -0.05494  -0.01445  -0.18870   0.11849
  32        2PZ         0.00221  -0.01500   0.18150  -0.00104   0.01159
  33        3S         -0.04864   0.06970  -0.00876  -0.15909   0.00366
  34        3PX         0.07587   0.18927   0.03027   0.03900  -0.05319
  35        3PY        -0.09930  -0.03053  -0.01050  -0.12580   0.09884
  36        3PZ         0.00228  -0.01469   0.16999  -0.00144   0.01133
  37 5   C  1S         -0.04715   0.03788   0.00361  -0.02517   0.01903
  38        2S          0.04444  -0.04202  -0.00499   0.02062  -0.02051
  39        2PX         0.01305  -0.00849  -0.02076   0.02792   0.34247
  40        2PY         0.21998   0.03973   0.00430   0.27182   0.01043
  41        2PZ         0.00496  -0.01175   0.12030   0.00866   0.01131
  42        3S          0.19982  -0.11874  -0.00592   0.12020  -0.08910
  43        3PX         0.04462  -0.00067  -0.01914   0.06332   0.23227
  44        3PY         0.11808   0.00007  -0.00930   0.15511   0.04344
  45        3PZ         0.00227  -0.00973   0.08845   0.00550   0.00992
  46 6   H  1S          0.13091  -0.02317  -0.00811   0.18957   0.12990
  47        2S          0.07291  -0.00635  -0.00122   0.16603   0.11531
  48 7   H  1S          0.05245   0.20740   0.02831   0.03127  -0.09563
  49        2S          0.02156   0.15274   0.01741   0.03295  -0.08236
  50 8   H  1S          0.04583  -0.18736  -0.02226  -0.02194  -0.10803
  51        2S          0.01254  -0.13436  -0.02135  -0.02564  -0.09272
  52 9   H  1S          0.14647   0.02672  -0.00346  -0.19861   0.11328
  53        2S          0.08848   0.01376  -0.00352  -0.17280   0.10562
                          16        17        18        19        20
                           O         O         O         V         V
     Eigenvalues --    -0.35410  -0.27498  -0.23854   0.02674   0.08612
   1 1   C  1S          0.03094   0.00034   0.00131  -0.00233  -0.00119
   2        2S         -0.03096   0.00003  -0.00224   0.00410   0.00255
   3        2PX         0.01567   0.00380   0.00727   0.00319   0.00487
   4        2PY         0.16085   0.00021   0.00599  -0.00612  -0.00930
   5        2PZ         0.00423  -0.24742  -0.24449  -0.16412  -0.33754
   6        3S         -0.20100  -0.00670   0.00298   0.00057  -0.01117
   7        3PX         0.04580   0.00351   0.00751   0.00975   0.00476
   8        3PY         0.12908   0.00164  -0.00386   0.00910  -0.00196
   9        3PZ         0.00348  -0.26023  -0.25872  -0.29264  -0.68286
  10 2   C  1S         -0.02109  -0.00093  -0.00409   0.00732   0.00563
  11        2S          0.02677   0.00095   0.00456  -0.00475  -0.00523
  12        2PX         0.02363   0.00073  -0.01493   0.01418   0.01917
  13        2PY        -0.17411   0.00012  -0.01269   0.01300   0.00390
  14        2PZ         0.00661  -0.00935  -0.31973   0.32473   0.22014
  15        3S          0.08759   0.00668   0.01085  -0.05443  -0.05022
  16        3PX         0.00255   0.00033  -0.02079   0.04416   0.06529
  17        3PY         0.02636   0.00289  -0.01442   0.03702   0.01217
  18        3PZ         0.00176   0.03213  -0.32612   0.49944   0.43384
  19 3   O  1S          0.06653   0.00018   0.00155  -0.00394   0.00343
  20        2S         -0.06729  -0.00041  -0.00136   0.00450  -0.00191
  21        2PX         0.02228   0.00298   0.00579   0.00235  -0.00761
  22        2PY         0.43823   0.01027   0.00320   0.00119  -0.00969
  23        2PZ        -0.01338   0.31821   0.06134  -0.28355  -0.01284
  24        3S         -0.24365   0.00083  -0.00805   0.02076  -0.03087
  25        3PX         0.02460   0.00441   0.00280   0.00375  -0.00680
  26        3PY         0.47378   0.01158   0.00376  -0.00193  -0.01665
  27        3PZ        -0.01476   0.35986   0.07476  -0.40028  -0.02124
  28 4   C  1S         -0.01568  -0.00084   0.00316   0.00920  -0.00470
  29        2S          0.01948   0.00051  -0.00403  -0.00633   0.00349
  30        2PX        -0.05572   0.00247  -0.00845   0.00000   0.00330
  31        2PY        -0.17997  -0.00506  -0.00271   0.00830  -0.01079
  32        2PZ        -0.00237  -0.13071   0.31482   0.31554  -0.21410
  33        3S          0.07821   0.00351  -0.00562  -0.07589   0.02377
  34        3PX        -0.03191   0.00462  -0.01482  -0.01429   0.03011
  35        3PY         0.00854  -0.00105   0.00298   0.01499  -0.03848
  36        3PZ        -0.00369  -0.08482   0.34190   0.48860  -0.44347
  37 5   C  1S          0.02137   0.00181  -0.00225   0.00062   0.00349
  38        2S         -0.02375  -0.00271   0.00325   0.00155  -0.00558
  39        2PX        -0.01556   0.00270  -0.00625   0.00827  -0.00107
  40        2PY         0.16148   0.01418  -0.00497  -0.00368  -0.00873
  41        2PZ         0.00565  -0.31061   0.14483  -0.17801   0.33862
  42        3S         -0.13800  -0.00522  -0.00052  -0.01518   0.00324
  43        3PX        -0.06662  -0.00172  -0.00606   0.02341  -0.00689
  44        3PY         0.11424   0.00909   0.00387  -0.00169  -0.04719
  45        3PZ         0.00558  -0.32010   0.14470  -0.32299   0.68551
  46 6   H  1S          0.07285   0.00398  -0.00120   0.00128   0.00554
  47        2S          0.10495   0.00753  -0.00408   0.00266   0.04066
  48 7   H  1S          0.04805   0.00068   0.00266   0.01197  -0.00988
  49        2S          0.05300   0.00091   0.00442   0.04636  -0.04854
  50 8   H  1S          0.08104   0.00139   0.00146   0.01660   0.01375
  51        2S          0.08527   0.00084   0.00159   0.06057   0.07179
  52 9   H  1S          0.06199  -0.00168  -0.00111   0.00173   0.00530
  53        2S          0.08654  -0.00193   0.00121   0.00157   0.02225
                          21        22        23        24        25
                           V         V         V         V         V
     Eigenvalues --     0.12970   0.15823   0.17799   0.18462   0.21532
   1 1   C  1S          0.05866  -0.00226  -0.00058  -0.11367   0.00317
   2        2S         -0.03707   0.00958  -0.00729   0.09230  -0.01514
   3        2PX         0.06587   0.06231  -0.19050  -0.01988   0.18468
   4        2PY        -0.16253  -0.01896   0.10015   0.13263   0.05742
   5        2PZ         0.01463   0.00419  -0.01243   0.00655  -0.00622
   6        3S         -0.62034  -0.15813   0.21087   1.02874   0.09672
   7        3PX         0.18776   0.11305  -0.59757  -0.32518   1.00469
   8        3PY        -0.53041   0.04213   0.19165   0.76203   0.17185
   9        3PZ         0.03387   0.02352  -0.04749   0.02228  -0.03033
  10 2   C  1S         -0.00106   0.08409  -0.00567   0.04728  -0.11228
  11        2S          0.00774  -0.06171  -0.00257  -0.05313   0.07647
  12        2PX         0.10938   0.01868  -0.20620   0.01299  -0.14133
  13        2PY        -0.03348   0.13957  -0.05903  -0.03379  -0.06662
  14        2PZ        -0.01143  -0.02610   0.02365  -0.01150   0.02226
  15        3S         -0.23362  -0.89916   0.31772  -0.25293   1.63210
  16        3PX         0.17408   0.29473  -0.68256   0.37431  -0.65800
  17        3PY        -0.22228   0.54699  -0.22944   0.01254  -0.13794
  18        3PZ        -0.02890  -0.07718   0.07239  -0.03764   0.07922
  19 3   O  1S          0.05977  -0.09158   0.00485  -0.00358  -0.02993
  20        2S         -0.04133   0.06406  -0.00120   0.00171   0.01146
  21        2PX        -0.03008   0.07894  -0.12399  -0.02442   0.22969
  22        2PY        -0.14362   0.11618   0.00745   0.00525   0.01679
  23        2PZ         0.00567   0.01286  -0.00228   0.00162  -0.00522
  24        3S         -0.49389   0.75469  -0.04874   0.03311   0.32102
  25        3PX        -0.04620   0.13451  -0.24312   0.03416   0.45277
  26        3PY        -0.25046   0.18057  -0.00006   0.01147   0.08846
  27        3PZ         0.01045   0.02344  -0.00411   0.00268  -0.01405
  28 4   C  1S          0.00277   0.12304   0.03431  -0.03515   0.04724
  29        2S          0.00268  -0.09381  -0.01459   0.04206  -0.04399
  30        2PX        -0.17961   0.03869  -0.28734   0.00963   0.10495
  31        2PY        -0.06452   0.21343   0.01460   0.02151   0.17016
  32        2PZ         0.00293  -0.02528  -0.01635   0.00764  -0.00827
  33        3S         -0.25800  -1.20875  -0.66959   0.12149  -0.38843
  34        3PX        -0.35305  -0.17947  -0.92949   0.40975   0.17919
  35        3PY        -0.16683   0.66863   0.14518   0.01054   0.56155
  36        3PZ         0.00402  -0.06413  -0.05009   0.01765  -0.02452
  37 5   C  1S          0.04662  -0.00259  -0.04174   0.11366   0.06703
  38        2S         -0.02573   0.01891   0.03237  -0.09001  -0.01319
  39        2PX        -0.08899  -0.00659  -0.08562  -0.04859   0.00261
  40        2PY        -0.17810  -0.03695  -0.06237  -0.14555  -0.08532
  41        2PZ        -0.01514   0.01247   0.00562  -0.00587   0.00658
  42        3S         -0.57157  -0.23750   0.32681  -1.05729  -1.31745
  43        3PX        -0.29126   0.09393  -0.31406  -0.37620   0.31195
  44        3PY        -0.45040   0.00953  -0.05404  -0.82954  -0.18071
  45        3PZ        -0.03615   0.03777   0.02998  -0.02940   0.03489
  46 6   H  1S          0.10507  -0.02725   0.03016   0.05656  -0.04671
  47        2S          1.07565  -0.01602   0.17889   1.44263   0.45816
  48 7   H  1S          0.02648   0.07340   0.06851  -0.03080  -0.02564
  49        2S          0.44968   1.24643   1.39353  -0.43812   0.30499
  50 8   H  1S          0.00501   0.08115  -0.05711   0.02806   0.02785
  51        2S          0.21927   1.14679  -1.04990   0.51695  -1.51857
  52 9   H  1S          0.09941  -0.00459  -0.04145  -0.05298   0.01932
  53        2S          1.06698   0.10741  -0.72215  -1.34171   0.39707
                          26        27        28        29        30
                           V         V         V         V         V
     Eigenvalues --     0.23776   0.37419   0.42301   0.48316   0.68055
   1 1   C  1S         -0.07972  -0.06718   0.00566  -0.12980   0.04244
   2        2S          0.01808   0.01728  -0.02796   0.02824  -0.10315
   3        2PX        -0.02148   0.04796  -0.24573   0.11870   0.21908
   4        2PY         0.05772  -0.11167  -0.13872  -0.20481   0.27742
   5        2PZ         0.00570   0.00146  -0.00699   0.00939  -0.05204
   6        3S          1.55972   1.43967   0.43440   3.30948  -0.51998
   7        3PX         0.25087  -0.45277  -1.30151   1.53383  -0.28980
   8        3PY         0.08140  -1.56327  -1.23885  -2.07785   0.28231
   9        3PZ         0.01881  -0.00501  -0.02941   0.00722   0.01740
  10 2   C  1S         -0.03707   0.07816   0.01305   0.10544  -0.05614
  11        2S          0.03294   0.00012  -0.01774  -0.01406  -0.02088
  12        2PX         0.22387  -0.12770   0.07326  -0.26103   0.22827
  13        2PY        -0.16498  -0.25278  -0.11805   0.13266  -0.17734
  14        2PZ        -0.00591   0.00928   0.00877   0.01840  -0.08740
  15        3S          0.11131  -1.67212  -0.85798  -2.20684   0.57148
  16        3PX         0.66797  -0.90176   0.38765  -1.45139   0.12167
  17        3PY        -0.71458  -1.31928  -1.62522  -1.42907   0.64224
  18        3PZ        -0.01338   0.02044   0.02522   0.01600   0.08948
  19 3   O  1S          0.07948  -0.04920   0.01848  -0.01375   0.02660
  20        2S         -0.03632   0.01775  -0.00669   0.00452  -0.08778
  21        2PX         0.18591   0.04947   0.23405  -0.21792  -0.02986
  22        2PY        -0.04992   0.14569  -0.01234   0.02028  -0.19976
  23        2PZ         0.00671  -0.00235  -0.00551   0.00228  -0.01456
  24        3S         -0.84600   0.64936  -0.26224   0.18522   0.21362
  25        3PX         0.38928   0.11206   0.61458  -0.39516   0.09970
  26        3PY        -0.19385   0.47272  -0.07374   0.09303  -0.10402
  27        3PZ         0.01473  -0.00621  -0.00762  -0.00047  -0.02474
  28 4   C  1S          0.06470   0.08381  -0.03810  -0.08993  -0.03494
[...]
     7  H    0.002698   0.003103  -0.024410   0.391466  -0.038931  -0.000553
     8  H   -0.046397   0.394001  -0.031941   0.004141   0.003561  -0.000023
     9  H    0.377153  -0.024277   0.002081   0.004685  -0.027762  -0.000903
               7          8          9
     1  C    0.002698  -0.046397   0.377153
     2  C    0.003103   0.394001  -0.024277
     3  O   -0.024410  -0.031941   0.002081
     4  C    0.391466   0.004141   0.004685
     5  C   -0.038931   0.003561  -0.027762
     6  H   -0.000553  -0.000023  -0.000903
     7  H    0.445439  -0.000042  -0.000026
     8  H   -0.000042   0.453400  -0.000542
     9  H   -0.000026  -0.000542   0.486180
 Mulliken charges:
               1
     1  C   -0.256809
     2  C    0.120327
     3  O   -0.495724
     4  C    0.072342
     5  C   -0.254407
     6  H    0.185762
     7  H    0.221255
     8  H    0.223843
     9  H    0.183410
 Sum of Mulliken charges =   0.00000
 Mulliken charges with hydrogens summed into heavy atoms:
               1
     1  C   -0.073399
     2  C    0.344171
     3  O   -0.495724
     4  C    0.293598
     5  C   -0.068646
 Electronic spatial extent (au):  <R**2>=            287.3230
 Charge=              0.0000 electrons
 Dipole moment (field-independent basis, Debye):
    X=              0.0747    Y=              0.6980    Z=              0.1264  Tot=              0.7133
 Quadrupole moment (field-independent basis, Debye-Ang):
   XX=            -23.4121   YY=            -28.1337   ZZ=            -31.6091
   XY=             -0.0206   XZ=             -0.0393   YZ=             -0.0686
 Traceless Quadrupole moment (field-independent basis, Debye-Ang):
   XX=              4.3062   YY=             -0.4154   ZZ=             -3.8908
   XY=             -0.0206   XZ=             -0.0393   YZ=             -0.0686
 Octapole moment (field-independent basis, Debye-Ang**2):
  XXX=              0.7965  YYY=              1.8373  ZZZ=              0.1942  XYY=             -0.1301
  XXY=             -4.4101  XXZ=              0.6952  XZZ=             -0.1132  YZZ=             -3.5434
  YYZ=              0.1915  XYZ=              0.1919
 Hexadecapole moment (field-independent basis, Debye-Ang**3):
 XXXX=           -157.4610 YYYY=           -153.2169 ZZZZ=            -30.6009 XXXY=             -0.4259
 XXXZ=             -0.2699 YYYX=             -0.5214 YYYZ=             -0.0356 ZZZX=             -0.0641
 ZZZY=             -0.0830 XXYY=            -45.2080 XXZZ=            -39.0620 YYZZ=            -33.5710
 XXYZ=             -0.4650 YYXZ=              0.0943 ZZXY=              0.1970
 N-N= 1.619638809182D+02 E-N=-8.567126105871D+02  KE= 2.270999681537D+02
 Orbital energies and kinetic energies (alpha):
                                 1                 2
   1         O               -19.103149         28.828928
   2         O               -10.168891         15.802877
   3         O               -10.168335         15.792375
   4         O               -10.124033         15.803690
   5         O               -10.122389         15.807706
   6         O                -1.121709          2.493316
   7         O                -0.804178          1.844285
   8         O                -0.757500          1.806543
   9         O                -0.600371          1.683338
  10         O                -0.581770          1.366254
  11         O                -0.538379          1.340034
  12         O                -0.458599          1.529862
  13         O                -0.445810          1.552018
  14         O                -0.417957          1.359814
  15         O                -0.397143          1.373440
  16         O                -0.354095          2.348502
  17         O                -0.274978          1.583633
  18         O                -0.238545          1.233369
  19         V                 0.026744          1.815237
  20         V                 0.086115          1.494016
  21         V                 0.129705          1.328484
  22         V                 0.158233          1.751331
  23         V                 0.177994          1.267656
  24         V                 0.184623          1.332368
  25         V                 0.215317          1.691390
  26         V                 0.237757          1.834384
  27         V                 0.374194          1.905644
  28         V                 0.423011          1.757516
  29         V                 0.483159          2.730535
  30         V                 0.680554          2.544609
  31         V                 0.698677          2.495545
  32         V                 0.701145          2.708160
  33         V                 0.760433          2.547391
  34         V                 0.767508          2.494960
  35         V                 0.792001          2.610354
  36         V                 0.809159          2.716788
  37         V                 0.820164          2.670940
  38         V                 0.840986          2.612114
  39         V                 0.917708          2.706253
  40         V                 0.978682          3.206836
  41         V                 1.032839          3.258591
  42         V                 1.040540          3.250164
  43         V                 1.182740          2.747990
  44         V                 1.244391          2.948392
  45         V                 1.346357          2.579608
  46         V                 1.365446          2.920277
  47         V                 1.509036          4.913388
  48         V                 1.556827          3.375484
  49         V                 1.635268          3.871737
  50         V                 1.751260          4.298307
  51         V                 1.972662          4.102832
  52         V                 2.136503          4.265784
  53         V                 3.183304          6.831847
 Total kinetic energy from orbitals= 2.270999681537D+02
 No NMR shielding tensors so no spin-rotation constants.
 Leave Link  601 at Tue Dec 15 16:30:30 2015, MaxMem=    33554432 cpu:         0.1
 (Enter /home/Applications/g09/g09/l701.exe)
 Compute integral first derivatives.
 ... and contract with generalized density number  6.
 Leave Link  701 at Tue Dec 15 16:30:31 2015, MaxMem=    33554432 cpu:         0.1
 (Enter /home/Applications/g09/g09/l702.exe)
 L702 exits ... SP integral derivatives will be done elsewhere.
 Leave Link  702 at Tue Dec 15 16:30:31 2015, MaxMem=    33554432 cpu:         0.0
 (Enter /home/Applications/g09/g09/l703.exe)
 Compute integral first derivatives, UseDBF=F ICtDFT=           0.
 Integral derivatives from FoFJK, PRISM(SPDF).
 Calling FoFJK, ICntrl=  10005127 FMM=F ISym2X=0 I1Cent= 0 IOpClX= 0 NMat=1 NMatS=1 NMatT=0.
 FoFJK:  IHMeth= 1 ICntrl=10005127 DoSepK=F KAlg= 0 I1Cent=   0 FoldK=F
 IRaf=         0 NMat=   1 IRICut=       1 DoRegI=T DoRafI=F ISym2E= 0.
 FoFCou: FMM=F IPFlag=           0 FMFlag=      100000 FMFlg1=         800
         NFxFlg=           0 DoJE=F BraDBF=F KetDBF=F FulRan=T
         wScrn=  0.000000 ICntrl=10005127 IOpCl=  0 I1Cent=           0 NGrid=           0
         NMat0=    1 NMatS0=      1 NMatT0=    0 NMatD0=    1 NMtDS0=    0 NMtDT0=    0
 Symmetry not used in FoFCou.
 Leave Link  703 at Tue Dec 15 16:30:32 2015, MaxMem=    33554432 cpu:         1.8
 (Enter /home/Applications/g09/g09/l716.exe)
 Dipole        =-6.32701154D-01 3.61429804D-01 7.66214410D-02
 ***** Axes restored to original set *****
 -------------------------------------------------------------------
 Center     Atomic                   Forces (Hartrees/Bohr)
 Number     Number              X              Y              Z
 -------------------------------------------------------------------
      1        6           0.106593219    0.007583855    0.000999997
      2        6          -0.047957426   -0.025479048    0.004036522
      3        8          -0.085087542   -0.025982400   -0.001582919
      4        6          -0.058147948    0.059541535    0.007693247
      5        6           0.144922143    0.023325602   -0.005656799
      6        1          -0.009430076   -0.015872804   -0.000112343
      7        1          -0.007769777    0.016309790   -0.001879100
      8        1          -0.023951374   -0.045487267   -0.003486048
      9        1          -0.019171217    0.006060737   -0.000012559
 -------------------------------------------------------------------
 Cartesian Forces:  Max     0.144922143 RMS     0.044968116
 Z-matrix is all fixed cartesians, so copy forces.
 Force constants in Cartesian coordinates: 
                1             2             3             4             5 
      1  0.949706D+00
      2 -0.804307D-02  0.748004D+00
      3 -0.440000D-02 -0.841071D-02  0.212362D+00
      4 -0.551543D+00 -0.109705D+00  0.695224D-02  0.102061D+01
      5 -0.853058D-01 -0.219629D+00  0.276292D-02  0.290266D-01  0.100984D+01
      6  0.307501D-02  0.289545D-03 -0.115520D+00  0.146892D-01  0.208628D-01
      7 -0.836674D-02  0.307850D-01 -0.756646D-03 -0.306884D+00  0.191578D+00
      8 -0.598375D-02  0.220427D-01 -0.257731D-03  0.234552D+00 -0.422473D+00
      9  0.672821D-04 -0.591799D-03  0.693237D-02 -0.788107D-02  0.478043D-02
     10  0.118590D-01 -0.245232D-05 -0.715855D-03  0.246510D-01  0.176562D-01
     11  0.346883D-01 -0.115239D-04 -0.235608D-02 -0.177566D-01 -0.127202D-01
     12 -0.106752D-02 -0.277420D-04 -0.269241D-02  0.937021D-03  0.632507D-03
     13 -0.163782D+00  0.119317D-01  0.135698D-02  0.948346D-02 -0.349083D-01
     14 -0.121148D-01 -0.386576D+00  0.741003D-02  0.136457D-05 -0.524702D-05
     15  0.178969D-02  0.595346D-02 -0.773748D-01 -0.361432D-03  0.151237D-02
     16  0.171192D-01  0.178184D-04  0.560944D-05  0.000000D+00  0.149018D-05
     17 -0.223144D-01 -0.848968D-05  0.723746D-03  0.000000D+00  0.148287D-05
     18  0.487092D-03  0.316484D-03  0.156757D-01  0.864177D-05  0.734880D-04
     19  0.166229D-04  0.102148D-04  0.505900D-03  0.194833D-05  0.000000D+00
     20  0.259404D-04  0.159404D-04  0.789469D-03 -0.123593D-05  0.000000D+00
     21  0.298169D-03  0.183225D-03  0.907446D-02 -0.401725D-04  0.128747D-04
     22  0.765255D-02 -0.282625D-01 -0.261606D-02 -0.191885D+00 -0.134363D+00
     23 -0.388494D-02  0.142647D-01 -0.155223D-02 -0.129529D+00 -0.379285D+00
     24  0.474894D-04  0.794099D-03  0.335395D-01 -0.151458D-01 -0.284067D-01
     25 -0.262662D+00  0.103268D+00 -0.332170D-03 -0.442948D-02  0.163147D-01
     26  0.102932D+00 -0.178102D+00  0.890580D-03 -0.658830D-02  0.242709D-01
     27 -0.297209D-03  0.149343D-02 -0.819970D-01  0.841335D-03 -0.223066D-02
                6             7             8             9            10 
      6  0.218258D+00
      7 -0.489045D-02  0.531651D+00
      8  0.267989D-02 -0.588244D-01  0.725052D+00
      9 -0.481049D-01  0.662319D-02 -0.203257D-02  0.577156D-01
     10  0.410715D-03 -0.251937D+00 -0.178356D+00 -0.401224D-02  0.985120D+00
     11 -0.411284D-03 -0.134074D+00 -0.328368D+00 -0.255758D-02 -0.109645D+00
     12 -0.174870D-02 -0.216880D-02 -0.809343D-03 -0.465335D-01 -0.260128D-02
     13  0.655147D-03 -0.996843D-02  0.717610D-02  0.579442D-03 -0.579204D+00
     14  0.109439D-03 -0.290590D-01  0.209212D-01  0.851716D-03  0.145621D+00
     15 -0.122747D-03 -0.457081D-03  0.208318D-03  0.559171D-02  0.151681D-01
     16  0.739184D-04  0.412181D-05 -0.384060D-05  0.209635D-03 -0.603692D-02
     17  0.735555D-04  0.125771D-05 -0.117190D-05  0.639669D-04  0.795495D-02
     18  0.364528D-02  0.142287D-03 -0.132580D-03  0.723673D-02  0.167204D-02
     19 -0.187136D-03  0.217002D-01 -0.156340D-01  0.161132D-02 -0.184459D+00
     20  0.118710D-03  0.117389D-01 -0.845855D-02  0.115838D-02  0.116767D+00
     21  0.385855D-02  0.588166D-03 -0.444706D-03  0.508041D-02 -0.997793D-02
     22 -0.138069D-01  0.238006D-01  0.170733D-01  0.276711D-02  0.489527D-05
     23 -0.238602D-01 -0.121462D-01 -0.871691D-02 -0.176852D-02  0.283668D-05
     24 -0.903177D-01  0.887143D-03  0.681195D-03  0.425497D-02 -0.619693D-04
     25 -0.195381D-04  0.000000D+00  0.000000D+00  0.353333D-04  0.116304D-05
     26  0.137527D-03  0.000000D+00  0.131861D-05  0.959816D-04  0.238738D-05
     27  0.300522D-01  0.321996D-04  0.107524D-03  0.782666D-02  0.118378D-03
               11            12            13            14            15 
     11  0.895768D+00
     12 -0.943006D-02  0.224234D+00
     13  0.122336D+00  0.128272D-01  0.968467D+00
     14 -0.242742D+00 -0.291770D-02 -0.228344D-01  0.787860D+00
     15 -0.432731D-02 -0.119533D+00 -0.206478D-01 -0.845168D-02  0.212907D+00
     16 -0.177074D-01  0.117892D-02 -0.249835D+00 -0.108604D+00  0.565073D-02
     17  0.232246D-01 -0.117312D-03 -0.111967D+00 -0.193960D+00  0.451271D-02
     18  0.257318D-02  0.304683D-01  0.511805D-02  0.348535D-02 -0.809711D-01
     19  0.122160D+00 -0.867071D-02  0.920478D-02  0.269688D-01 -0.139369D-02
     20 -0.335151D+00  0.128695D-01  0.500132D-02  0.144937D-01  0.134911D-02
     21  0.164165D-01 -0.937495D-01  0.634479D-03 -0.942112D-03  0.369051D-01
     22 -0.156886D-05 -0.470188D-03  0.000000D+00  0.559772D-05  0.277668D-03
     23  0.000000D+00 -0.272461D-03 -0.189808D-05 -0.161409D-04 -0.800650D-03
     24  0.198603D-04  0.595211D-02  0.182237D-04  0.154971D-03  0.768712D-02
     25  0.000000D+00  0.353960D-04  0.156332D-01  0.156406D-04 -0.261910D-04
     26  0.146705D-05  0.726575D-04  0.232659D-01  0.249430D-04  0.436789D-04
     27  0.727433D-04  0.360270D-02 -0.541646D-03  0.299994D-03  0.149104D-01
               16            17            18            19            20 
     16  0.238771D+00
     17  0.126332D+00  0.170756D+00
     18 -0.662207D-02 -0.503324D-02  0.426337D-01
     19 -0.218878D-04 -0.667873D-05 -0.755581D-03  0.153557D+00
     20 -0.341564D-04 -0.104223D-04 -0.117910D-02 -0.133497D+00  0.329110D+00
     21 -0.392607D-03 -0.119798D-03 -0.135531D-01  0.888990D-02 -0.151060D-01
     22  0.000000D+00  0.000000D+00  0.000000D+00  0.000000D+00  0.000000D+00
     23  0.000000D+00  0.000000D+00  0.000000D+00  0.000000D+00  0.000000D+00
     24  0.000000D+00  0.000000D+00  0.000000D+00  0.000000D+00  0.000000D+00
     25 -0.102315D-05 -0.101813D-05 -0.504564D-04  0.000000D+00  0.000000D+00
     26 -0.210022D-05 -0.208991D-05 -0.103572D-03  0.000000D+00  0.000000D+00
     27 -0.104139D-03 -0.103628D-03 -0.513560D-02  0.000000D+00  0.000000D+00
               21            22            23            24            25 
     21  0.523840D-01
     22  0.000000D+00  0.160428D+00
     23  0.000000D+00  0.145553D+00  0.373738D+00
     24  0.000000D+00  0.143130D-01  0.269143D-01  0.517466D-01
     25  0.000000D+00 -0.209749D-05  0.604808D-05 -0.580682D-04  0.251460D+00
     26  0.000000D+00 -0.569775D-05  0.164294D-04 -0.157740D-03 -0.119605D+00
     27  0.000000D+00 -0.464614D-03  0.133971D-02 -0.128626D-01  0.415695D-03
               26            27 
     26  0.153789D+00
     27 -0.979112D-03  0.436032D-01
 Leave Link  716 at Tue Dec 15 16:30:32 2015, MaxMem=    33554432 cpu:         0.0
 (Enter /home/Applications/g09/g09/l103.exe)

 GradGradGradGradGradGradGradGradGradGradGradGradGradGradGradGradGradGrad
 Berny optimization.
 Search for a local minimum.
 Step number   1 out of a maximum of    2
 All quantities printed in internal units (Hartrees-Bohrs-Radians)
 Second derivative matrix not updated -- first step.
 ITU=  0
     Eigenvalues ---    0.01963   0.03300   0.06806   0.07790   0.08108
     Eigenvalues ---    0.08523   0.13061   0.14060   0.16863   0.23552
     Eigenvalues ---    0.25783   0.34372   0.41397   0.44977   0.65632
     Eigenvalues ---    0.83320   1.06323   1.30344   1.54175   1.69283
     Eigenvalues ---    1.73577
 Quadratic step=4.555D-01 exceeds max=3.000D-01 adjusted using Lamda=-1.385D-01.
 Angle between NR and scaled steps=  14.01 degrees.
 Angle between quadratic step and forces=  31.99 degrees.
 Linear search not attempted -- first point.
 TrRot= -0.001653  0.003041  0.000985  0.341600 -0.000210 -0.339831
 MatCor failed.
 Variable       Old X    -DE/DX   Delta X   Delta X   Delta X     New X
                                 (Linear)    (Quad)   (Total)
    X1        1.74489   0.10659   0.00000   0.08922   0.09001   1.83490
    Y1       -1.40929   0.00758   0.00000   0.01755   0.02383  -1.38546
    Z1        0.06214   0.00100   0.00000   0.00322   0.00447   0.06661
    X2       -0.69391  -0.04796   0.00000  -0.04861  -0.04653  -0.74044
    Y2       -2.07141  -0.02548   0.00000  -0.04427  -0.04254  -2.11395
    Z2        0.08127   0.00404   0.00000   0.00199   0.00268   0.08395
    X3       -2.16184  -0.08509   0.00000  -0.13577  -0.13732  -2.29916
    Y3       -0.02148  -0.02598   0.00000  -0.03918  -0.04021  -0.06169
    Z3        0.05915  -0.00158   0.00000  -0.00295  -0.00243   0.05672
    X4       -0.61192  -0.05815   0.00000  -0.02563  -0.03114  -0.64305
    Y4        2.13074   0.05954   0.00000   0.04152   0.04343   2.17417
    Z4        0.06810   0.00769   0.00000   0.01054   0.01155   0.07965
    X5        1.74206   0.14492   0.00000   0.14595   0.14185   1.88391
    Y5        1.32414   0.02333   0.00000   0.05811   0.06449   1.38863
    Z5        0.00704  -0.00566   0.00000  -0.00539  -0.00394   0.00310
    X6        3.39263  -0.00943   0.00000   0.08609   0.07986   3.47248
    Y6        2.58913  -0.01587   0.00000   0.00385   0.01305   2.60218
    Z6       -0.05195  -0.00011   0.00000  -0.00855  -0.00669  -0.05865
    X7       -1.55068  -0.00777   0.00000  -0.03086  -0.03946  -1.59014
    Y7        3.87106   0.01631   0.00000   0.06123   0.06147   3.93254
    Z7       -0.03097  -0.00188   0.00000  -0.00363  -0.00268  -0.03365
    X8       -1.55974  -0.02395   0.00000  -0.06212  -0.05687  -1.61661
    Y8       -3.77872  -0.04549   0.00000  -0.11944  -0.11925  -3.89797
    Z8       -0.06528  -0.00349   0.00000  -0.00602  -0.00563  -0.07091
    X9        3.47749  -0.01917   0.00000  -0.00330  -0.00040   3.47709
    Y9       -2.57334   0.00606   0.00000  -0.01346  -0.00427  -2.57761
    Z9        0.06859  -0.00001   0.00000   0.00118   0.00267   0.07126
         Item               Value     Threshold  Converged?
 Maximum Force            0.144922     0.000450     NO 
 RMS     Force            0.044968     0.000300     NO 
 Maximum Displacement     0.141847     0.001800     NO 
 RMS     Displacement     0.057698     0.001200     NO 
 Predicted change in Energy=-3.604002D-02
 GradGradGradGradGradGradGradGradGradGradGradGradGradGradGradGradGradGrad

 Leave Link  103 at Tue Dec 15 16:30:32 2015, MaxMem=    33554432 cpu:         0.0
 (Enter /home/Applications/g09/g09/l9999.exe)
 1\1\GINC-DUSTIN-DESKTOP\Force\RB3LYP-FC\3-21G\C4H4O1\DUSTIN\15-Dec-201
 5\0\\#P B3LYP/3-21G CIS(Singlets,NStates=15) pop(full) force\\FuranDFT
 \\0,1\C,0.923356,-0.745765,0.032883\C,-0.367199,-1.096141,0.043006\O,-
 1.143995,-0.011369,0.031299\C,-0.323813,1.127539,0.036038\C,0.92186,0.
 700705,0.003726\H,1.795301,1.370111,-0.027493\H,-0.820582,2.048479,-0.
 016388\H,-0.82538,-1.999614,-0.034545\H,1.84021,-1.361753,0.036298\\Ve
 rsion=ES64L-G09RevD.01\State=1-A\HF=-228.7416623\RMSD=8.018e-09\RMSF=4
 .497e-02\Dipole=0.3617515,-0.632762,-0.0745736\PG=C01 [X(C4H4O1)]\\@


 FROM WHENCE IT HAPPENS, THAT THEY WHICH TRUST TO BOOKS, DO AS THEY THAT CAST UP MANY LITTLE SUMMS INTO GREATER,
 WITHOUT CONSIDERING WETHER THOSE LITTLE SUMMES WERE RIGHTLY CAST UP OR NOT...
 AND AT LAST FINDING THE ERROUR VISIBLE, AND NOT MISTRUSTING THEIR FIRST GROUNDS,
 KNOW NOT WHICH WAY TO CLEERE THEMSELVES...
 BUT SPEND TIME IN FLUTTERING OVER THEIR BOOKES....
 AS BIRDS THAT ENTERING BY THE CHIMNEY, AND FINDING THEMSELVES INCLOSED IN A CHAMBER,
 FLUTTER AT THE FALSE LIGHT OF A GLASSE WINDOW,
 FOR WANT OF WIT TO CONSIDER WHICH WAY THEY CAME IN....
           LEVIATHAN
 Job cpu time:       0 days  0 hours  0 minutes 47.6 seconds.
 File lengths (MBytes):  RWF=     14 Int=      0 D2E=      0 Chk=      3 Scr=      1
 Normal termination of Gaussian 09 at Tue Dec 15 16:30:33 2015.
