 Entering Gaussian System, Link 0=g09
 Input=FuranAM1_1.com
 Output=FuranAM1_1.log
 Initial command:
 /home/Applications/g09/g09/l1.exe "/home/Applications/g09/scratch/Gau-7555.inp" -scrdir="/home/Applications/g09/scratch/"
 Entering Link 1 = /home/Applications/g09/g09/l1.exe PID=      7560.
  
 Copyright (c) 1988,1990,1992,1993,1995,1998,2003,2009,2013,
            Gaussian, Inc.  All Rights Reserved.
  
 This is part of the Gaussian(R) 09 program.  It is based on
 the Gaussian(R) 03 system (copyright 2003, Gaussian, Inc.),
 the Gaussian(R) 98 system (copyright 1998, Gaussian, Inc.),
 the Gaussian(R) 94 system (copyright 1995, Gaussian, Inc.),
 the Gaussian 92(TM) system (copyright 1992, Gaussian, Inc.),
 the Gaussian 90(TM) system (copyright 1990, Gaussian, Inc.),
 the Gaussian 88(TM) system (copyright 1988, Gaussian, Inc.),
 the Gaussian 86(TM) system (copyright 1986, Carnegie Mellon
 University), and the Gaussian 82(TM) system (copyright 1983,
 Carnegie Mellon University). Gaussian is a federally registered
 trademark of Gaussian, Inc.
  
 This software contains proprietary and confidential information,
 including trade secrets, belonging to Gaussian, Inc.
  
 This software is provided under written license and may be
 used, copied, transmitted, or stored only in accord with that
 written license.
  
 The following legend is applicable only to US Government
 contracts under FAR:
  
                    RESTRICTED RIGHTS LEGEND
  
 Use, reproduction and disclosure by the US Government is
 subject to restrictions as set forth in subparagraphs (a)
 and (c) of the Commercial Computer Software - Restricted
 Rights clause in FAR 52.227-19.
  
 Gaussian, Inc.
 340 Quinnipiac St., Bldg. 40, Wallingford CT 06492
  
  
 ---------------------------------------------------------------
 Warning -- This program may not be used in any manner that
 competes with the business of Gaussian, Inc. or will provide
 assistance to any competitor of Gaussian, Inc.  The licensee
 of this program is prohibited from giving any competitor of
 Gaussian, Inc. access to this program.  By using this program,
 the user acknowledges that Gaussian, Inc. is engaged in the
 business of creating and licensing software in the field of
 computational chemistry and represents and warrants to the
 licensee that it is not a competitor of Gaussian, Inc. and that
 it will not use this program in any manner prohibited above.
 ---------------------------------------------------------------
  

 Cite this work as:
 Gaussian 09, Revision D.01,
 M. J. Frisch, G. W. Trucks, H. B. Schlegel, G. E. Scuseria, 
 M. A. Robb, J. R. Cheeseman, G. Scalmani, V. Barone, B. Mennucci, 
 G. A. Petersson, H. Nakatsuji, M. Caricato, X. Li, H. P. Hratchian, 
 A. F. Izmaylov, J. Bloino, G. Zheng, J. L. Sonnenberg, M. Hada, 
 M. Ehara, K. Toyota, R. Fukuda, J. Hasegawa, M. Ishida, T. Nakajima, 
 Y. Honda, O. Kitao, H. Nakai, T. Vreven, J. A. Montgomery, Jr., 
 J. E. Peralta, F. Ogliaro, M. Bearpark, J. J. Heyd, E. Brothers, 
 K. N. Kudin, V. N. Staroverov, T. Keith, R. Kobayashi, J. Normand, 
 K. Raghavachari, A. Rendell, J. C. Burant, S. S. Iyengar, J. Tomasi, 
 M. Cossi, N. Rega, J. M. Millam, M. Klene, J. E. Knox, J. B. Cross, 
 V. Bakken, C. Adamo, J. Jaramillo, R. Gomperts, R. E. Stratmann, 
 O. Yazyev, A. J. Austin, R. Cammi, C. Pomelli, J. W. Ochterski, 
 R. L. Martin, K. Morokuma, V. G. Zakrzewski, G. A. Voth, 
 P. Salvador, J. J. Dannenberg, S. Dapprich, A. D. Daniels, 
 O. Farkas, J. B. Foresman, J. V. Ortiz, J. Cioslowski, 
 and D. J. Fox, Gaussian, Inc., Wallingford CT, 2013.
 
 ******************************************
 Gaussian 09:  ES64L-G09RevD.01 24-Apr-2013
                14-Nov-2015 
 ******************************************
 ------------------------------------------------------------
 #P AM1(Input,print) CIS(Singlets,NStates=15) pop(full) force
 ------------------------------------------------------------
 1/10=7,30=1,38=1/1,3;
 2/12=2,17=6,18=5,40=1/2;
 3/5=2,16=1,25=1,41=700000,71=1,135=100,136=1/1,2,8,3;
 4/35=1/1;
 5/5=2,35=1,38=5/2;
 8/6=1,10=1,108=15/1;
 9/15=2,41=15,42=1,48=1,49=10/14;
 10/5=4/2;
 6/7=3,18=1/1;
 7/12=6,13=5,29=1/1,2,3,16;
 1/10=7,30=1/3;
 99//99;
 Leave Link    1 at Sat Nov 14 17:36:38 2015, MaxMem=           0 cpu:         0.0
 (Enter /home/Applications/g09/g09/l101.exe)
 -----------------
 AM1-Reparam Input
 -----------------
 Symbolic Z-matrix:
 Charge =  0 Multiplicity = 1
 6                     0.95754  -0.72792  -0.01157 
 6                    -0.37688  -1.13336   0.02127 
 8                    -1.1673   -0.00723   0.01779 
 6                    -0.37008   1.07582   0.0002 
 6                     0.95136   0.73147   0.04475 
 1                     1.84995   1.39297   0.04089 
 1                    -0.85876   2.0952   -0.03809 
 1                    -0.79593  -2.04727  -0.01422 
 1                     1.81691  -1.41569  -0.03282 
 
 NAtoms=      9 NQM=        9 NQMF=       0 NMMI=      0 NMMIF=      0
                NMic=       0 NMicF=      0.
                    Isotopes and Nuclear Properties:
 (Nuclear quadrupole moments (NQMom) in fm**2, nuclear magnetic moments (NMagM)
  in nuclear magnetons)

  Atom         1           2           3           4           5           6           7           8           9
 IAtWgt=          12          12          16          12          12           1           1           1           1
 AtmWgt=  12.0000000  12.0000000  15.9949146  12.0000000  12.0000000   1.0078250   1.0078250   1.0078250   1.0078250
 NucSpn=           0           0           0           0           0           1           1           1           1
 AtZEff=   0.0000000   0.0000000   0.0000000   0.0000000   0.0000000   0.0000000   0.0000000   0.0000000   0.0000000
 NQMom=    0.0000000   0.0000000   0.0000000   0.0000000   0.0000000   0.0000000   0.0000000   0.0000000   0.0000000
 NMagM=    0.0000000   0.0000000   0.0000000   0.0000000   0.0000000   2.7928460   2.7928460   2.7928460   2.7928460
 AtZNuc=   6.0000000   6.0000000   8.0000000   6.0000000   6.0000000   1.0000000   1.0000000   1.0000000   1.0000000
 Leave Link  101 at Sat Nov 14 17:36:38 2015, MaxMem=    33554432 cpu:         0.1
 (Enter /home/Applications/g09/g09/l103.exe)

 GradGradGradGradGradGradGradGradGradGradGradGradGradGradGradGradGradGrad
 Berny optimization.
 Initialization pass.
 Trust Radius=3.00D-01 FncErr=1.00D-07 GrdErr=1.00D-07
 Number of steps in this run=      2 maximum allowed number of steps=      2.
 GradGradGradGradGradGradGradGradGradGradGradGradGradGradGradGradGradGrad

 Leave Link  103 at Sat Nov 14 17:36:38 2015, MaxMem=    33554432 cpu:         0.0
 (Enter /home/Applications/g09/g09/l202.exe)
                          Input orientation:                          
 ---------------------------------------------------------------------
 Center     Atomic      Atomic             Coordinates (Angstroms)
 Number     Number       Type             X           Y           Z
 ---------------------------------------------------------------------
      1          6           0        0.957539   -0.727921   -0.011569
      2          6           0       -0.376882   -1.133361    0.021270
      3          8           0       -1.167296   -0.007233    0.017785
      4          6           0       -0.370082    1.075820    0.000204
      5          6           0        0.951355    0.731467    0.044746
      6          1           0        1.849947    1.392970    0.040888
      7          1           0       -0.858761    2.095197   -0.038091
      8          1           0       -0.795928   -2.047266   -0.014219
      9          1           0        1.816910   -1.415693   -0.032820
 ---------------------------------------------------------------------
                    Distance matrix (angstroms):
                    1          2          3          4          5
     1  C    0.000000
     2  C    1.395041   0.000000
     3  O    2.243920   1.375838   0.000000
     4  C    2.239687   2.209292   1.344940   0.000000
     5  C    1.460487   2.289617   2.243900   1.366294   0.000000
     6  H    2.301591   3.367714   3.326388   2.242937   1.115826
     7  H    3.357029   3.264861   2.125683   1.131107   2.267850
     8  H    2.194385   1.006023   2.073806   3.152018   3.282961
     9  H    1.100909   2.212546   3.300274   3.315367   2.316354
                    6          7          8          9
     6  H    0.000000
     7  H    2.799368   0.000000
     8  H    4.340382   4.143008   0.000000
     9  H    2.809824   4.414249   2.688150   0.000000
 Stoichiometry    C4H4O
 Framework group  C1[X(C4H4O)]
 Deg. of freedom    21
 Full point group                 C1      NOp   1
 Largest Abelian subgroup         C1      NOp   1
 Largest concise Abelian subgroup C1      NOp   1
                         Standard orientation:                         
 ---------------------------------------------------------------------
 Center     Atomic      Atomic             Coordinates (Angstroms)
 Number     Number       Type             X           Y           Z
 ---------------------------------------------------------------------
      1          6           0       -0.685111    0.991015    0.021160
      2          6           0       -1.135127   -0.328947   -0.015221
      3          8           0       -0.036305   -1.156871   -0.007342
      4          6           0        1.072902   -0.396633    0.016351
      5          6           0        0.773493    0.935706   -0.028227
      6          1           0        1.464876    1.811487   -0.020138
      7          1           0        2.075037   -0.919432    0.058898
      8          1           0       -2.062794   -0.716989    0.015417
      9          1           0       -1.343626    1.873056    0.040183
 ---------------------------------------------------------------------
 Rotational constants (GHZ):      9.2596937      9.1500237      4.6045653
 Leave Link  202 at Sat Nov 14 17:36:38 2015, MaxMem=    33554432 cpu:         0.0
 (Enter /home/Applications/g09/g09/l301.exe)

 Semi-emprical parameters in input format:
 Method=8 CoreType=1 PeptideFC=0.0114510000 RIJScale=0.5494140000
 ****
 H       
 PQN=1 NValence=1 F0ss=0.4832700000 ZetaOverlap=1.1409030000 U=-0.4188110000
 Beta=-0.2390750000 CoreKO=1.0899380000 KON=0,0,0,1.0153260000 KON=1,0,1,1.0734530000
 KON=0,1,1,1.0573600000 KON=2,1,1,1.0424250000 EISol=-0.4188110042 EHeat=0.0830298228
 Alpha=1.5252600000
 GCore=0.0085280000,1.3820470000,2.3147800000
 GCore=0.0003530000,1.3599890000,3.2646490000
 GCore=-0.0012540000,0.5600570000,3.9684250000
 ****
 C       
 PQN=2,2 NValence=4 F0ss=0.4161670000 F0sp=0.4170840000 F0pp=0.3768030000 F2pp=0.1898720000
 G1sp=0.2679030000
 ZetaOverlap=1.7480470000,1.6152770000
 U=-1.9120180000,-1.5249070000
 Beta=-0.5775440000,-0.2760500000 DDN=0,1,0.8236740000 DDN=1,1,0.7268010000
 CoreKO=1.1124280000 KON=0,0,0,1.1354880000 KON=1,0,1,0.8219700000 KON=0,1,1,1.1124280000
 KON=2,1,1,0.7783930000 EISol=-4.4398989268 EHeat=0.2723305520 Alpha=1.3951510000
 DipHyp=1.6472532266
 GCore=0.0007690000,1.4586320000,3.0284860000
 GCore=0.0031120000,1.4025760000,3.4368800000
 GCore=-0.0012910000,1.4001430000,3.8739390000
 GCore=-0.0000820000,1.4352750000,5.0077740000
 ****
 O       
 PQN=2,2 NValence=6 F0ss=0.5666750000 F0sp=0.5168600000 F0pp=0.4958710000 F2pp=0.2442620000
 G1sp=0.4321350000
 ZetaOverlap=3.1080320000,2.5240390000
 U=-3.5951870000,-2.8760900000
 Beta=-1.0757550000,-1.0757550000 DDN=0,1,0.5032840000 DDN=1,1,0.4621780000
 CoreKO=0.8595160000 KON=0,0,0,0.8746580000 KON=1,0,1,0.5019540000 KON=0,1,1,0.8715120000
 KON=2,1,1,0.5615050000 EISol=-11.6164441184 EHeat=0.0949133088 Alpha=2.3576810000
 DipHyp=1.0065100913
 GCore=0.0195120000,1.4001430000,1.4681430000
 GCore=0.0060640000,1.9602000000,2.7307880000
 ****
 
 Standard basis: VSTO-6G (5D, 7F)
 Ernie: Thresh=  0.10000D-02 Tol=  0.10000D-05 Strict=F.
  NNHCO=     0 NNPyr=     0 NCTC=     0               EPep=         0.000000000
    EC=        68.326988506  ECS=         1.777266041   EG=         0.331465598
   EHC=         0.000000000  EAt=       -31.051283842  AtH=         1.516354808
 EPDDG=         0.000000000  ECC=        70.435720145 EAtT=        32.567638650
 There are    24 symmetry adapted cartesian basis functions of A   symmetry.
 There are    24 symmetry adapted basis functions of A   symmetry.
    24 basis functions,   144 primitive gaussians,    24 cartesian basis functions
    13 alpha electrons       13 beta electrons
       nuclear repulsion energy       103.0033587953 Hartrees.
 IExCor=    0 DFT=F Ex=HF Corr=None ExCW=0 ScaHFX=  1.000000
 ScaDFX=  1.000000  1.000000  1.000000  1.000000 ScalE2=  1.000000  1.000000
 IRadAn=      0 IRanWt=     -1 IRanGd=            0 ICorTp=0 IEmpDi=  4
 Integral buffers will be    131072 words long.
 Regular integral format.
 Two-electron integral symmetry is turned off.
 Leave Link  301 at Sat Nov 14 17:36:38 2015, MaxMem=    33554432 cpu:         0.0
 (Enter /home/Applications/g09/g09/l302.exe)
 Do NDO integrals.
 NPDir=0 NMtPBC=     1 NCelOv=     1 NCel=       1 NClECP=     1 NCelD=      1
         NCelK=      1 NCelE2=     1 NClLst=     1 CellRange=     0.0.
 One-electron integrals computed using PRISM.
 NBasis=    24 RedAO= F EigKep=  0.00D+00  NBF=    24
 NBsUse=    24 1.00D-04 EigRej=  0.00D+00 NBFU=    24
 Leave Link  302 at Sat Nov 14 17:36:38 2015, MaxMem=    33554432 cpu:         0.0
 (Enter /home/Applications/g09/g09/l308.exe)
 Leave Link  308 at Sat Nov 14 17:36:38 2015, MaxMem=    33554432 cpu:         0.0
 (Enter /home/Applications/g09/g09/l303.exe)
 DipDrv:  MaxL=1.
 Leave Link  303 at Sat Nov 14 17:36:38 2015, MaxMem=    33554432 cpu:         0.0
 (Enter /home/Applications/g09/g09/l401.exe)
 Simple Huckel Guess.
 JPrj=0 DoOrth=F DoCkMO=F.
 Leave Link  401 at Sat Nov 14 17:36:38 2015, MaxMem=    33554432 cpu:         0.0
 (Enter /home/Applications/g09/g09/l502.exe)
 Closed shell SCF:
 Using DIIS extrapolation, IDIIS=  1040.
 Overlap will be assumed to be unity.
 Two-electron integral symmetry not used.
 Keep J ints in memory in canonical form, NReq=888082.
 IVT=       79475 IEndB=       79475 NGot=    33554432 MDV=    33473473
 LenX=    33473473 LenY=    33472456
 Requested convergence on RMS density matrix=1.00D-08 within 128 cycles.
 Requested convergence on MAX density matrix=1.00D-06.
 Requested convergence on             energy=1.00D-06.
 No special actions if energy rises.
 FoFCou: FMM=F IPFlag=           0 FMFlag=           0 FMFlg1=           0
         NFxFlg=           0 DoJE=F BraDBF=F KetDBF=F FulRan=T
         wScrn=  0.000000 ICntrl=     600 IOpCl=  2 I1Cent=           0 NGrid=           0
         NMat0=    1 NMatS0=     54 NMatT0=    0 NMatD0=    1 NMtDS0=    0 NMtDT0=    0
 Symmetry not used in FoFCou.

 Cycle   1  Pass 1  IDiag  1:
 E=-0.875405949404666    
 DIIS: error= 5.38D-02 at cycle   1 NSaved=   1.
 NSaved= 1 IEnMin= 1 EnMin=-0.875405949404666     IErMin= 1 ErrMin= 5.38D-02
 ErrMax= 5.38D-02  0.00D+00 EMaxC= 1.00D-01 BMatC= 1.11D-01 BMatP= 1.11D-01
 IDIUse=3 WtCom= 4.62D-01 WtEn= 5.38D-01
 Coeff-Com:  0.100D+01
 Coeff-En:   0.100D+01
 Coeff:      0.100D+01
 GapD=    2.000 DampG=2.000 DampE=0.500 DampFc=1.0000 IDamp=-1.
 RMSDP=2.06D-02 MaxDP=1.64D-01              OVMax= 0.00D+00

 Cycle   2  Pass 1  IDiag  1:
 E= -1.17266288884582     Delta-E=       -0.297256939441 Rises=F Damp=F
 DIIS: error= 2.06D-02 at cycle   2 NSaved=   2.
 NSaved= 2 IEnMin= 2 EnMin= -1.17266288884582     IErMin= 2 ErrMin= 2.06D-02
 ErrMax= 2.06D-02  0.00D+00 EMaxC= 1.00D-01 BMatC= 1.04D-02 BMatP= 1.11D-01
 IDIUse=3 WtCom= 7.94D-01 WtEn= 2.06D-01
 Coeff-Com: -0.369D+00 0.137D+01
 Coeff-En:   0.000D+00 0.100D+01
 Coeff:     -0.293D+00 0.129D+01
 RMSDP=9.17D-03 MaxDP=8.40D-02 DE=-2.97D-01 OVMax= 0.00D+00

 Cycle   3  Pass 1  IDiag  1:
 E= -1.20928404530972     Delta-E=       -0.036621156464 Rises=F Damp=F
 DIIS: error= 3.90D-03 at cycle   3 NSaved=   3.
 NSaved= 3 IEnMin= 3 EnMin= -1.20928404530972     IErMin= 3 ErrMin= 3.90D-03
 ErrMax= 3.90D-03  0.00D+00 EMaxC= 1.00D-01 BMatC= 5.25D-04 BMatP= 1.04D-02
 IDIUse=3 WtCom= 9.61D-01 WtEn= 3.90D-02
 Coeff-Com:  0.181D+00-0.779D+00 0.160D+01
 Coeff-En:   0.000D+00 0.000D+00 0.100D+01
 Coeff:      0.174D+00-0.749D+00 0.157D+01
 RMSDP=3.25D-03 MaxDP=3.73D-02 DE=-3.66D-02 OVMax= 0.00D+00

 Cycle   4  Pass 1  IDiag  3:
 E= -1.21224544004853     Delta-E=       -0.002961394739 Rises=F Damp=F
 DIIS: error= 1.07D-03 at cycle   4 NSaved=   4.
 NSaved= 4 IEnMin= 4 EnMin= -1.21224544004853     IErMin= 4 ErrMin= 1.07D-03
 ErrMax= 1.07D-03  0.00D+00 EMaxC= 1.00D-01 BMatC= 2.55D-05 BMatP= 5.25D-04
 IDIUse=3 WtCom= 9.89D-01 WtEn= 1.07D-02
 Coeff-Com:  0.156D-01-0.643D-01-0.835D-01 0.113D+01
 Coeff-En:   0.000D+00 0.000D+00 0.000D+00 0.100D+01
 Coeff:      0.154D-01-0.636D-01-0.826D-01 0.113D+01
 Gap=     0.384 Goal=   None    Shift=    0.000
 RMSDP=7.51D-04 MaxDP=9.78D-03 DE=-2.96D-03 OVMax= 1.06D-02

 Cycle   5  Pass 1  IDiag  3:
 E= -1.21239466322980     Delta-E=       -0.000149223181 Rises=F Damp=F
 DIIS: error= 2.16D-04 at cycle   5 NSaved=   5.
 NSaved= 5 IEnMin= 5 EnMin= -1.21239466322980     IErMin= 5 ErrMin= 2.16D-04
 ErrMax= 2.16D-04  0.00D+00 EMaxC= 1.00D-01 BMatC= 1.88D-06 BMatP= 2.55D-05
 IDIUse=3 WtCom= 9.98D-01 WtEn= 2.16D-03
 Coeff-Com: -0.977D-02 0.429D-01-0.205D-01-0.454D+00 0.144D+01
 Coeff-En:   0.000D+00 0.000D+00 0.000D+00 0.000D+00 0.100D+01
 Coeff:     -0.975D-02 0.428D-01-0.204D-01-0.453D+00 0.144D+01
 Gap=     0.384 Goal=   None    Shift=    0.000
 RMSDP=2.28D-04 MaxDP=2.26D-03 DE=-1.49D-04 OVMax= 2.24D-03

 Cycle   6  Pass 1  IDiag  3:
 E= -1.21240722475216     Delta-E=       -0.000012561522 Rises=F Damp=F
 DIIS: error= 7.05D-05 at cycle   6 NSaved=   6.
 NSaved= 6 IEnMin= 6 EnMin= -1.21240722475216     IErMin= 6 ErrMin= 7.05D-05
 ErrMax= 7.05D-05  0.00D+00 EMaxC= 1.00D-01 BMatC= 1.70D-07 BMatP= 1.88D-06
 IDIUse=1 WtCom= 1.00D+00 WtEn= 0.00D+00
 Coeff-Com:  0.278D-02-0.116D-01 0.125D-01 0.912D-01-0.525D+00 0.143D+01
 Coeff:      0.278D-02-0.116D-01 0.125D-01 0.912D-01-0.525D+00 0.143D+01
 Gap=     0.384 Goal=   None    Shift=    0.000
 RMSDP=7.97D-05 MaxDP=6.28D-04 DE=-1.26D-05 OVMax= 1.02D-03

 Cycle   7  Pass 1  IDiag  3:
 E= -1.21240860638788     Delta-E=       -0.000001381636 Rises=F Damp=F
 DIIS: error= 3.42D-05 at cycle   7 NSaved=   7.
 NSaved= 7 IEnMin= 7 EnMin= -1.21240860638788     IErMin= 7 ErrMin= 3.42D-05
 ErrMax= 3.42D-05  0.00D+00 EMaxC= 1.00D-01 BMatC= 1.86D-08 BMatP= 1.70D-07
 IDIUse=1 WtCom= 1.00D+00 WtEn= 0.00D+00
 Coeff-Com: -0.311D-03 0.798D-03-0.419D-03-0.158D-01 0.129D+00-0.680D+00
 Coeff-Com:  0.157D+01
 Coeff:     -0.311D-03 0.798D-03-0.419D-03-0.158D-01 0.129D+00-0.680D+00
 Coeff:      0.157D+01
 Gap=     0.384 Goal=   None    Shift=    0.000
 RMSDP=3.44D-05 MaxDP=3.02D-04 DE=-1.38D-06 OVMax= 4.33D-04

 Cycle   8  Pass 1  IDiag  3:
 E= -1.21240879085973     Delta-E=       -0.000000184472 Rises=F Damp=F
 DIIS: error= 9.42D-06 at cycle   8 NSaved=   8.
 NSaved= 8 IEnMin= 8 EnMin= -1.21240879085973     IErMin= 8 ErrMin= 9.42D-06
 ErrMax= 9.42D-06  0.00D+00 EMaxC= 1.00D-01 BMatC= 1.22D-09 BMatP= 1.86D-08
 IDIUse=1 WtCom= 1.00D+00 WtEn= 0.00D+00
 Coeff-Com: -0.238D-05 0.362D-03-0.113D-02 0.685D-02-0.550D-01 0.351D+00
 Coeff-Com: -0.102D+01 0.172D+01
 Coeff:     -0.238D-05 0.362D-03-0.113D-02 0.685D-02-0.550D-01 0.351D+00
 Coeff:     -0.102D+01 0.172D+01
 Gap=     0.384 Goal=   None    Shift=    0.000
 RMSDP=1.01D-05 MaxDP=9.53D-05 DE=-1.84D-07 OVMax= 1.21D-04

 Cycle   9  Pass 1  IDiag  3:
 E= -1.21240880325148     Delta-E=       -0.000000012392 Rises=F Damp=F
 DIIS: error= 1.01D-06 at cycle   9 NSaved=   9.
 NSaved= 9 IEnMin= 9 EnMin= -1.21240880325148     IErMin= 9 ErrMin= 1.01D-06
 ErrMax= 1.01D-06  0.00D+00 EMaxC= 1.00D-01 BMatC= 2.90D-11 BMatP= 1.22D-09
 IDIUse=1 WtCom= 1.00D+00 WtEn= 0.00D+00
 Coeff-Com:  0.208D-04-0.196D-03 0.444D-03-0.151D-02 0.121D-01-0.889D-01
 Coeff-Com:  0.276D+00-0.556D+00 0.136D+01
 Coeff:      0.208D-04-0.196D-03 0.444D-03-0.151D-02 0.121D-01-0.889D-01
 Coeff:      0.276D+00-0.556D+00 0.136D+01
 Gap=     0.384 Goal=   None    Shift=    0.000
 RMSDP=1.14D-06 MaxDP=1.00D-05 DE=-1.24D-08 OVMax= 1.50D-05

 Cycle  10  Pass 1  IDiag  3:
 E= -1.21240880345199     Delta-E=       -0.000000000201 Rises=F Damp=F
 DIIS: error= 1.82D-07 at cycle  10 NSaved=  10.
 NSaved=10 IEnMin=10 EnMin= -1.21240880345199     IErMin=10 ErrMin= 1.82D-07
 ErrMax= 1.82D-07  0.00D+00 EMaxC= 1.00D-01 BMatC= 1.48D-12 BMatP= 2.90D-11
 IDIUse=1 WtCom= 1.00D+00 WtEn= 0.00D+00
 Coeff-Com: -0.933D-05 0.784D-04-0.189D-03 0.641D-03-0.410D-02 0.294D-01
 Coeff-Com: -0.914D-01 0.191D+00-0.586D+00 0.146D+01
 Coeff:     -0.933D-05 0.784D-04-0.189D-03 0.641D-03-0.410D-02 0.294D-01
 Coeff:     -0.914D-01 0.191D+00-0.586D+00 0.146D+01
 Gap=     0.384 Goal=   None    Shift=    0.000
 RMSDP=1.93D-07 MaxDP=1.22D-06 DE=-2.01D-10 OVMax= 2.06D-06

 Cycle  11  Pass 1  IDiag  3:
 E= -1.21240880346012     Delta-E=       -0.000000000008 Rises=F Damp=F
 DIIS: error= 4.29D-08 at cycle  11 NSaved=  11.
 NSaved=11 IEnMin=11 EnMin= -1.21240880346012     IErMin=11 ErrMin= 4.29D-08
 ErrMax= 4.29D-08  0.00D+00 EMaxC= 1.00D-01 BMatC= 6.39D-14 BMatP= 1.48D-12
 IDIUse=1 WtCom= 1.00D+00 WtEn= 0.00D+00
 Coeff-Com:  0.330D-05-0.274D-04 0.638D-04-0.205D-03 0.127D-02-0.952D-02
 Coeff-Com:  0.298D-01-0.623D-01 0.199D+00-0.619D+00 0.146D+01
 Coeff:      0.330D-05-0.274D-04 0.638D-04-0.205D-03 0.127D-02-0.952D-02
 Coeff:      0.298D-01-0.623D-01 0.199D+00-0.619D+00 0.146D+01
 Gap=     0.384 Goal=   None    Shift=    0.000
 RMSDP=4.11D-08 MaxDP=2.73D-07 DE=-8.13D-12 OVMax= 3.11D-07

 Cycle  12  Pass 1  IDiag  3:
 E= -1.21240880346065     Delta-E=       -0.000000000001 Rises=F Damp=F
 DIIS: error= 7.89D-09 at cycle  12 NSaved=  12.
 NSaved=12 IEnMin=12 EnMin= -1.21240880346065     IErMin=12 ErrMin= 7.89D-09
 ErrMax= 7.89D-09  0.00D+00 EMaxC= 1.00D-01 BMatC= 2.80D-15 BMatP= 6.39D-14
 IDIUse=1 WtCom= 1.00D+00 WtEn= 0.00D+00
 Coeff-Com: -0.850D-06 0.724D-05-0.167D-04 0.541D-04-0.315D-03 0.241D-02
 Coeff-Com: -0.753D-02 0.156D-01-0.509D-01 0.173D+00-0.548D+00 0.142D+01
 Coeff:     -0.850D-06 0.724D-05-0.167D-04 0.541D-04-0.315D-03 0.241D-02
 Coeff:     -0.753D-02 0.156D-01-0.509D-01 0.173D+00-0.548D+00 0.142D+01
 Gap=     0.384 Goal=   None    Shift=    0.000
 RMSDP=8.56D-09 MaxDP=4.91D-08 DE=-5.26D-13 OVMax= 6.82D-08

 Cycle  13  Pass 2  IDiag  1:
 SCF Done:  E(RAM1) =  -1.21240880346     A.U. after   13 cycles
            NFock= 12  Conv=0.86D-08     -V/T= 0.9326
 KE=-1.798702609544D+01 PE=-1.701179237128D+02 EE= 8.388918220953D+01
 Leave Link  502 at Sat Nov 14 17:36:38 2015, MaxMem=    33554432 cpu:         0.0
 (Enter /home/Applications/g09/g09/l801.exe)
 Range of M.O.s used for correlation:     1    24
 NBasis=    24 NAE=    13 NBE=    13 NFC=     0 NFV=     0
 NROrb=     24 NOA=    13 NOB=    13 NVA=    11 NVB=    11
 Leave Link  801 at Sat Nov 14 17:36:38 2015, MaxMem=    33554432 cpu:         0.0
 (Enter /home/Applications/g09/g09/l914.exe)
 RHF ground state
 MDV=    33554432 DFT=F DoStab=F Mixed=F DoRPA=F DoScal=F NonHer=F
 Making orbital integer symmetry assigments:
 Orbital symmetries:
       Occupied  (A) (A) (A) (A) (A) (A) (A) (A) (A) (A) (A) (A)
                 (A)
       Virtual   (A) (A) (A) (A) (A) (A) (A) (A) (A) (A) (A)
    60 initial guesses have been made.
 Convergence on wavefunction:    0.000001000000000
 Davidson Disk Diagonalization:  ConvIn= 1.00D-06 SkipCon=T Conv= 1.00D-06.
 Max sub-space:   240 roots to seek:    60 dimension of matrix:          286
 Iteration     1 Dimension    60 NMult     0 NNew     60
 CISAX will form    60 AO SS matrices at one time.
 NMat=    60 NSing=    60 JSym2X= 0.
 FoFJK:  IHMeth= 8 ICntrl=       0 DoSepK=F KAlg= 0 I1Cent=   0 FoldK=F
 IRaf=         1 NMat= 120 IRICut=       1 DoRegI=T DoRafI=F ISym2E= 0.
 FoFCou: FMM=F IPFlag=           0 FMFlag=      100000 FMFlg1=           0
         NFxFlg=           0 DoJE=F BraDBF=F KetDBF=F FulRan=T
         wScrn=  0.000000 ICntrl=       0 IOpCl=  0 I1Cent=           0 NGrid=           0
         NMat0=  120 NMatS0=     60 NMatT0=    0 NMatD0=  120 NMtDS0=    0 NMtDT0=    0
 Symmetry not used in FoFCou.
 New state      3 was old state      5
 New state      4 was old state      6
 New state      5 was old state      4
 New state      6 was old state      3
 New state      7 was old state      9
 New state      8 was old state     11
 New state      9 was old state      8
 New state     11 was old state      7
 New state     13 was old state     16
 New state     14 was old state     18
 New state     15 was old state     14
 Excitation Energies [eV] at current iteration:
 Root      1 :     4.672249124668557
 Root      2 :     5.056678293381974
 Root      3 :     5.266629181984650
 Root      4 :     5.960557168176233
 Root      5 :     6.318189338538115
 Root      6 :     6.395999608777812
 Root      7 :     6.600817002665862
 Root      8 :     6.812685121119894
 Root      9 :     6.880192415272507
 Root     10 :     7.114822257980229
 Root     11 :     7.302459538227911
 Root     12 :     7.435366219396965
 Root     13 :     7.615251370156227
 Root     14 :     7.639645312073998
 Root     15 :     8.063605110609416
 Root     16 :     8.281538550149003
 Root     17 :     8.410150310442276
 Root     18 :     8.599661109493832
 Root     19 :     8.664160394114937
 Root     20 :     8.834282187034225
 Root     21 :     8.967826395411441
 Root     22 :     9.242457389456629
 Root     23 :     9.317276040662431
 Root     24 :     9.422552818317600
 Root     25 :     9.557534359259455
 Root     26 :     9.714095696680937
 Root     27 :     9.742963154243672
 Root     28 :     9.795782915186939
 Root     29 :     9.840208699105810
 Root     30 :     9.926650064460993
 Root     31 :    10.413733902613750
 Root     32 :    10.528105998191010
 Root     33 :    10.536662064652310
 Root     34 :    10.652588027224510
 Root     35 :    10.885440973900430
 Root     36 :    10.904437043840120
 Root     37 :    10.946885021595070
 Root     38 :    11.031662622303310
 Root     39 :    11.167553298817500
 Root     40 :    11.339804154918680
 Root     41 :    11.372897625754120
 Root     42 :    11.480996758539790
 Root     43 :    11.508522991490320
 Root     44 :    11.592172283868740
 Root     45 :    11.734056770780220
 Root     46 :    11.874943323233030
 Root     47 :    11.912584665813280
 Root     48 :    12.174137331996960
 Root     49 :    12.380151853542690
 Root     50 :    12.601961896750890
 Root     51 :    12.803811639617330
 Root     52 :    12.890321039766550
 Root     53 :    13.006510994389460
 Root     54 :    13.061635169093590
 Root     55 :    13.301260503199910
 Root     56 :    13.454298336007720
 Root     57 :    13.861146969437610
 Root     58 :    13.959145470685780
 Root     59 :    14.120324578274450
 Root     60 :    14.299256396900520
 Iteration     2 Dimension   120 NMult    60 NNew     60
 CISAX will form    60 AO SS matrices at one time.
 NMat=    60 NSing=    60 JSym2X= 0.
 Root      1 not converged, maximum delta is    0.026148509616100
 Root      2 not converged, maximum delta is    0.023354098522957
 Root      3 not converged, maximum delta is    0.036877935766781
 Root      4 not converged, maximum delta is    0.054576086168857
 Root      5 not converged, maximum delta is    0.243323120480465
 Root      6 not converged, maximum delta is    0.206683920010747
 Root      7 not converged, maximum delta is    0.046552784161341
 Root      8 not converged, maximum delta is    0.214425287031208
 Root      9 not converged, maximum delta is    0.211379933858278
 Root     10 not converged, maximum delta is    0.049473417788451
 Root     11 not converged, maximum delta is    0.032009899013835
 Root     12 not converged, maximum delta is    0.048142914555383
 Root     13 not converged, maximum delta is    0.120986097509580
 Root     14 not converged, maximum delta is    0.182341877910819
 Root     15 not converged, maximum delta is    0.050012895666464
 Excitation Energies [eV] at current iteration:
 Root      1 :     4.612057736850153   Change is   -0.060191387818405
 Root      2 :     5.031603010916815   Change is   -0.025075282465159
 Root      3 :     5.225456252215743   Change is   -0.041172929768907
 Root      4 :     5.887369383719350   Change is   -0.073187784456882
 Root      5 :     6.220161601095382   Change is   -0.098027737442734
 Root      6 :     6.311877727917136   Change is   -0.084121880860675
 Root      7 :     6.521203616664789   Change is   -0.079613386001074
 Root      8 :     6.683975829331357   Change is   -0.128709291788537
 Root      9 :     6.805982519067419   Change is   -0.074209896205089
 Root     10 :     6.997306245534113   Change is   -0.117516012446116
 Root     11 :     7.241525558985622   Change is   -0.060933979242289
 Root     12 :     7.359135979049545   Change is   -0.076230240347421
 Root     13 :     7.480199533238088   Change is   -0.135051836918139
 Root     14 :     7.586341755867043   Change is   -0.053303556206956
 Root     15 :     8.033719926030599   Change is   -0.029885184578815
 Root     16 :     8.129924824435543   Change is   -0.280225486006733
 Root     17 :     8.257220435695681   Change is   -0.024318114453322
 Root     18 :     8.327553184623852   Change is   -0.272107924869981
 Root     19 :     8.546008976611610   Change is   -0.118151417503326
 Root     20 :     8.724431201317778   Change is   -0.109850985716446
 Root     21 :     8.914062881016633   Change is   -0.053763514394808
 Root     22 :     9.054211512088278   Change is   -0.188245877368351
 Root     23 :     9.166325291046542   Change is   -0.150950749615889
 Root     24 :     9.240042743087839   Change is   -0.182510075229761
 Root     25 :     9.414230861517837   Change is   -0.143303497741617
 Root     26 :     9.472106850250613   Change is   -0.270856303993060
 Root     27 :     9.476145482511210   Change is   -0.364063216594600
 Root     28 :     9.576125688557777   Change is   -0.350524375903216
 Root     29 :     9.605876084374225   Change is   -0.108219612306713
 Root     30 :     9.630276421923309   Change is   -0.165506493263629
 Root     31 :    10.080616978229440   Change is   -0.333116924384309
 Root     32 :    10.265218428268610   Change is   -0.271443636383699
 Root     33 :    10.382398399529330   Change is   -0.503042574371093
 Root     34 :    10.464242039259930   Change is   -0.063863958931084
 Root     35 :    10.544493998516620   Change is   -0.108094028707890
 Root     36 :    10.594525201546430   Change is   -0.997647082322307
 Root     37 :    10.670714545784340   Change is   -0.810282212755443
 Root     38 :    10.748580749741320   Change is   -0.283081872561986
 Root     39 :    10.830680439294660   Change is   -0.336872859522842
 Root     40 :    10.867798858367980   Change is   -0.036638185472139
 Root     41 :    10.890380237960090   Change is   -0.482517387794030
 Root     42 :    10.917495064795210   Change is   -0.029389956799858
 Root     43 :    11.195167356196220   Change is   -0.144636798722456
 Root     44 :    11.347599923532660   Change is   -0.160923067957653
 Root     45 :    11.378854482227050   Change is   -0.496088841005985
 Root     46 :    11.472388460695510   Change is   -0.440196205117772
 Root     47 :    11.560134695634790   Change is   -0.173922075145423
 Root     48 :    11.820722147785500   Change is   -0.559429705757188
 Root     49 :    11.959825650598350   Change is   -0.214311681398607
 Root     50 :    12.030346430449650   Change is   -1.423951905558063
 Root     51 :    12.328227260430440   Change is   -0.273734636320450
 Root     52 :    12.500424617639390   Change is   -0.800835885560517
 Root     53 :    12.682112498111920   Change is   -0.208208541654627
 Root     54 :    12.758147264141500   Change is   -0.045664375475829
 Root     55 :    12.831555596592220   Change is   -0.174955397797239
 Root     56 :    12.867076137947850   Change is   -0.194559031145743
 Root     57 :    13.223050437873770   Change is   -0.736095032812013
 Root     58 :    13.281584885173820   Change is   -0.579562084263789
 Root     59 :    13.413541423212090
 Root     60 :    13.610173696813220   Change is   -0.510150881461229
 Iteration     3 Dimension   135 NMult   120 NNew     15
 CISAX will form    15 AO SS matrices at one time.
 NMat=    15 NSing=    15 JSym2X= 0.
 Root      1 not converged, maximum delta is    0.000477909061255
 Root      2 not converged, maximum delta is    0.000580755159509
 Root      3 not converged, maximum delta is    0.000219935240129
 Root      4 not converged, maximum delta is    0.000146841909941
 Root      5 not converged, maximum delta is    0.001678703417679
 Root      6 not converged, maximum delta is    0.000813949009214
 Root      7 not converged, maximum delta is    0.000187286232516
 Root      8 not converged, maximum delta is    0.000533553283501
 Root      9 not converged, maximum delta is    0.000376476326560
 Root     10 not converged, maximum delta is    0.000995118057822
 Root     11 not converged, maximum delta is    0.000143728942792
 Root     12 not converged, maximum delta is    0.000905989624967
 Root     13 not converged, maximum delta is    0.000313958308288
 Root     14 not converged, maximum delta is    0.000113686252572
 Root     15 not converged, maximum delta is    0.000535466038929
 Excitation Energies [eV] at current iteration:
 Root      1 :     4.611997016227937   Change is   -0.000060720622216
 Root      2 :     5.031512258979283   Change is   -0.000090751937533
 Root      3 :     5.225441914536171   Change is   -0.000014337679572
 Root      4 :     5.887362189921903   Change is   -0.000007193797447
 Root      5 :     6.219595574592326   Change is   -0.000566026503056
 Root      6 :     6.311701415759984   Change is   -0.000176312157153
 Root      7 :     6.521192578630610   Change is   -0.000011038034179
 Root      8 :     6.683927231678504   Change is   -0.000048597652853
 Root      9 :     6.805959259982466   Change is   -0.000023259084952
 Root     10 :     6.997145033707512   Change is   -0.000161211826601
 Root     11 :     7.241520875882387   Change is   -0.000004683103235
 Root     12 :     7.359002561398035   Change is   -0.000133417651509
 Root     13 :     7.480185259092275   Change is   -0.000014274145813
 Root     14 :     7.586338403291879   Change is   -0.000003352575164
 Root     15 :     8.033696894999643   Change is   -0.000023031030957
 Iteration     4 Dimension   143 NMult   135 NNew      8
 CISAX will form     8 AO SS matrices at one time.
 NMat=     8 NSing=     8 JSym2X= 0.
 Root      1 not converged, maximum delta is    0.000021794245928
 Root      2 not converged, maximum delta is    0.000011411577202
 Root      3 not converged, maximum delta is    0.000006153472785
 Root      4 not converged, maximum delta is    0.000005098480527
 Root      5 not converged, maximum delta is    0.000037801542675
 Root      6 not converged, maximum delta is    0.000032110203492
 Root      7 not converged, maximum delta is    0.000011832874962
 Root      8 not converged, maximum delta is    0.000019799728197
 Root      9 not converged, maximum delta is    0.000012188170850
 Root     10 not converged, maximum delta is    0.000033507683792
 Root     11 not converged, maximum delta is    0.000007102721428
 Root     12 not converged, maximum delta is    0.000033079137822
 Root     13 not converged, maximum delta is    0.000008818156366
 Root     14 not converged, maximum delta is    0.000006053104372
 Root     15 not converged, maximum delta is    0.000020394649425
 Excitation Energies [eV] at current iteration:
 Root      1 :     4.611996856394698   Change is   -0.000000159833239
 Root      2 :     5.031512201025676   Change is   -0.000000057953606
 Root      3 :     5.225441897521708   Change is   -0.000000017014464
 Root      4 :     5.887362179185205   Change is   -0.000000010736697
 Root      5 :     6.219594969449043   Change is   -0.000000605143282
 Root      6 :     6.311701064397336   Change is   -0.000000351362649
 Root      7 :     6.521192538255187   Change is   -0.000000040375423
 Root      8 :     6.683927100630230   Change is   -0.000000131048274
 Root      9 :     6.805959202169799   Change is   -0.000000057812667
 Root     10 :     6.997144643525806   Change is   -0.000000390181707
 Root     11 :     7.241520860281272   Change is   -0.000000015601116
 Root     12 :     7.359002136126740   Change is   -0.000000425271295
 Root     13 :     7.480185226747691   Change is   -0.000000032344584
 Root     14 :     7.586338391966973   Change is   -0.000000011324906
 Root     15 :     8.033696774567501   Change is   -0.000000120432141
 Convergence achieved on expansion vectors.
 ***********************************************************************
 Excited states from <AA,BB:AA,BB> singles matrix:
 ***********************************************************************
 
 1PDM for each excited state written to RWF  633
 Ground to excited state transition densities written to RWF  633
 Ground to excited state transition electric dipole moments (Au):
       state          X           Y           Z        Dip. S.      Osc.
         1         0.8145      0.0340      0.0830      0.6714      0.0759
         2        -0.0104      0.1077     -0.0125      0.0119      0.0015
         3        -0.0434      0.0333      0.0080      0.0031      0.0004
         4        -0.1036      0.1259      0.0874      0.0342      0.0049
         5        -0.4017      1.4452     -0.0018      2.2499      0.3428
         6        -0.9283     -0.7456      0.0188      1.4180      0.2193
         7         0.2560     -0.0536     -0.0240      0.0690      0.0110
         8        -0.0501      0.0553     -0.0398      0.0071      0.0012
         9         0.0357      0.0143     -0.1681      0.0297      0.0050
        10        -0.0629     -0.0343     -0.0903      0.0133      0.0023
        11        -0.0298     -0.0435     -0.1033      0.0135      0.0024
        12         0.0024     -0.1255      0.0174      0.0160      0.0029
        13         0.0205      0.0356     -0.0300      0.0026      0.0005
        14         0.0500     -0.0241     -0.0923      0.0116      0.0022
        15        -0.0142      0.0624     -0.2226      0.0536      0.0106
 Ground to excited state transition velocity dipole moments (Au):
       state          X           Y           Z        Dip. S.      Osc.
         1        -0.0313     -0.0066     -0.0189      0.0014      0.0054
         2        -0.0090      0.0021      0.0068      0.0001      0.0005
         3         0.0029     -0.0092     -0.0007      0.0001      0.0003
         4         0.0153     -0.0208     -0.0688      0.0054      0.0167
         5         0.0589     -0.2738      0.0112      0.0785      0.2291
         6         0.1483      0.1482      0.0019      0.0440      0.1263
         7        -0.0429      0.0128      0.0524      0.0047      0.0132
         8         0.0103     -0.0135      0.0002      0.0003      0.0008
         9        -0.0055     -0.0038      0.1040      0.0109      0.0289
        10         0.0115      0.0087      0.0371      0.0016      0.0041
        11         0.0067      0.0094      0.0444      0.0021      0.0053
        12        -0.0033      0.0331     -0.0231      0.0016      0.0040
        13        -0.0042     -0.0066      0.0170      0.0004      0.0009
        14        -0.0002      0.0047      0.1962      0.0385      0.0921
        15        -0.0032     -0.0164      0.0438      0.0022      0.0050
 Ground to excited state transition magnetic dipole moments (Au):
       state          X           Y           Z
         1        -0.0337     -0.0425      0.6027
         2        -0.0074     -0.1013     -0.0289
         3        -0.0858     -0.5868     -0.0053
         4         0.0860      0.0050     -0.0131
         5         0.1164      0.0405     -0.0692
         6         0.1499      0.0122     -0.0918
         7         0.8343      0.0339      0.0463
         8        -0.4801      0.1984     -0.0141
         9        -1.3026      0.1015      0.0446
        10        -0.3666     -0.8378     -0.0321
        11         0.0959      0.3326     -0.0338
        12        -0.2124      0.7378      0.0259
        13        -0.0305      0.4649      0.0061
        14         0.9081     -0.0135      0.0515
        15         0.2162     -0.0986      0.0421
 Ground to excited state transition velocity quadrupole moments (Au):
       state          XX          YY          ZZ          XY          XZ          YZ
         1         0.0594     -0.0585      0.0072      0.5050     -0.0118     -0.0046
         2         0.0555     -0.1243      0.0856     -0.0854     -0.0413     -0.0010
         3        -0.0052      0.0363     -0.0278     -0.0277     -0.1932      0.0049
         4         0.0403     -0.0232      0.0031      0.0246     -0.0034      0.0956
         5         0.4279     -0.2143     -0.0357      0.1889      0.0444     -0.0732
         6        -0.1760      0.0773      0.0253      0.4289     -0.0397     -0.0988
         7        -0.0302      0.0235     -0.0037     -0.1021     -0.0643     -0.3422
         8         0.0244      0.0174     -0.0230      0.0067     -0.1982      0.0403
         9        -0.0068     -0.0105      0.0023      0.0266      0.0319     -0.2134
        10        -0.0031     -0.0003      0.0035      0.0042     -0.0242     -0.0071
        11        -0.0046      0.0178     -0.0032      0.0074      0.0535      0.1152
        12        -0.0327      0.0358     -0.0136     -0.0135      0.1691     -0.0387
        13        -0.0171     -0.0134      0.0207     -0.0075     -0.2069      0.0025
        14        -0.0183     -0.0158     -0.0004      0.0368     -0.0048      0.2240
        15        -0.0232     -0.0298      0.0030     -0.0427     -0.0002      0.0148
 <0|del|b> * <b|rxdel|0> + <0|del|b> * <b|delr+rdel|0>
 Rotatory Strengths (R) in cgs (10**-40 erg-esu-cm/Gauss)
       state          XX          YY          ZZ    R(velocity)    E-M Angle
         1       -43.2009     -1.3505      2.6449    -13.9688      116.57
         2        -1.7176      0.8751     -0.4578     -0.4334      106.37
         3         6.6746     -0.4623     12.6585      6.2903       26.18
         4        -1.5820      8.7767     -0.2911      2.3012       70.76
         5         3.7611     -0.5331    -18.6863     -5.1528       97.25
         6        12.7145     10.0423     50.0011     24.2526       49.76
         7        -2.4666    -19.6465    -74.9791    -32.3641      124.82
         8        -7.7024     -6.5215     -7.7153     -7.3131      149.79
         9        10.0933     14.4855      7.7820     10.7869       85.18
        10       -11.1354     -7.7734    -15.9906    -11.6331      110.40
        11         1.9301     -0.5451      4.6503      2.0118       81.82
        12        24.2137     -0.1135     39.9554     21.3519       38.05
        13        -5.7720      0.4478     -2.0272     -2.4504      109.12
        14        21.9274      3.3502     -0.2993      8.3261       86.84
        15         1.8979      3.5647      1.1627      2.2084       75.86
 1/2[<0|r|b>*<b|rxdel|0> + (<0|rxdel|b>*<b|r|0>)*]
 Rotatory Strengths (R) in cgs (10**-40 erg-esu-cm/Gauss)
       state          XX          YY          ZZ     R(length)
         1        19.3958      1.0221    -35.3613     -4.9811
         2        -0.0547      7.7115     -0.2558      2.4670
         3        -2.6355     13.7965      0.0299      3.7303
         4         6.3007     -0.4439      0.8074      2.2214
         5        33.0507    -41.3389     -0.0871     -2.7918
         6        98.3931      6.4583      1.2205     35.3573
         7      -151.0638      1.2855      0.7860    -49.6641
         8       -16.9962     -7.7542     -0.3962     -8.3822
         9        32.8763     -1.0238      5.3052     12.3859
        10       -16.3153    -20.3024     -2.0486    -12.8888
        11         2.0181     10.2349     -2.4673      3.2619
        12         0.3536     65.4571     -0.3195     21.8304
        13         0.4432    -11.7130      0.1291     -3.7135
        14       -32.0978     -0.2293      3.3648     -9.6541
        15         2.1649      4.3485      6.6252      4.3796
  1/2[<0|del|b>*<b|r|0> + (<0|r|b>*<b|del|0>)*] (Au)
       state          X           Y           Z        Dip. S.   Osc.(frdel)
         1        -0.0255     -0.0002     -0.0016      0.0273      0.0182
         2         0.0001      0.0002     -0.0001     -0.0002     -0.0002
         3        -0.0001     -0.0003      0.0000      0.0004      0.0003
         4        -0.0016     -0.0026     -0.0060      0.0102      0.0068
         5        -0.0237     -0.3956      0.0000      0.4193      0.2795
         6        -0.1376     -0.1105      0.0000      0.2481      0.1654
         7        -0.0110     -0.0007     -0.0013      0.0129      0.0086
         8        -0.0005     -0.0007      0.0000      0.0013      0.0008
         9        -0.0002     -0.0001     -0.0175      0.0177      0.0118
        10        -0.0007     -0.0003     -0.0033      0.0044      0.0029
        11        -0.0002     -0.0004     -0.0046      0.0052      0.0035
        12         0.0000     -0.0041     -0.0004      0.0046      0.0030
        13        -0.0001     -0.0002     -0.0005      0.0008      0.0006
        14         0.0000     -0.0001     -0.0181      0.0182      0.0122
        15         0.0000     -0.0010     -0.0098      0.0107      0.0072

 Excitation energies and oscillator strengths:
 
 Excited State   1:      Singlet-A      4.6120 eV  268.83 nm  f=0.0759  <S**2>=0.000
      12 -> 15         0.23960
      13 -> 14         0.65684
 This state for optimization and/or second-order correction.
 Total Energy, E(CIS) =  -1.04292103025    
 Copying the excited state density for this state as the 1-particle RhoCI density.
 
 Excited State   2:      Singlet-A      5.0315 eV  246.42 nm  f=0.0015  <S**2>=0.000
      12 -> 14        -0.44856
      13 -> 15         0.52846
      13 -> 16         0.10922
 
 Excited State   3:      Singlet-A      5.2254 eV  237.27 nm  f=0.0004  <S**2>=0.000
      12 -> 14         0.10206
      13 -> 16         0.68814
 
 Excited State   4:      Singlet-A      5.8874 eV  210.59 nm  f=0.0049  <S**2>=0.000
       7 -> 16        -0.17772
      12 -> 16         0.65840
 
 Excited State   5:      Singlet-A      6.2196 eV  199.34 nm  f=0.3428  <S**2>=0.000
      11 -> 16         0.11745
      12 -> 14         0.44868
      12 -> 15         0.24532
      13 -> 15         0.40492
 
 Excited State   6:      Singlet-A      6.3117 eV  196.44 nm  f=0.2193  <S**2>=0.000
      12 -> 14        -0.19177
      12 -> 15         0.58291
      13 -> 14        -0.20329
      13 -> 15        -0.17237
 
 Excited State   7:      Singlet-A      6.5212 eV  190.13 nm  f=0.0110  <S**2>=0.000
       9 -> 14        -0.15798
       9 -> 15         0.18751
      10 -> 14         0.43584
      10 -> 15         0.13727
      11 -> 14         0.12824
      12 -> 15        -0.13575
      12 -> 18         0.14675
      13 -> 17         0.28387
      13 -> 19         0.20363
 
 Excited State   8:      Singlet-A      6.6839 eV  185.50 nm  f=0.0012  <S**2>=0.000
       9 -> 14         0.23064
       9 -> 15        -0.12475
      11 -> 15        -0.10608
      12 -> 17         0.30372
      12 -> 19         0.14597
      12 -> 21        -0.10602
      13 -> 18         0.48140
      13 -> 19         0.10080
      13 -> 20        -0.11188
      13 -> 22         0.11229
 
 Excited State   9:      Singlet-A      6.8060 eV  182.17 nm  f=0.0050  <S**2>=0.000
      10 -> 14        -0.34529
      10 -> 15        -0.14149
      11 -> 14        -0.13443
      12 -> 18         0.22661
      13 -> 17         0.44815
      13 -> 19         0.16294
      13 -> 21        -0.14312
 
 Excited State  10:      Singlet-A      6.9971 eV  177.19 nm  f=0.0023  <S**2>=0.000
       8 -> 14         0.10660
       9 -> 14         0.40566
       9 -> 15        -0.15640
      10 -> 15         0.23796
      11 -> 14         0.29603
      11 -> 15        -0.21298
      12 -> 17        -0.17621
      13 -> 17         0.12012
      13 -> 18        -0.18139
 
 Excited State  11:      Singlet-A      7.2415 eV  171.21 nm  f=0.0024  <S**2>=0.000
       9 -> 14        -0.26253
      10 -> 14        -0.16318
      10 -> 15        -0.11262
      11 -> 14         0.51461
      13 -> 17         0.16841
      13 -> 19        -0.15059
      13 -> 20        -0.10846
      13 -> 21         0.11652
 
 Excited State  12:      Singlet-A      7.3590 eV  168.48 nm  f=0.0029  <S**2>=0.000
       8 -> 14        -0.10780
       9 -> 14         0.21550
       9 -> 15        -0.23797
      11 -> 15         0.57327
      12 -> 17        -0.12854
 
 Excited State  13:      Singlet-A      7.4802 eV  165.75 nm  f=0.0005  <S**2>=0.000
      11 -> 15         0.12663
      12 -> 17         0.54206
      12 -> 20        -0.17625
      12 -> 21         0.13615
      13 -> 18        -0.29842
 
 Excited State  14:      Singlet-A      7.5863 eV  163.43 nm  f=0.0022  <S**2>=0.000
      10 -> 14         0.15116
      11 -> 14        -0.26639
      12 -> 18        -0.23751
      13 -> 17         0.37467
      13 -> 19        -0.25795
      13 -> 20        -0.14651
      13 -> 21         0.28568
 
 Excited State  15:      Singlet-A      8.0337 eV  154.33 nm  f=0.0106  <S**2>=0.000
       9 -> 14         0.17100
       9 -> 15         0.50355
      10 -> 14        -0.28039
      10 -> 15         0.23494
      11 -> 15         0.19946
 SavETr:  write IOETrn=   770 NScale= 10 NData=  16 NLR=1 NState=   15 LETran=     280.
 The selected state is a singlet
 CISAX will form     1 AO SS matrices at one time.
 NMat=     1 NSing=     1 JSym2X= 0.
 Leave Link  914 at Sat Nov 14 17:36:38 2015, MaxMem=    33554432 cpu:         0.1
 (Enter /home/Applications/g09/g09/l1002.exe)
 Minotr:  Closed shell wavefunction.
          Computing CIS/TD-HF/TD-KS derivatives.
          Using Z-Vector for PSCF gradient.
          Skipping F1 and S1 gradient terms here.
          IDoAtm=111111111
          Direct CPHF calculation.
          Differentiating once with respect to electric field.
                with respect to dipole field.
          Differentiating once with respect to nuclear coordinates.
          Electric field/nuclear overlap derivatives assumed to be zero.
          Requested convergence is 1.0D-10 RMS, and 1.0D-09 maximum.
          NewPWx=T KeepS1=F KeepF1=F KeepIn=T MapXYZ=F SortEE=F KeepMc=T.
          MDV=      33495423 using IRadAn=       0.
 Keep J ints in memory in canonical form, NReq=871704.
 FoFCou: FMM=F IPFlag=           0 FMFlag=           0 FMFlg1=           0
         NFxFlg=           0 DoJE=F BraDBF=F KetDBF=F FulRan=T
         wScrn=  0.000000 ICntrl=     600 IOpCl=  2 I1Cent=           0 NGrid=           0
         NMat0=    1 NMatS0=     54 NMatT0=    0 NMatD0=    1 NMtDS0=    0 NMtDT0=    0
 Symmetry not used in FoFCou.
          Solving linear equations separately, MaxMat=       0.
          There are     1 degrees of freedom in the 1st order CPHF.  IDoFFX=0 NUNeed=     1.
 LinEq1:  Iter=  0 NonCon=     1 RMS=1.21D-02 Max=7.23D-02 NDo=     1
 AX will form     1 AO Fock derivatives at one time.
 LinEq1:  Iter=  1 NonCon=     1 RMS=2.04D-03 Max=1.19D-02 NDo=     1
 LinEq1:  Iter=  2 NonCon=     1 RMS=2.53D-04 Max=1.55D-03 NDo=     1
 LinEq1:  Iter=  3 NonCon=     1 RMS=3.49D-05 Max=1.32D-04 NDo=     1
 LinEq1:  Iter=  4 NonCon=     1 RMS=4.07D-06 Max=1.69D-05 NDo=     1
 LinEq1:  Iter=  5 NonCon=     1 RMS=6.78D-07 Max=3.73D-06 NDo=     1
 LinEq1:  Iter=  6 NonCon=     1 RMS=1.01D-07 Max=4.34D-07 NDo=     1
 LinEq1:  Iter=  7 NonCon=     1 RMS=1.67D-08 Max=8.05D-08 NDo=     1
 LinEq1:  Iter=  8 NonCon=     1 RMS=2.05D-09 Max=5.98D-09 NDo=     1
 LinEq1:  Iter=  9 NonCon=     1 RMS=2.48D-10 Max=1.12D-09 NDo=     1
 LinEq1:  Iter= 10 NonCon=     0 RMS=2.96D-11 Max=1.19D-10 NDo=     1
 Linear equations converged to 1.000D-10 1.000D-09 after    10 iterations.
 End of Minotr F.D. properties file   721 does not exist.
 End of Minotr F.D. properties file   722 does not exist.
 End of Minotr F.D. properties file   788 does not exist.
 Leave Link 1002 at Sat Nov 14 17:36:38 2015, MaxMem=    33554432 cpu:         0.0
 (Enter /home/Applications/g09/g09/l601.exe)
 Copying SCF densities to generalized density rwf, IOpCl= 0 IROHF=0.

 **********************************************************************

            Population analysis using the SCF density.

 **********************************************************************

 Orbital symmetries:
       Occupied  (A) (A) (A) (A) (A) (A) (A) (A) (A) (A) (A) (A)
                 (A)
       Virtual   (A) (A) (A) (A) (A) (A) (A) (A) (A) (A) (A)
 The electronic state is 1-A.
 Alpha  occ. eigenvalues --   -1.63413  -1.27554  -1.12652  -0.85707  -0.84326
 Alpha  occ. eigenvalues --   -0.72778  -0.65268  -0.59926  -0.53767  -0.53694
 Alpha  occ. eigenvalues --   -0.53206  -0.43820  -0.40218
 Alpha virt. eigenvalues --   -0.01842   0.01008   0.05632   0.11270   0.13836
 Alpha virt. eigenvalues --    0.14750   0.16167   0.17243   0.17659   0.18241
 Alpha virt. eigenvalues --    0.18446
     Molecular Orbital Coefficients:
                           1         2         3         4         5
                           O         O         O         O         O
     Eigenvalues --    -1.63413  -1.27554  -1.12652  -0.85707  -0.84326
   1 1   C  1S          0.25762  -0.47282   0.27575   0.37531  -0.21296
   2        1PX         0.05997  -0.09146  -0.17241  -0.16782  -0.23934
   3        1PY        -0.11426   0.04671  -0.11960   0.06755  -0.26998
   4        1PZ        -0.00351   0.00558  -0.00215   0.00151   0.00408
   5 2   C  1S          0.35003  -0.14959   0.52669  -0.15736   0.35757
   6        1PX         0.18890   0.03499  -0.02022  -0.06539  -0.17507
   7        1PY        -0.02619  -0.23376   0.01484   0.38441   0.04152
   8        1PZ         0.00338  -0.00266   0.00591   0.00486   0.00816
   9 3   O  1S          0.66828   0.56031   0.00219   0.02371  -0.27268
  10        1PX         0.01157   0.00753  -0.33937   0.50581   0.10838
  11        1PY         0.19214  -0.05030   0.00704  -0.02984   0.16575
  12        1PZ         0.00178   0.00038  -0.00231   0.01147   0.00861
  13 4   C  1S          0.36413  -0.14333  -0.50102   0.04034   0.40570
  14        1PX        -0.19900  -0.05622  -0.01486  -0.14117   0.11589
  15        1PY        -0.01787  -0.25215  -0.02242  -0.36977  -0.08001
  16        1PZ        -0.00480   0.00092   0.00420   0.00467   0.00472
  17 5   C  1S          0.25815  -0.47693  -0.29130  -0.29032  -0.28139
  18        1PX        -0.06996   0.09469  -0.14483  -0.22669   0.17152
  19        1PY        -0.11148   0.04286   0.13212   0.03834  -0.30488
  20        1PZ         0.00445  -0.00792  -0.00457  -0.00065  -0.00014
  21 6   H  1S          0.05219  -0.14509  -0.10689  -0.17082  -0.18236
  22 7   H  1S          0.07319  -0.03308  -0.18931   0.03582   0.23854
  23 8   H  1S          0.08307  -0.04369   0.22828  -0.11491   0.24084
  24 9   H  1S          0.05401  -0.14632   0.11031   0.23029  -0.12788
                           6         7         8         9        10
                           O         O         O         O         O
     Eigenvalues --    -0.72778  -0.65268  -0.59926  -0.53767  -0.53694
   1 1   C  1S         -0.08992   0.00386   0.19459  -0.05139  -0.02089
   2        1PX         0.17458   0.01646  -0.15339  -0.06404  -0.17951
   3        1PY        -0.23932  -0.00225   0.10594  -0.14317  -0.50347
   4        1PZ        -0.01015   0.24138   0.00560  -0.01621  -0.00514
   5 2   C  1S         -0.08624  -0.01266  -0.12863   0.10725  -0.01284
   6        1PX         0.39549   0.01777   0.42444   0.28551   0.07464
   7        1PY         0.08014  -0.01237   0.00965   0.09534   0.50496
   8        1PZ        -0.00898   0.39821  -0.01139  -0.00735   0.01688
   9 3   O  1S         -0.19846  -0.00596   0.03025  -0.11236   0.19176
  10        1PX        -0.01790  -0.02330  -0.40772   0.01468   0.04993
  11        1PY         0.47893   0.01104  -0.04270   0.35487  -0.40039
  12        1PZ        -0.01241   0.73074  -0.02748   0.00234   0.01793
  13 4   C  1S         -0.09099   0.00281   0.14140  -0.02835  -0.13335
  14        1PX        -0.35875  -0.00726   0.44707   0.12198   0.06950
  15        1PY         0.11241   0.00321   0.05528  -0.38698   0.21121
  16        1PZ        -0.01523   0.42812   0.00857   0.00921  -0.00339
  17 5   C  1S         -0.11760  -0.00724  -0.19355   0.01949   0.06437
  18        1PX        -0.20515  -0.00761  -0.01640   0.23541   0.25986
  19        1PY        -0.21959   0.00687  -0.17694   0.54388  -0.08264
  20        1PZ        -0.00372   0.25285   0.00720  -0.02126  -0.00690
  21 6   H  1S         -0.21479  -0.00290  -0.18955   0.39454   0.09418
  22 7   H  1S         -0.23662   0.00543   0.29811   0.18272  -0.10683
  23 8   H  1S         -0.25946  -0.00800  -0.31810  -0.13611  -0.19782
  24 9   H  1S         -0.20255  -0.00224   0.20647  -0.08004  -0.21846
                          11        12        13        14        15
                           O         O         O         V         V
     Eigenvalues --    -0.53206  -0.43820  -0.40218  -0.01842   0.01008
   1 1   C  1S          0.01531   0.00618   0.00953  -0.00800  -0.00456
   2        1PX         0.52777   0.01984   0.01913  -0.01869  -0.00174
   3        1PY        -0.27234  -0.02556  -0.01073   0.00390   0.01680
   4        1PZ        -0.03448   0.58027   0.36843  -0.37864  -0.56805
   5 2   C  1S          0.05483   0.00180  -0.00885  -0.01823  -0.00520
   6        1PX        -0.01813  -0.00089   0.00896  -0.00599  -0.00339
   7        1PY        -0.00764   0.00427  -0.01525   0.00187   0.01195
   8        1PZ        -0.01836   0.13035   0.61776   0.58546   0.31335
   9 3   O  1S         -0.00762   0.00080  -0.00521   0.00568   0.00756
  10        1PX        -0.01874   0.01670  -0.00369   0.00068   0.00095
  11        1PY        -0.26298   0.00200  -0.00067   0.01043   0.01920
  12        1PZ        -0.00404  -0.53719   0.01179  -0.41632   0.04750
  13 4   C  1S         -0.00083  -0.00405  -0.00378   0.00294  -0.00302
  14        1PX         0.26324  -0.00273   0.02387  -0.01254   0.02450
  15        1PY        -0.26437  -0.00253  -0.02505   0.02042   0.00588
  16        1PZ         0.02053   0.12402  -0.58574   0.52621  -0.42337
  17 5   C  1S          0.01242  -0.01100   0.00699   0.00579  -0.01371
  18        1PX        -0.47026   0.01000  -0.01352  -0.01281   0.00365
  19        1PY         0.09545   0.02093  -0.00249   0.00398   0.01081
  20        1PZ         0.00108   0.58303  -0.36989  -0.24845   0.62903
  21 6   H  1S         -0.13770   0.01193  -0.00465  -0.00290   0.00104
  22 7   H  1S          0.24327  -0.00018   0.00834   0.00710  -0.00152
  23 8   H  1S          0.04761   0.00323   0.00459   0.01091   0.00747
  24 9   H  1S         -0.34946  -0.01349  -0.00457   0.00053  -0.00427
                          16        17        18        19        20
                           V         V         V         V         V
     Eigenvalues --     0.05632   0.11270   0.13836   0.14750   0.16167
   1 1   C  1S         -0.02390   0.08954  -0.18278  -0.36613  -0.28070
   2        1PX         0.05866   0.50472   0.03364  -0.03136  -0.28662
   3        1PY         0.09438   0.21022   0.40291   0.24004  -0.07626
   4        1PZ         0.02721  -0.01050   0.01713   0.00923   0.01177
   5 2   C  1S         -0.18794   0.18008   0.29341   0.34940   0.08264
   6        1PX        -0.32868   0.23715   0.09094   0.14343  -0.02177
   7        1PY         0.38619   0.08905   0.31330   0.15492  -0.02584
   8        1PZ        -0.01772   0.00794   0.00863   0.01190   0.00045
   9 3   O  1S          0.26043   0.01749  -0.02816  -0.03562   0.04666
  10        1PX        -0.02010   0.29472  -0.06013   0.16083   0.12034
  11        1PY         0.52718   0.02978  -0.15367  -0.10867   0.13607
  12        1PZ         0.01012  -0.00089  -0.00123   0.00036   0.00138
  13 4   C  1S         -0.19193  -0.14011   0.41527  -0.35744  -0.00383
  14        1PX         0.29217   0.31530  -0.02744  -0.21086   0.46033
  15        1PY         0.33590  -0.07459   0.25204   0.01410  -0.22446
  16        1PZ         0.00076   0.02575  -0.00823  -0.00480   0.01704
  17 5   C  1S         -0.01016  -0.07352  -0.16766   0.28559   0.41013
  18        1PX        -0.07132   0.48734  -0.13782  -0.04971  -0.27956
  19        1PY         0.09758  -0.18274   0.42003  -0.09363  -0.03460
  20        1PZ        -0.01806  -0.01517  -0.01395   0.01319   0.01405
  21 6   H  1S         -0.09950  -0.14628  -0.11950  -0.18098  -0.18760
  22 7   H  1S          0.22571  -0.24673  -0.25248   0.50430  -0.45492
  23 8   H  1S          0.16039   0.13848  -0.10460  -0.16428  -0.11035
  24 9   H  1S         -0.10320   0.07056  -0.18091   0.14847   0.15901
                          21        22        23        24
                           V         V         V         V
     Eigenvalues --     0.17243   0.17659   0.18241   0.18446
   1 1   C  1S          0.06637  -0.32089  -0.12749  -0.14093
   2        1PX        -0.05450   0.18560   0.34526  -0.05943
   3        1PY        -0.32282  -0.18209  -0.24266  -0.01277
   4        1PZ        -0.00693   0.00113  -0.01054   0.00524
   5 2   C  1S         -0.06446   0.00701   0.02231  -0.31364
   6        1PX         0.16954   0.16565  -0.39325   0.31452
   7        1PY        -0.34783   0.09398   0.13671   0.30878
   8        1PZ        -0.00878  -0.00195   0.00707  -0.01053
   9 3   O  1S         -0.00947   0.01269   0.01392  -0.04255
  10        1PX         0.33824   0.12817  -0.33226  -0.27228
  11        1PY        -0.03839  -0.03826   0.04018  -0.08743
  12        1PZ         0.00855   0.00399  -0.00711  -0.00260
  13 4   C  1S          0.01585   0.04285   0.13816   0.06952
  14        1PX         0.03486   0.09231  -0.15876  -0.16691
  15        1PY         0.39347   0.22579  -0.15298  -0.22298
  16        1PZ        -0.00977  -0.00331  -0.00370  -0.00432
  17 5   C  1S          0.01854  -0.28211   0.01943   0.19358
  18        1PX         0.08497  -0.30406   0.22986   0.05170
  19        1PY         0.47031  -0.06891   0.14421   0.07688
  20        1PZ        -0.00442  -0.00557  -0.00184   0.00821
  21 6   H  1S         -0.42865   0.47246  -0.24580  -0.23604
  22 7   H  1S          0.10929  -0.01125  -0.03865  -0.01177
  23 8   H  1S          0.08792   0.18159  -0.31137   0.63758
  24 9   H  1S          0.17258   0.52966   0.46778   0.09569
     Density Matrix:
                           1         2         3         4         5
   1 1   C  1S          1.20317
   2        1PX        -0.06184   0.99408
   3        1PY         0.10784  -0.08039   1.04883
   4        1PZ         0.01201   0.00418  -0.00417   1.06480
   5 2   C  1S          0.29827  -0.17319  -0.46774  -0.02130   1.22764
   6        1PX         0.13992   0.05526  -0.19600  -0.00038  -0.12483
   7        1PY         0.44449  -0.29176  -0.55764  -0.02252  -0.03312
   8        1PZ         0.02082   0.01109  -0.03090   0.80010  -0.00640
   9 3   O  1S          0.00025  -0.04197  -0.00572   0.00018   0.09687
  10        1PX        -0.01448  -0.02563  -0.03371   0.00538  -0.32482
  11        1PY        -0.07301  -0.03805   0.06255   0.00703   0.27058
  12        1PZ        -0.00612  -0.01074   0.00460  -0.26190  -0.01058
  13 4   C  1S         -0.01593   0.01018   0.02626   0.00107   0.02401
  14        1PX         0.01860  -0.04110  -0.02007   0.00173  -0.01098
  15        1PY        -0.00294  -0.06985  -0.02018   0.00274  -0.05222
  16        1PZ         0.00004   0.00435   0.00127  -0.08219   0.00741
  17 5   C  1S          0.26673   0.45620   0.01740  -0.02210  -0.01933
  18        1PX        -0.46782  -0.66859  -0.04216   0.02696  -0.00355
  19        1PY         0.05489   0.10564   0.10973   0.00320   0.03080
  20        1PZ         0.01491   0.02399  -0.00792   0.52689  -0.00245
  21 6   H  1S         -0.02922  -0.03205   0.00481   0.00347   0.04382
  22 7   H  1S          0.04177   0.05205   0.00049  -0.00292   0.05347
  23 8   H  1S         -0.03218   0.00826   0.04556   0.00770   0.62792
  24 9   H  1S          0.57752  -0.43592   0.62250   0.01242  -0.03411
                           6         7         8         9        10
   6        1PX         0.99323
   7        1PY         0.10929   0.95221
   8        1PZ         0.00456  -0.00766   1.11643
   9 3   O  1S          0.21711  -0.15987  -0.00235   1.85057
  10        1PX        -0.43014   0.42728  -0.00429  -0.01379   1.10680
  11        1PY         0.51000  -0.25250  -0.00415  -0.31344   0.00217
  12        1PZ        -0.00558   0.00225   0.45831  -0.00137  -0.01213
  13 4   C  1S          0.01250  -0.05414  -0.00482   0.10445   0.34868
  14        1PX         0.06577  -0.02265   0.00945  -0.23443  -0.46404
  15        1PY         0.00853  -0.00947  -0.01374  -0.14951  -0.40991
  16        1PZ        -0.00045   0.00800  -0.35119  -0.00364  -0.01596
  17 5   C  1S         -0.02471   0.00007   0.00138   0.00407   0.01032
  18        1PX        -0.03082   0.07705   0.00439   0.04230  -0.02205
  19        1PY         0.02831  -0.02585  -0.00249  -0.01124   0.03777
  20        1PZ        -0.00728   0.00133  -0.10368   0.00290   0.00573
  21 6   H  1S          0.01341   0.05013   0.00090   0.02150   0.04821
  22 7   H  1S          0.09060  -0.05597  -0.00051  -0.04240  -0.03173
  23 8   H  1S         -0.63465  -0.31960   0.01193  -0.03593   0.02588
  24 9   H  1S         -0.03036  -0.02367  -0.00279   0.02184  -0.04308
                          11        12        13        14        15
  11        1PY         1.30918
  12        1PZ        -0.00336   1.64833
  13 4   C  1S          0.26729   0.00937   1.23456
  14        1PX        -0.51373  -0.02376   0.13436   0.98910
  15        1PY        -0.18797  -0.00113  -0.05157  -0.11471   0.97624
  16        1PZ        -0.00672   0.47845   0.00762  -0.00223   0.00488
  17 5   C  1S         -0.07345   0.00767   0.31323  -0.09166   0.46144
  18        1PX         0.04305  -0.00372   0.13873   0.10317   0.23030
  19        1PY         0.05835  -0.00386  -0.48931   0.12460  -0.57831
  20        1PZ        -0.00346  -0.26623   0.01517  -0.02159   0.03468
  21 6   H  1S          0.07035  -0.00157  -0.03689   0.02591  -0.03025
  22 7   H  1S         -0.05899  -0.00107   0.59399   0.61985  -0.37790
  23 8   H  1S         -0.05854   0.00148   0.04797  -0.08026  -0.04193
  24 9   H  1S          0.07107   0.00205   0.04432  -0.00703   0.04908
                          16        17        18        19        20
  16        1PZ         1.08534
  17 5   C  1S         -0.02759   1.19723
  18        1PX         0.00016   0.07829   1.00487
  19        1PY         0.03188   0.10638   0.08310   1.03582
  20        1PZ         0.79427  -0.01230   0.00393   0.00418   1.08270
  21 6   H  1S          0.00520   0.57713   0.47004   0.59498   0.00038
  22 7   H  1S          0.02147  -0.03571  -0.00737   0.04941  -0.00056
  23 8   H  1S         -0.00595   0.03742  -0.04603   0.00263   0.00172
  24 9   H  1S         -0.00345  -0.03051   0.03819  -0.00216  -0.00181
                          21        22        23        24
  21 6   H  1S          0.72673
  22 7   H  1S          0.00405   0.69882
  23 8   H  1S         -0.00168  -0.01591   0.72132
  24 9   H  1S         -0.00712  -0.00243   0.00620   0.73200
    Full Mulliken population analysis:
                           1         2         3         4         5
   1 1   C  1S          1.20317
   2        1PX         0.00000   0.99408
   3        1PY         0.00000   0.00000   1.04883
   4        1PZ         0.00000   0.00000   0.00000   1.06480
   5 2   C  1S          0.00000   0.00000   0.00000   0.00000   1.22764
   6        1PX         0.00000   0.00000   0.00000   0.00000   0.00000
   7        1PY         0.00000   0.00000   0.00000   0.00000   0.00000
   8        1PZ         0.00000   0.00000   0.00000   0.00000   0.00000
   9 3   O  1S          0.00000   0.00000   0.00000   0.00000   0.00000
  10        1PX         0.00000   0.00000   0.00000   0.00000   0.00000
  11        1PY         0.00000   0.00000   0.00000   0.00000   0.00000
  12        1PZ         0.00000   0.00000   0.00000   0.00000   0.00000
  13 4   C  1S          0.00000   0.00000   0.00000   0.00000   0.00000
  14        1PX         0.00000   0.00000   0.00000   0.00000   0.00000
  15        1PY         0.00000   0.00000   0.00000   0.00000   0.00000
  16        1PZ         0.00000   0.00000   0.00000   0.00000   0.00000
  17 5   C  1S          0.00000   0.00000   0.00000   0.00000   0.00000
  18        1PX         0.00000   0.00000   0.00000   0.00000   0.00000
  19        1PY         0.00000   0.00000   0.00000   0.00000   0.00000
  20        1PZ         0.00000   0.00000   0.00000   0.00000   0.00000
  21 6   H  1S          0.00000   0.00000   0.00000   0.00000   0.00000
  22 7   H  1S          0.00000   0.00000   0.00000   0.00000   0.00000
  23 8   H  1S          0.00000   0.00000   0.00000   0.00000   0.00000
  24 9   H  1S          0.00000   0.00000   0.00000   0.00000   0.00000
                           6         7         8         9        10
   6        1PX         0.99323
   7        1PY         0.00000   0.95221
   8        1PZ         0.00000   0.00000   1.11643
   9 3   O  1S          0.00000   0.00000   0.00000   1.85057
  10        1PX         0.00000   0.00000   0.00000   0.00000   1.10680
  11        1PY         0.00000   0.00000   0.00000   0.00000   0.00000
  12        1PZ         0.00000   0.00000   0.00000   0.00000   0.00000
  13 4   C  1S          0.00000   0.00000   0.00000   0.00000   0.00000
  14        1PX         0.00000   0.00000   0.00000   0.00000   0.00000
  15        1PY         0.00000   0.00000   0.00000   0.00000   0.00000
  16        1PZ         0.00000   0.00000   0.00000   0.00000   0.00000
  17 5   C  1S          0.00000   0.00000   0.00000   0.00000   0.00000
  18        1PX         0.00000   0.00000   0.00000   0.00000   0.00000
  19        1PY         0.00000   0.00000   0.00000   0.00000   0.00000
  20        1PZ         0.00000   0.00000   0.00000   0.00000   0.00000
  21 6   H  1S          0.00000   0.00000   0.00000   0.00000   0.00000
  22 7   H  1S          0.00000   0.00000   0.00000   0.00000   0.00000
  23 8   H  1S          0.00000   0.00000   0.00000   0.00000   0.00000
  24 9   H  1S          0.00000   0.00000   0.00000   0.00000   0.00000
                          11        12        13        14        15
  11        1PY         1.30918
  12        1PZ         0.00000   1.64833
  13 4   C  1S          0.00000   0.00000   1.23456
  14        1PX         0.00000   0.00000   0.00000   0.98910
  15        1PY         0.00000   0.00000   0.00000   0.00000   0.97624
  16        1PZ         0.00000   0.00000   0.00000   0.00000   0.00000
  17 5   C  1S          0.00000   0.00000   0.00000   0.00000   0.00000
  18        1PX         0.00000   0.00000   0.00000   0.00000   0.00000
  19        1PY         0.00000   0.00000   0.00000   0.00000   0.00000
  20        1PZ         0.00000   0.00000   0.00000   0.00000   0.00000
  21 6   H  1S          0.00000   0.00000   0.00000   0.00000   0.00000
  22 7   H  1S          0.00000   0.00000   0.00000   0.00000   0.00000
  23 8   H  1S          0.00000   0.00000   0.00000   0.00000   0.00000
  24 9   H  1S          0.00000   0.00000   0.00000   0.00000   0.00000
                          16        17        18        19        20
  16        1PZ         1.08534
  17 5   C  1S          0.00000   1.19723
  18        1PX         0.00000   0.00000   1.00487
  19        1PY         0.00000   0.00000   0.00000   1.03582
  20        1PZ         0.00000   0.00000   0.00000   0.00000   1.08270
  21 6   H  1S          0.00000   0.00000   0.00000   0.00000   0.00000
  22 7   H  1S          0.00000   0.00000   0.00000   0.00000   0.00000
  23 8   H  1S          0.00000   0.00000   0.00000   0.00000   0.00000
  24 9   H  1S          0.00000   0.00000   0.00000   0.00000   0.00000
                          21        22        23        24
  21 6   H  1S          0.72673
  22 7   H  1S          0.00000   0.69882
  23 8   H  1S          0.00000   0.00000   0.72132
  24 9   H  1S          0.00000   0.00000   0.00000   0.73200
     Gross orbital populations:
                           1
   1 1   C  1S          1.20317
   2        1PX         0.99408
   3        1PY         1.04883
   4        1PZ         1.06480
   5 2   C  1S          1.22764
   6        1PX         0.99323
   7        1PY         0.95221
   8        1PZ         1.11643
   9 3   O  1S          1.85057
  10        1PX         1.10680
  11        1PY         1.30918
  12        1PZ         1.64833
  13 4   C  1S          1.23456
  14        1PX         0.98910
  15        1PY         0.97624
  16        1PZ         1.08534
  17 5   C  1S          1.19723
  18        1PX         1.00487
  19        1PY         1.03582
  20        1PZ         1.08270
  21 6   H  1S          0.72673
  22 7   H  1S          0.69882
  23 8   H  1S          0.72132
  24 9   H  1S          0.73200
          Condensed to atoms (all electrons):
               1          2          3          4          5          6
     1  C    4.310879   0.000000   0.000000   0.000000   0.000000   0.000000
     2  C    0.000000   4.289509   0.000000   0.000000   0.000000   0.000000
     3  O    0.000000   0.000000   5.914887   0.000000   0.000000   0.000000
     4  C    0.000000   0.000000   0.000000   4.285240   0.000000   0.000000
     5  C    0.000000   0.000000   0.000000   0.000000   4.320618   0.000000
     6  H    0.000000   0.000000   0.000000   0.000000   0.000000   0.726730
     7  H    0.000000   0.000000   0.000000   0.000000   0.000000   0.000000
     8  H    0.000000   0.000000   0.000000   0.000000   0.000000   0.000000
     9  H    0.000000   0.000000   0.000000   0.000000   0.000000   0.000000
               7          8          9
     1  C    0.000000   0.000000   0.000000
     2  C    0.000000   0.000000   0.000000
     3  O    0.000000   0.000000   0.000000
     4  C    0.000000   0.000000   0.000000
     5  C    0.000000   0.000000   0.000000
     6  H    0.000000   0.000000   0.000000
     7  H    0.698820   0.000000   0.000000
     8  H    0.000000   0.721321   0.000000
     9  H    0.000000   0.000000   0.731996
 Mulliken charges:
               1
     1  C   -0.310879
     2  C   -0.289509
     3  O    0.085113
     4  C   -0.285240
     5  C   -0.320618
     6  H    0.273270
     7  H    0.301180
     8  H    0.278679
     9  H    0.268004
 Sum of Mulliken charges =   0.00000
 Mulliken charges with hydrogens summed into heavy atoms:
               1
     1  C   -0.042875
     2  C   -0.010830
     3  O    0.085113
     4  C    0.015940
     5  C   -0.047348
 Charge=              0.0000 electrons
 Dipole moment (field-independent basis, Debye):
    X=              0.2858    Y=              0.3657    Z=              0.1384  Tot=              0.4843
 N-N= 1.030033587953D+02 E-N=-1.701179236182D+02  KE=-1.798702609544D+01
 Orbital energies and kinetic energies (alpha):
                                 1                 2
   1         O                -1.634130         -1.390585
   2         O                -1.275539         -1.118124
   3         O                -1.126522         -1.012653
   4         O                -0.857071         -0.746972
   5         O                -0.843256         -0.774646
   6         O                -0.727784         -0.652900
   7         O                -0.652685         -0.551447
   8         O                -0.599262         -0.547271
   9         O                -0.537674         -0.472099
  10         O                -0.536942         -0.456584
  11         O                -0.532056         -0.475435
  12         O                -0.438197         -0.405260
  13         O                -0.402176         -0.389537
  14         V                -0.018420         -0.256462
  15         V                 0.010077         -0.265267
  16         V                 0.056323         -0.206537
  17         V                 0.112700         -0.195352
  18         V                 0.138356         -0.203192
  19         V                 0.147500         -0.244227
  20         V                 0.161667         -0.210975
  21         V                 0.172434         -0.167233
  22         V                 0.176591         -0.237973
  23         V                 0.182414         -0.187491
  24         V                 0.184465         -0.207813
 Total kinetic energy from orbitals=-1.798702609544D+01
 Leave Link  601 at Sat Nov 14 17:36:38 2015, MaxMem=    33554432 cpu:         0.0
 (Enter /home/Applications/g09/g09/l701.exe)
 Compute integral first derivatives.
 ... and contract with generalized density number  6.
 Leave Link  701 at Sat Nov 14 17:36:38 2015, MaxMem=    33554432 cpu:         0.0
 (Enter /home/Applications/g09/g09/l702.exe)
 L702 exits ... SP integral derivatives will be done elsewhere.
 Leave Link  702 at Sat Nov 14 17:36:38 2015, MaxMem=    33554432 cpu:         0.0
 (Enter /home/Applications/g09/g09/l703.exe)
 Compute integral first derivatives, UseDBF=F ICtDFT=           0.
 Integral derivatives from FoFJK, PRISM(SPDF).
 Calling FoFJK, ICntrl=  10005127 FMM=F ISym2X=0 I1Cent= 0 IOpClX= 0 NMat=1 NMatS=1 NMatT=0.
 FoFJK:  IHMeth= 8 ICntrl=10005127 DoSepK=F KAlg= 0 I1Cent=   0 FoldK=F
 IRaf=         0 NMat=   1 IRICut=       1 DoRegI=T DoRafI=F ISym2E= 0.
 FoFCou: FMM=F IPFlag=           0 FMFlag=      100000 FMFlg1=         800
         NFxFlg=           0 DoJE=F BraDBF=F KetDBF=F FulRan=T
         wScrn=  0.000000 ICntrl=10005127 IOpCl=  0 I1Cent=           0 NGrid=           0
         NMat0=    1 NMatS0=      1 NMatT0=    0 NMatD0=    1 NMtDS0=    0 NMtDT0=    0
 Symmetry not used in FoFCou.
 Leave Link  703 at Sat Nov 14 17:36:38 2015, MaxMem=    33554432 cpu:         0.0
 (Enter /home/Applications/g09/g09/l716.exe)
 Dipole        = 1.96375579D-01 2.35503849D-01 7.15150490D-02
 ***** Axes restored to original set *****
 -------------------------------------------------------------------
 Center     Atomic                   Forces (Hartrees/Bohr)
 Number     Number              X              Y              Z
 -------------------------------------------------------------------
      1        6           0.072741761    0.032790492    0.009489340
      2        6           0.007735201    0.039582468   -0.006107521
      3        8          -0.077116930   -0.010883717    0.002792111
      4        6          -0.054568737    0.074006404    0.001888888
      5        6           0.099596418   -0.047917791   -0.008196441
      6        1          -0.015026235   -0.012334482    0.001733206
      7        1           0.005877700   -0.024945997   -0.000516956
      8        1          -0.035111945   -0.060726357   -0.000335960
      9        1          -0.004127233    0.010428981   -0.000746666
 -------------------------------------------------------------------
 Cartesian Forces:  Max     0.099596418 RMS     0.038977614
 Z-matrix is all fixed cartesians, so copy forces.
 Force constants in Cartesian coordinates: 
                1             2             3             4             5 
      1  0.820167D+00
      2 -0.325894D-01  0.735214D+00
      3 -0.141894D-01  0.153686D-01  0.172060D+00
      4 -0.439330D+00 -0.906831D-01  0.115244D-01  0.866462D+00
      5 -0.710634D-01 -0.201440D+00  0.120703D-02  0.475486D-01  0.963665D+00
      6  0.108321D-01  0.671923D-03 -0.866714D-01 -0.336189D-02  0.113332D-01
      7 -0.868628D-02  0.285482D-01 -0.181613D-03 -0.270274D+00  0.153614D+00
      8 -0.608592D-02  0.200426D-01 -0.301310D-03  0.196188D+00 -0.365715D+00
      9  0.745106D-03 -0.829968D-03  0.695738D-02 -0.259448D-02  0.269001D-02
     10  0.877281D-02  0.278718D-04  0.197444D-03  0.249436D-01  0.175007D-01
     11  0.338929D-01  0.910480D-04  0.131694D-02 -0.183502D-01 -0.128839D-01
     12  0.168229D-02 -0.189967D-03  0.333828D-03  0.238089D-03  0.298966D-03
     13 -0.159947D+00  0.120870D-01  0.753768D-03  0.992451D-02 -0.328051D-01
     14 -0.108140D-01 -0.368426D+00 -0.140384D-01  0.559025D-04 -0.200278D-03
     15  0.254864D-03 -0.131584D-01 -0.714777D-01 -0.429696D-03  0.151411D-02
     16  0.162636D-01  0.786372D-04 -0.251939D-03  0.353060D-05 -0.373955D-05
     17 -0.221017D-01 -0.110171D-03  0.428055D-03 -0.416434D-05  0.441080D-05
     18 -0.154991D-02 -0.574386D-03  0.147149D-01  0.108306D-03 -0.114715D-03
     19  0.695393D-05  0.615435D-05 -0.158725D-03  0.000000D+00  0.000000D+00
     20 -0.622431D-05 -0.550862D-05  0.142071D-03  0.138553D-05  0.144178D-05
     21 -0.254424D-03 -0.225169D-03  0.580727D-02  0.475266D-04  0.494561D-04
     22  0.838403D-02 -0.277022D-01 -0.133256D-02 -0.186452D+00 -0.132200D+00
     23 -0.384954D-02  0.126428D-01 -0.335307D-03 -0.128133D+00 -0.405232D+00
     24  0.135649D-03  0.152735D-02  0.243693D-01 -0.650339D-02 -0.154846D-01
     25 -0.245630D+00  0.110227D+00  0.363857D-02 -0.527673D-02  0.174101D-01
     26  0.112617D+00 -0.198009D+00 -0.378763D-02 -0.662328D-02  0.218001D-01
     27  0.234373D-02 -0.258995D-02 -0.660936D-01  0.971090D-03 -0.149337D-02
                6             7             8             9            10 
      6  0.177300D+00
      7 -0.415350D-03  0.543245D+00
      8  0.551449D-03  0.296206D-01  0.740288D+00
      9 -0.444411D-01 -0.256885D-02 -0.727742D-02  0.553054D-01
     10 -0.296804D-03 -0.301977D+00 -0.226563D+00  0.327896D-02  0.909141D+00
     11  0.372126D-03 -0.181327D+00 -0.401141D+00  0.686192D-02  0.307074D-01
     12 -0.148062D-02  0.233109D-02  0.655736D-02 -0.477068D-01  0.154342D-01
     13 -0.168502D-02 -0.775408D-02  0.569080D-02 -0.926927D-03 -0.494665D+00
     14 -0.273103D-03 -0.296502D-01  0.218046D-01 -0.136872D-02  0.944350D-01
     15 -0.858455D-03  0.664930D-03 -0.390713D-03  0.910589D-02 -0.139281D-01
     16  0.972972D-04  0.384413D-05 -0.535258D-05 -0.155425D-03 -0.439698D-02
     17 -0.114762D-03 -0.616501D-05  0.858417D-05  0.249263D-03  0.596684D-02
     18  0.298471D-02 -0.161706D-03  0.225160D-03  0.653808D-02 -0.104063D-02
     19 -0.913029D-04  0.213890D-01 -0.157322D-01  0.727387D-03 -0.141817D+00
     20  0.151646D-03  0.102457D-01 -0.753351D-02  0.501271D-03  0.779205D-01
     21  0.520178D-02 -0.212358D-03  0.222238D-03  0.406124D-02 -0.355207D-02
     22 -0.560863D-02  0.240508D-01  0.168852D-01  0.136906D-02 -0.167710D-05
     23 -0.127046D-01 -0.110451D-01 -0.775497D-02 -0.825814D-03 -0.103349D-05
     24 -0.730578D-01  0.444767D-03  0.327961D-03  0.510059D-02  0.464169D-04
     25  0.529618D-03  0.244179D-05  0.210121D-05  0.125165D-03  0.000000D+00
     26  0.121848D-04  0.000000D+00  0.000000D+00  0.000000D+00  0.538142D-05
     27  0.210229D-01  0.990906D-04  0.852692D-04  0.507933D-02 -0.139364D-03
               11            12            13            14            15 
     11  0.861081D+00
     12 -0.178522D-01  0.181090D+00
     13  0.701291D-01 -0.159035D-01  0.873000D+00
     14 -0.204853D+00  0.447513D-02  0.223223D-01  0.721198D+00
     15  0.364064D-02 -0.971153D-01  0.130172D-01  0.866851D-02  0.185551D+00
     16 -0.168445D-01  0.221576D-03 -0.244597D+00 -0.101656D+00  0.112269D-02
     17  0.228762D-01 -0.164077D-03 -0.102283D+00 -0.181809D+00 -0.758511D-04
     18 -0.956776D-03  0.234757D-01  0.346367D-02  0.161328D-02 -0.714216D-01
     19  0.817927D-01 -0.380052D-02  0.661580D-02  0.252477D-01 -0.108334D-02
     20 -0.265175D+00  0.711072D-02  0.315646D-02  0.121683D-01  0.429190D-03
     21  0.669238D-02 -0.668579D-01 -0.401482D-03  0.172529D-02  0.252490D-01
     22 -0.174518D-05 -0.183558D-03  0.873520D-05 -0.925218D-05  0.240727D-03
     23 -0.107544D-05 -0.113115D-03 -0.120242D-04  0.127359D-04 -0.331367D-03
     24  0.483013D-04  0.508032D-02  0.206502D-03 -0.218724D-03  0.569084D-02
     25  0.000000D+00 -0.196434D-04  0.174150D-01  0.683611D-04  0.140802D-03
     26  0.476265D-05 -0.122832D-03  0.217145D-01  0.103438D-03 -0.296079D-03
     27 -0.123339D-03  0.318100D-02  0.147584D-02 -0.583228D-03  0.152763D-01
               16            17            18            19            20 
     16  0.232729D+00
     17  0.118420D+00  0.159045D+00
     18 -0.110722D-02 -0.141038D-03  0.378356D-01
     19 -0.614991D-05  0.986288D-05  0.258700D-03  0.113813D+00
     20  0.550465D-05 -0.882804D-05 -0.231557D-03 -0.913233D-01  0.260553D+00
     21  0.225007D-03 -0.360854D-03 -0.946508D-02  0.414780D-02 -0.810334D-02
     22  0.000000D+00  0.000000D+00  0.000000D+00  0.000000D+00  0.000000D+00
     23  0.000000D+00  0.000000D+00  0.000000D+00  0.000000D+00  0.000000D+00
     24  0.000000D+00  0.000000D+00  0.000000D+00  0.000000D+00  0.000000D+00
     25  0.000000D+00 -0.110699D-05  0.287905D-04  0.000000D+00  0.000000D+00
     26  0.586870D-05 -0.692214D-05  0.180030D-03  0.000000D+00  0.000000D+00
     27 -0.151983D-03  0.179264D-03 -0.466226D-02  0.000000D+00  0.000000D+00
               21            22            23            24            25 
     21  0.360036D-01
     22  0.000000D+00  0.154019D+00
     23  0.000000D+00  0.143028D+00  0.400332D+00
     24  0.000000D+00  0.588648D-02  0.137988D-01  0.415998D-01
     25  0.000000D+00 -0.915522D-05  0.126024D-04 -0.216432D-03  0.233497D+00
     26  0.000000D+00  0.000000D+00  0.000000D+00  0.000000D+00 -0.127720D+00
     27  0.000000D+00 -0.371529D-03  0.511419D-03 -0.878303D-02 -0.422688D-02
               26            27 
     26  0.176108D+00
     27  0.401393D-02  0.349794D-01
 Leave Link  716 at Sat Nov 14 17:36:38 2015, MaxMem=    33554432 cpu:         0.0
 (Enter /home/Applications/g09/g09/l103.exe)

 GradGradGradGradGradGradGradGradGradGradGradGradGradGradGradGradGradGrad
 Berny optimization.
 Search for a local minimum.
 Step number   1 out of a maximum of    2
 All quantities printed in internal units (Hartrees-Bohrs-Radians)
 Second derivative matrix not updated -- first step.
 ITU=  0
     Eigenvalues ---    0.01564   0.02946   0.06685   0.07176   0.07831
     Eigenvalues ---    0.08025   0.12538   0.13126   0.15771   0.24483
     Eigenvalues ---    0.24726   0.28108   0.34695   0.42270   0.61511
     Eigenvalues ---    0.79194   1.06640   1.29936   1.40314   1.46693
     Eigenvalues ---    1.59536
 Quadratic step=4.375D-01 exceeds max=3.000D-01 adjusted using Lamda=-5.676D-02.
 Angle between NR and scaled steps=  22.19 degrees.
 Angle between quadratic step and forces=  35.30 degrees.
 Linear search not attempted -- first point.
 TrRot= -0.005888  0.008120  0.000377 -0.379192  0.000783  0.378617
 Variable       Old X    -DE/DX   Delta X   Delta X   Delta X     New X
                                 (Linear)    (Quad)   (Total)
    X1        1.80949   0.07274   0.00000   0.11796   0.11131   1.92079
    Y1       -1.37557   0.03279   0.00000   0.03467   0.04168  -1.33389
    Z1       -0.02186   0.00949   0.00000   0.02917   0.02775   0.00589
    X2       -0.71220   0.00774   0.00000  -0.00734  -0.01443  -0.72663
    Y2       -2.14174   0.03958   0.00000   0.04304   0.05157  -2.09017
    Z2        0.04019  -0.00611   0.00000  -0.03174  -0.03145   0.00874
    X3       -2.20587  -0.07712   0.00000  -0.15561  -0.16146  -2.36733
    Y3       -0.01367  -0.01088   0.00000   0.01286   0.02232   0.00865
    Z3        0.03361   0.00279   0.00000   0.01343   0.01552   0.04913
    X4       -0.69935  -0.05457   0.00000  -0.04369  -0.04838  -0.74773
    Y4        2.03301   0.07401   0.00000   0.02345   0.03199   2.06500
    Z4        0.00039   0.00189   0.00000   0.01368   0.01519   0.01558
    X5        1.79780   0.09960   0.00000   0.10558   0.10050   1.89830
    Y5        1.38227  -0.04792   0.00000  -0.04894  -0.04193   1.34034
    Z5        0.08456  -0.00820   0.00000  -0.03001  -0.03064   0.05392
    X6        3.49589  -0.01503   0.00000   0.03953   0.03517   3.53106
    Y6        2.63233  -0.01233   0.00000  -0.06034  -0.05427   2.57806
    Z6        0.07727   0.00173   0.00000  -0.01115  -0.01260   0.06467
    X7       -1.62282   0.00588   0.00000  -0.01376  -0.01745  -1.64027
    Y7        3.95935  -0.02495   0.00000  -0.04728  -0.03820   3.92115
    Z7       -0.07198  -0.00052   0.00000   0.00369   0.00639  -0.06559
    X8       -1.50409  -0.03511   0.00000  -0.07574  -0.08393  -1.58801
    Y8       -3.86877  -0.06073   0.00000  -0.07780  -0.06876  -3.93754
    Z8       -0.02687  -0.00034   0.00000  -0.01039  -0.01001  -0.03688
    X9        3.43346  -0.00413   0.00000   0.08610   0.07867   3.51213
    Y9       -2.67527   0.01043   0.00000   0.04949   0.05560  -2.61967
    Z9       -0.06202  -0.00075   0.00000   0.02277   0.01983  -0.04219
         Item               Value     Threshold  Converged?
 Maximum Force            0.099596     0.000450     NO 
 RMS     Force            0.038978     0.000300     NO 
 Maximum Displacement     0.161460     0.001800     NO 
 RMS     Displacement     0.057621     0.001200     NO 
 Predicted change in Energy=-2.744267D-02
 GradGradGradGradGradGradGradGradGradGradGradGradGradGradGradGradGradGrad

 Leave Link  103 at Sat Nov 14 17:36:38 2015, MaxMem=    33554432 cpu:         0.0
 (Enter /home/Applications/g09/g09/l9999.exe)
 1\1\GINC-DUSTIN-DESKTOP\Force\RAM1-FC\STO-3G\C4H4O1\DUSTIN\14-Nov-2015
 \0\\#P AM1(Input,print) CIS(Singlets,NStates=15) pop(full) force\\AM1-
 Reparam Input\\0,1\C,0.957539,-0.727921,-0.011569\C,-0.376882,-1.13336
 1,0.02127\O,-1.167296,-0.007233,0.017785\C,-0.370082,1.07582,0.000204\
 C,0.951355,0.731467,0.044746\H,1.849947,1.39297,0.040888\H,-0.858761,2
 .095197,-0.038091\H,-0.795928,-2.047266,-0.014219\H,1.81691,-1.415693,
 -0.03282\\Version=ES64L-G09RevD.01\State=1-A\HF=-1.2124088\RMSD=8.558e
 -09\RMSF=3.898e-02\Dipole=0.2420742,0.1886641,-0.0703263\PG=C01 [X(C4H
 4O1)]\\@


 THE SECRET OF SUCCESS IN LIFE IS TO EAT WHAT YOU LIKE, AND LET THE FOOD
 FIGHT IT OUT INSIDE YOU. -- FROM A FORTUNE COOKIE
 Job cpu time:       0 days  0 hours  0 minutes  0.7 seconds.
 File lengths (MBytes):  RWF=      7 Int=      0 D2E=      0 Chk=      2 Scr=      1
 Normal termination of Gaussian 09 at Sat Nov 14 17:36:38 2015.
