 Entering Gaussian System, Link 0=g09
 Input=FuranAM1_34.com
 Output=FuranAM1_34.log
 Initial command:
 /home/Applications/g09/g09/l1.exe "/home/Applications/g09/scratch/Gau-5774.inp" -scrdir="/home/Applications/g09/scratch/"
 Entering Link 1 = /home/Applications/g09/g09/l1.exe PID=      5776.
  
 Copyright (c) 1988,1990,1992,1993,1995,1998,2003,2009,2013,
            Gaussian, Inc.  All Rights Reserved.
  
 This is part of the Gaussian(R) 09 program.  It is based on
 the Gaussian(R) 03 system (copyright 2003, Gaussian, Inc.),
 the Gaussian(R) 98 system (copyright 1998, Gaussian, Inc.),
 the Gaussian(R) 94 system (copyright 1995, Gaussian, Inc.),
 the Gaussian 92(TM) system (copyright 1992, Gaussian, Inc.),
 the Gaussian 90(TM) system (copyright 1990, Gaussian, Inc.),
 the Gaussian 88(TM) system (copyright 1988, Gaussian, Inc.),
 the Gaussian 86(TM) system (copyright 1986, Carnegie Mellon
 University), and the Gaussian 82(TM) system (copyright 1983,
 Carnegie Mellon University). Gaussian is a federally registered
 trademark of Gaussian, Inc.
  
 This software contains proprietary and confidential information,
 including trade secrets, belonging to Gaussian, Inc.
  
 This software is provided under written license and may be
 used, copied, transmitted, or stored only in accord with that
 written license.
  
 The following legend is applicable only to US Government
 contracts under FAR:
  
                    RESTRICTED RIGHTS LEGEND
  
 Use, reproduction and disclosure by the US Government is
 subject to restrictions as set forth in subparagraphs (a)
 and (c) of the Commercial Computer Software - Restricted
 Rights clause in FAR 52.227-19.
  
 Gaussian, Inc.
 340 Quinnipiac St., Bldg. 40, Wallingford CT 06492
  
  
 ---------------------------------------------------------------
 Warning -- This program may not be used in any manner that
 competes with the business of Gaussian, Inc. or will provide
 assistance to any competitor of Gaussian, Inc.  The licensee
 of this program is prohibited from giving any competitor of
 Gaussian, Inc. access to this program.  By using this program,
 the user acknowledges that Gaussian, Inc. is engaged in the
 business of creating and licensing software in the field of
 computational chemistry and represents and warrants to the
 licensee that it is not a competitor of Gaussian, Inc. and that
 it will not use this program in any manner prohibited above.
 ---------------------------------------------------------------
  

 Cite this work as:
 Gaussian 09, Revision D.01,
 M. J. Frisch, G. W. Trucks, H. B. Schlegel, G. E. Scuseria, 
 M. A. Robb, J. R. Cheeseman, G. Scalmani, V. Barone, B. Mennucci, 
 G. A. Petersson, H. Nakatsuji, M. Caricato, X. Li, H. P. Hratchian, 
 A. F. Izmaylov, J. Bloino, G. Zheng, J. L. Sonnenberg, M. Hada, 
 M. Ehara, K. Toyota, R. Fukuda, J. Hasegawa, M. Ishida, T. Nakajima, 
 Y. Honda, O. Kitao, H. Nakai, T. Vreven, J. A. Montgomery, Jr., 
 J. E. Peralta, F. Ogliaro, M. Bearpark, J. J. Heyd, E. Brothers, 
 K. N. Kudin, V. N. Staroverov, T. Keith, R. Kobayashi, J. Normand, 
 K. Raghavachari, A. Rendell, J. C. Burant, S. S. Iyengar, J. Tomasi, 
 M. Cossi, N. Rega, J. M. Millam, M. Klene, J. E. Knox, J. B. Cross, 
 V. Bakken, C. Adamo, J. Jaramillo, R. Gomperts, R. E. Stratmann, 
 O. Yazyev, A. J. Austin, R. Cammi, C. Pomelli, J. W. Ochterski, 
 R. L. Martin, K. Morokuma, V. G. Zakrzewski, G. A. Voth, 
 P. Salvador, J. J. Dannenberg, S. Dapprich, A. D. Daniels, 
 O. Farkas, J. B. Foresman, J. V. Ortiz, J. Cioslowski, 
 and D. J. Fox, Gaussian, Inc., Wallingford CT, 2013.
 
 ******************************************
 Gaussian 09:  ES64L-G09RevD.01 24-Apr-2013
                15-Dec-2015 
 ******************************************
 ------------------------------------------------------------
 #P AM1(Input,print) CIS(Singlets,NStates=15) pop(full) force
 ------------------------------------------------------------
 1/10=7,30=1,38=1/1,3;
 2/12=2,17=6,18=5,40=1/2;
 3/5=2,16=1,25=1,41=700000,71=1,135=100,136=1/1,2,8,3;
 4/35=1/1;
 5/5=2,35=1,38=5/2;
 8/6=1,10=1,108=15/1;
 9/15=2,41=15,42=1,48=1,49=10/14;
 10/5=4/2;
 6/7=3,18=1/1;
 7/12=6,13=5,29=1/1,2,3,16;
 1/10=7,30=1/3;
 99//99;
 Leave Link    1 at Tue Dec 15 16:17:14 2015, MaxMem=           0 cpu:         0.0
 (Enter /home/Applications/g09/g09/l101.exe)
 -----------------
 AM1-Reparam Input
 -----------------
 Symbolic Z-matrix:
 Charge =  0 Multiplicity = 1
 6                     0.93312  -0.71347   0.04356 
 6                    -0.34095  -1.1317    0.03856 
 8                    -1.15131   0.04939   0.00099 
 6                    -0.38072   1.12257   0.00226 
 6                     0.93521   0.71114   0.04188 
 1                     1.83953   1.35569  -0.02428 
 1                    -0.87962   2.0933   -0.02127 
 1                    -0.79455  -2.09168  -0.01904 
 1                     1.81026  -1.40677  -0.01958 
 
 NAtoms=      9 NQM=        9 NQMF=       0 NMMI=      0 NMMIF=      0
                NMic=       0 NMicF=      0.
                    Isotopes and Nuclear Properties:
 (Nuclear quadrupole moments (NQMom) in fm**2, nuclear magnetic moments (NMagM)
  in nuclear magnetons)

  Atom         1           2           3           4           5           6           7           8           9
 IAtWgt=          12          12          16          12          12           1           1           1           1
 AtmWgt=  12.0000000  12.0000000  15.9949146  12.0000000  12.0000000   1.0078250   1.0078250   1.0078250   1.0078250
 NucSpn=           0           0           0           0           0           1           1           1           1
 AtZEff=   0.0000000   0.0000000   0.0000000   0.0000000   0.0000000   0.0000000   0.0000000   0.0000000   0.0000000
 NQMom=    0.0000000   0.0000000   0.0000000   0.0000000   0.0000000   0.0000000   0.0000000   0.0000000   0.0000000
 NMagM=    0.0000000   0.0000000   0.0000000   0.0000000   0.0000000   2.7928460   2.7928460   2.7928460   2.7928460
 AtZNuc=   6.0000000   6.0000000   8.0000000   6.0000000   6.0000000   1.0000000   1.0000000   1.0000000   1.0000000
 Leave Link  101 at Tue Dec 15 16:17:14 2015, MaxMem=    33554432 cpu:         0.0
 (Enter /home/Applications/g09/g09/l103.exe)

 GradGradGradGradGradGradGradGradGradGradGradGradGradGradGradGradGradGrad
 Berny optimization.
 Initialization pass.
 Trust Radius=3.00D-01 FncErr=1.00D-07 GrdErr=1.00D-07
 Number of steps in this run=      2 maximum allowed number of steps=      2.
 GradGradGradGradGradGradGradGradGradGradGradGradGradGradGradGradGradGrad

 Leave Link  103 at Tue Dec 15 16:17:14 2015, MaxMem=    33554432 cpu:         0.0
 (Enter /home/Applications/g09/g09/l202.exe)
                          Input orientation:                          
 ---------------------------------------------------------------------
 Center     Atomic      Atomic             Coordinates (Angstroms)
 Number     Number       Type             X           Y           Z
 ---------------------------------------------------------------------
      1          6           0        0.933117   -0.713469    0.043563
      2          6           0       -0.340954   -1.131697    0.038555
      3          8           0       -1.151305    0.049391    0.000987
      4          6           0       -0.380723    1.122565    0.002256
      5          6           0        0.935210    0.711138    0.041882
      6          1           0        1.839530    1.355690   -0.024278
      7          1           0       -0.879617    2.093296   -0.021265
      8          1           0       -0.794554   -2.091683   -0.019041
      9          1           0        1.810258   -1.406774   -0.019575
 ---------------------------------------------------------------------
                    Distance matrix (angstroms):
                    1          2          3          4          5
     1  C    0.000000
     2  C    1.340969   0.000000
     3  O    2.220041   1.432846   0.000000
     4  C    2.258075   2.254905   1.321174   0.000000
     5  C    1.424610   2.241572   2.189321   1.379319   0.000000
     6  H    2.260001   3.308406   3.263763   2.232616   1.112483
     7  H    3.341876   3.270217   2.062003   1.091681   2.282092
     8  H    2.210936   1.063317   2.170684   3.240849   3.294177
     9  H    1.119837   2.169507   3.300257   3.346406   2.292387
                    6          7          8          9
     6  H    0.000000
     7  H    2.817416   0.000000
     8  H    4.338526   4.185844   0.000000
     9  H    2.762623   4.414286   2.693352   0.000000
 Stoichiometry    C4H4O
 Framework group  C1[X(C4H4O)]
 Deg. of freedom    21
 Full point group                 C1      NOp   1
 Largest Abelian subgroup         C1      NOp   1
 Largest concise Abelian subgroup C1      NOp   1
                         Standard orientation:                         
 ---------------------------------------------------------------------
 Center     Atomic      Atomic             Coordinates (Angstroms)
 Number     Number       Type             X           Y           Z
 ---------------------------------------------------------------------
      1          6           0       -0.942754    0.721818   -0.008713
      2          6           0       -1.013396   -0.617276   -0.014587
      3          8           0        0.338747   -1.090956    0.005008
      4          6           0        1.173161   -0.066625    0.004058
      5          6           0        0.431732    1.096270   -0.017886
      6          1           0        0.818183    2.137040    0.053337
      7          1           0        2.240727   -0.294566    0.014654
      8          1           0       -1.820827   -1.306558    0.045322
      9          1           0       -1.840517    1.386614    0.069402
 ---------------------------------------------------------------------
 Rotational constants (GHZ):      9.6388382      8.9771671      4.6495490
 Leave Link  202 at Tue Dec 15 16:17:14 2015, MaxMem=    33554432 cpu:         0.0
 (Enter /home/Applications/g09/g09/l301.exe)

 Semi-emprical parameters in input format:
 Method=8 CoreType=1 PeptideFC=0.0114510000 RIJScale=0.5291770000
 ****
 H       
 PQN=1 NValence=1 F0ss=0.4721550000 ZetaOverlap=1.1880780000 U=-0.4188110000
 Beta=-0.2268830000 CoreKO=1.0589200000 KON=0,0,0,1.0589200000 KON=1,0,1,1.0589200000
 KON=0,1,1,1.0589200000 KON=2,1,1,1.0589200000 EISol=-0.4188110042 EHeat=0.0830298228
 Alpha=1.5252600000
 GCore=0.0085280000,1.4001430000,2.2676710000
 GCore=0.0003530000,1.4001430000,3.4015070000
 GCore=-0.0012730000,0.5600570000,3.9684250000
 ****
 C       
 PQN=2,2 NValence=4 F0ss=0.4494440000 F0sp=0.4215150000 F0pp=0.3768030000 F2pp=0.1898720000
 G1sp=0.2679030000
 ZetaOverlap=1.8086650000,1.6851160000
 U=-1.9120180000,-1.4557970000
 Beta=-0.5775440000,-0.2836780000 DDN=0,1,0.8236740000 DDN=1,1,0.7268010000
 CoreKO=1.1124280000 KON=0,0,0,1.1124280000 KON=1,0,1,0.8219700000 KON=0,1,1,1.1124280000
 KON=2,1,1,0.7783930000 EISol=-4.4398989268 EHeat=0.2723305520 Alpha=1.4014060000
 DipHyp=1.6472532266
 GCore=0.0007890000,1.4001430000,3.0235620000
 GCore=0.0031890000,1.4001430000,3.4959930000
 GCore=-0.0013930000,1.4001430000,3.8739390000
 GCore=-0.0000880000,1.4001430000,5.0077740000
 ****
 O       
 PQN=2,2 NValence=6 F0ss=0.5666750000 F0sp=0.5321300000 F0pp=0.4958710000 F2pp=0.2358080000
 G1sp=0.4343770000
 ZetaOverlap=3.1080320000,2.5240390000
 U=-3.5951870000,-2.8760900000
 Beta=-1.0757550000,-1.0757550000 DDN=0,1,0.4988900000 DDN=1,1,0.4852320000
 CoreKO=0.8822960000 KON=0,0,0,0.8822960000 KON=1,0,1,0.5019540000 KON=0,1,1,0.8822960000
 KON=2,1,1,0.5515580000 EISol=-11.6164441184 EHeat=0.0949133088 Alpha=2.3576810000
 DipHyp=0.9977225968
 GCore=0.0195120000,1.4001430000,1.6023330000
 GCore=0.0056550000,1.9602000000,2.7307880000
 ****
 
 Standard basis: VSTO-6G (5D, 7F)
 Ernie: Thresh=  0.10000D-02 Tol=  0.10000D-05 Strict=F.
  NNHCO=     0 NNPyr=     0 NCTC=     0               EPep=         0.000000000
    EC=        68.475546058  ECS=         1.776107674   EG=         0.348742792
   EHC=         0.000000000  EAt=       -31.051283842  AtH=         1.516354808
 EPDDG=         0.000000000  ECC=        70.600396524 EAtT=        32.567638650
 There are    24 symmetry adapted cartesian basis functions of A   symmetry.
 There are    24 symmetry adapted basis functions of A   symmetry.
    24 basis functions,   144 primitive gaussians,    24 cartesian basis functions
    13 alpha electrons       13 beta electrons
       nuclear repulsion energy       103.1680351746 Hartrees.
 IExCor=    0 DFT=F Ex=HF Corr=None ExCW=0 ScaHFX=  1.000000
 ScaDFX=  1.000000  1.000000  1.000000  1.000000 ScalE2=  1.000000  1.000000
 IRadAn=      0 IRanWt=     -1 IRanGd=            0 ICorTp=0 IEmpDi=  4
 Integral buffers will be    131072 words long.
 Regular integral format.
 Two-electron integral symmetry is turned off.
 Leave Link  301 at Tue Dec 15 16:17:14 2015, MaxMem=    33554432 cpu:         0.0
 (Enter /home/Applications/g09/g09/l302.exe)
 Do NDO integrals.
 NPDir=0 NMtPBC=     1 NCelOv=     1 NCel=       1 NClECP=     1 NCelD=      1
         NCelK=      1 NCelE2=     1 NClLst=     1 CellRange=     0.0.
 One-electron integrals computed using PRISM.
 NBasis=    24 RedAO= F EigKep=  0.00D+00  NBF=    24
 NBsUse=    24 1.00D-04 EigRej=  0.00D+00 NBFU=    24
 Leave Link  302 at Tue Dec 15 16:17:14 2015, MaxMem=    33554432 cpu:         0.0
 (Enter /home/Applications/g09/g09/l308.exe)
 Leave Link  308 at Tue Dec 15 16:17:14 2015, MaxMem=    33554432 cpu:         0.0
 (Enter /home/Applications/g09/g09/l303.exe)
 DipDrv:  MaxL=1.
 Leave Link  303 at Tue Dec 15 16:17:14 2015, MaxMem=    33554432 cpu:         0.0
 (Enter /home/Applications/g09/g09/l401.exe)
 Simple Huckel Guess.
 JPrj=0 DoOrth=F DoCkMO=F.
 Leave Link  401 at Tue Dec 15 16:17:14 2015, MaxMem=    33554432 cpu:         0.0
 (Enter /home/Applications/g09/g09/l502.exe)
 Closed shell SCF:
 Using DIIS extrapolation, IDIIS=  1040.
 Overlap will be assumed to be unity.
 Two-electron integral symmetry not used.
 Keep J ints in memory in canonical form, NReq=888082.
 IVT=       79475 IEndB=       79475 NGot=    33554432 MDV=    33473473
 LenX=    33473473 LenY=    33472456
 Requested convergence on RMS density matrix=1.00D-08 within 128 cycles.
 Requested convergence on MAX density matrix=1.00D-06.
 Requested convergence on             energy=1.00D-06.
 No special actions if energy rises.
 FoFCou: FMM=F IPFlag=           0 FMFlag=           0 FMFlg1=           0
         NFxFlg=           0 DoJE=F BraDBF=F KetDBF=F FulRan=T
         wScrn=  0.000000 ICntrl=     600 IOpCl=  2 I1Cent=           0 NGrid=           0
         NMat0=    1 NMatS0=     54 NMatT0=    0 NMatD0=    1 NMtDS0=    0 NMtDT0=    0
 Symmetry not used in FoFCou.

 Cycle   1  Pass 1  IDiag  1:
 E= 0.328386904835767    
 DIIS: error= 6.11D-02 at cycle   1 NSaved=   1.
 NSaved= 1 IEnMin= 1 EnMin= 0.328386904835767     IErMin= 1 ErrMin= 6.11D-02
 ErrMax= 6.11D-02  0.00D+00 EMaxC= 1.00D-01 BMatC= 1.10D-01 BMatP= 1.10D-01
 IDIUse=3 WtCom= 3.89D-01 WtEn= 6.11D-01
 Coeff-Com:  0.100D+01
 Coeff-En:   0.100D+01
 Coeff:      0.100D+01
 GapD=    2.000 DampG=2.000 DampE=0.500 DampFc=1.0000 IDamp=-1.
 RMSDP=1.93D-02 MaxDP=1.61D-01              OVMax= 0.00D+00

 Cycle   2  Pass 1  IDiag  1:
 E= 0.522119285601548E-01 Delta-E=       -0.276174976276 Rises=F Damp=F
 DIIS: error= 1.96D-02 at cycle   2 NSaved=   2.
 NSaved= 2 IEnMin= 2 EnMin= 0.522119285601548E-01 IErMin= 2 ErrMin= 1.96D-02
 ErrMax= 1.96D-02  0.00D+00 EMaxC= 1.00D-01 BMatC= 9.51D-03 BMatP= 1.10D-01
 IDIUse=3 WtCom= 8.04D-01 WtEn= 1.96D-01
 Coeff-Com: -0.359D+00 0.136D+01
 Coeff-En:   0.000D+00 0.100D+01
 Coeff:     -0.289D+00 0.129D+01
 RMSDP=8.25D-03 MaxDP=7.33D-02 DE=-2.76D-01 OVMax= 0.00D+00

 Cycle   3  Pass 1  IDiag  3:
 E= 0.214398049059952E-01 Delta-E=       -0.030772123654 Rises=F Damp=F
 DIIS: error= 4.08D-03 at cycle   3 NSaved=   3.
 NSaved= 3 IEnMin= 3 EnMin= 0.214398049059952E-01 IErMin= 3 ErrMin= 4.08D-03
 ErrMax= 4.08D-03  0.00D+00 EMaxC= 1.00D-01 BMatC= 3.90D-04 BMatP= 9.51D-03
 IDIUse=3 WtCom= 9.59D-01 WtEn= 4.08D-02
 Coeff-Com:  0.135D+00-0.607D+00 0.147D+01
 Coeff-En:   0.000D+00 0.000D+00 0.100D+01
 Coeff:      0.129D+00-0.582D+00 0.145D+01
 Gap=     0.372 Goal=   None    Shift=    0.000
 RMSDP=2.67D-03 MaxDP=3.04D-02 DE=-3.08D-02 OVMax= 3.39D-02

 Cycle   4  Pass 1  IDiag  3:
 E= 0.192345576862323E-01 Delta-E=       -0.002205247220 Rises=F Damp=F
 DIIS: error= 1.22D-03 at cycle   4 NSaved=   4.
 NSaved= 4 IEnMin= 4 EnMin= 0.192345576862323E-01 IErMin= 4 ErrMin= 1.22D-03
 ErrMax= 1.22D-03  0.00D+00 EMaxC= 1.00D-01 BMatC= 3.07D-05 BMatP= 3.90D-04
 IDIUse=3 WtCom= 9.88D-01 WtEn= 1.22D-02
 Coeff-Com:  0.142D-01-0.443D-01-0.229D+00 0.126D+01
 Coeff-En:   0.000D+00 0.000D+00 0.000D+00 0.100D+01
 Coeff:      0.140D-01-0.437D-01-0.226D+00 0.126D+01
 Gap=     0.373 Goal=   None    Shift=    0.000
 RMSDP=9.04D-04 MaxDP=1.08D-02 DE=-2.21D-03 OVMax= 1.20D-02

 Cycle   5  Pass 1  IDiag  3:
 E= 0.190367081780067E-01 Delta-E=       -0.000197849508 Rises=F Damp=F
 DIIS: error= 2.10D-04 at cycle   5 NSaved=   5.
 NSaved= 5 IEnMin= 5 EnMin= 0.190367081780067E-01 IErMin= 5 ErrMin= 2.10D-04
 ErrMax= 2.10D-04  0.00D+00 EMaxC= 1.00D-01 BMatC= 1.98D-06 BMatP= 3.07D-05
 IDIUse=3 WtCom= 9.98D-01 WtEn= 2.10D-03
 Coeff-Com: -0.751D-02 0.293D-01 0.345D-01-0.492D+00 0.144D+01
 Coeff-En:   0.000D+00 0.000D+00 0.000D+00 0.000D+00 0.100D+01
 Coeff:     -0.750D-02 0.292D-01 0.345D-01-0.491D+00 0.143D+01
 Gap=     0.373 Goal=   None    Shift=    0.000
 RMSDP=2.59D-04 MaxDP=2.02D-03 DE=-1.98D-04 OVMax= 2.36D-03

 Cycle   6  Pass 1  IDiag  3:
 E= 0.190219484765777E-01 Delta-E=       -0.000014759701 Rises=F Damp=F
 DIIS: error= 9.02D-05 at cycle   6 NSaved=   6.
 NSaved= 6 IEnMin= 6 EnMin= 0.190219484765777E-01 IErMin= 6 ErrMin= 9.02D-05
 ErrMax= 9.02D-05  0.00D+00 EMaxC= 1.00D-01 BMatC= 1.98D-07 BMatP= 1.98D-06
 IDIUse=1 WtCom= 1.00D+00 WtEn= 0.00D+00
 Coeff-Com:  0.348D-02-0.139D-01 0.264D-02 0.159D+00-0.726D+00 0.157D+01
 Coeff:      0.348D-02-0.139D-01 0.264D-02 0.159D+00-0.726D+00 0.157D+01
 Gap=     0.373 Goal=   None    Shift=    0.000
 RMSDP=9.97D-05 MaxDP=7.62D-04 DE=-1.48D-05 OVMax= 1.09D-03

 Cycle   7  Pass 1  IDiag  3:
 E= 0.190201419239600E-01 Delta-E=       -0.000001806553 Rises=F Damp=F
 DIIS: error= 3.36D-05 at cycle   7 NSaved=   7.
 NSaved= 7 IEnMin= 7 EnMin= 0.190201419239600E-01 IErMin= 7 ErrMin= 3.36D-05
 ErrMax= 3.36D-05  0.00D+00 EMaxC= 1.00D-01 BMatC= 1.76D-08 BMatP= 1.98D-07
 IDIUse=1 WtCom= 1.00D+00 WtEn= 0.00D+00
 Coeff-Com: -0.668D-03 0.219D-02 0.121D-02-0.424D-01 0.215D+00-0.721D+00
 Coeff-Com:  0.155D+01
 Coeff:     -0.668D-03 0.219D-02 0.121D-02-0.424D-01 0.215D+00-0.721D+00
 Coeff:      0.155D+01
 Gap=     0.373 Goal=   None    Shift=    0.000
 RMSDP=3.50D-05 MaxDP=3.01D-04 DE=-1.81D-06 OVMax= 3.42D-04

 Cycle   8  Pass 1  IDiag  3:
 E= 0.190199678067273E-01 Delta-E=       -0.000000174117 Rises=F Damp=F
 DIIS: error= 7.35D-06 at cycle   8 NSaved=   8.
 NSaved= 8 IEnMin= 8 EnMin= 0.190199678067273E-01 IErMin= 8 ErrMin= 7.35D-06
 ErrMax= 7.35D-06  0.00D+00 EMaxC= 1.00D-01 BMatC= 8.98D-10 BMatP= 1.76D-08
 IDIUse=1 WtCom= 1.00D+00 WtEn= 0.00D+00
 Coeff-Com:  0.675D-04 0.309D-04-0.155D-02 0.126D-01-0.603D-01 0.240D+00
 Coeff-Com: -0.728D+00 0.154D+01
 Coeff:      0.675D-04 0.309D-04-0.155D-02 0.126D-01-0.603D-01 0.240D+00
 Coeff:     -0.728D+00 0.154D+01
 Gap=     0.373 Goal=   None    Shift=    0.000
 RMSDP=7.89D-06 MaxDP=6.96D-05 DE=-1.74D-07 OVMax= 7.40D-05

 Cycle   9  Pass 1  IDiag  3:
 E= 0.190199597722795E-01 Delta-E=       -0.000000008034 Rises=F Damp=F
 DIIS: error= 8.74D-07 at cycle   9 NSaved=   9.
 NSaved= 9 IEnMin= 9 EnMin= 0.190199597722795E-01 IErMin= 9 ErrMin= 8.74D-07
 ErrMax= 8.74D-07  0.00D+00 EMaxC= 1.00D-01 BMatC= 3.03D-11 BMatP= 8.98D-10
 IDIUse=1 WtCom= 1.00D+00 WtEn= 0.00D+00
 Coeff-Com:  0.272D-04-0.227D-03 0.617D-03-0.252D-02 0.130D-01-0.668D-01
 Coeff-Com:  0.245D+00-0.654D+00 0.147D+01
 Coeff:      0.272D-04-0.227D-03 0.617D-03-0.252D-02 0.130D-01-0.668D-01
 Coeff:      0.245D+00-0.654D+00 0.147D+01
 Gap=     0.373 Goal=   None    Shift=    0.000
 RMSDP=1.02D-06 MaxDP=8.80D-06 DE=-8.03D-09 OVMax= 1.02D-05

 Cycle  10  Pass 1  IDiag  3:
 E= 0.190199595800067E-01 Delta-E=       -0.000000000192 Rises=F Damp=F
 DIIS: error= 1.62D-07 at cycle  10 NSaved=  10.
 NSaved=10 IEnMin=10 EnMin= 0.190199595800067E-01 IErMin=10 ErrMin= 1.62D-07
 ErrMax= 1.62D-07  0.00D+00 EMaxC= 1.00D-01 BMatC= 1.28D-12 BMatP= 3.03D-11
 IDIUse=1 WtCom= 1.00D+00 WtEn= 0.00D+00
 Coeff-Com: -0.145D-04 0.108D-03-0.273D-03 0.977D-03-0.472D-02 0.251D-01
 Coeff-Com: -0.946D-01 0.260D+00-0.701D+00 0.152D+01
 Coeff:     -0.145D-04 0.108D-03-0.273D-03 0.977D-03-0.472D-02 0.251D-01
 Coeff:     -0.946D-01 0.260D+00-0.701D+00 0.152D+01
 Gap=     0.373 Goal=   None    Shift=    0.000
 RMSDP=1.99D-07 MaxDP=1.63D-06 DE=-1.92D-10 OVMax= 1.39D-06

 Cycle  11  Pass 1  IDiag  3:
 E= 0.190199595723612E-01 Delta-E=       -0.000000000008 Rises=F Damp=F
 DIIS: error= 2.77D-08 at cycle  11 NSaved=  11.
 NSaved=11 IEnMin=11 EnMin= 0.190199595723612E-01 IErMin=11 ErrMin= 2.77D-08
 ErrMax= 2.77D-08  0.00D+00 EMaxC= 1.00D-01 BMatC= 5.08D-14 BMatP= 1.28D-12
 IDIUse=1 WtCom= 1.00D+00 WtEn= 0.00D+00
 Coeff-Com:  0.442D-05-0.352D-04 0.935D-04-0.362D-03 0.169D-02-0.874D-02
 Coeff-Com:  0.323D-01-0.871D-01 0.239D+00-0.619D+00 0.144D+01
 Coeff:      0.442D-05-0.352D-04 0.935D-04-0.362D-03 0.169D-02-0.874D-02
 Coeff:      0.323D-01-0.871D-01 0.239D+00-0.619D+00 0.144D+01
 Gap=     0.373 Goal=   None    Shift=    0.000
 RMSDP=4.04D-08 MaxDP=2.61D-07 DE=-7.65D-12 OVMax= 4.01D-07

 Cycle  12  Pass 1  IDiag  3:
 E= 0.190199595717360E-01 Delta-E=       -0.000000000001 Rises=F Damp=F
 DIIS: error= 7.44D-09 at cycle  12 NSaved=  12.
 NSaved=12 IEnMin=12 EnMin= 0.190199595717360E-01 IErMin=12 ErrMin= 7.44D-09
 ErrMax= 7.44D-09  0.00D+00 EMaxC= 1.00D-01 BMatC= 4.00D-15 BMatP= 5.08D-14
 IDIUse=1 WtCom= 1.00D+00 WtEn= 0.00D+00
 Coeff-Com: -0.955D-06 0.804D-05-0.212D-04 0.868D-04-0.388D-03 0.201D-02
 Coeff-Com: -0.732D-02 0.194D-01-0.540D-01 0.157D+00-0.590D+00 0.147D+01
 Coeff:     -0.955D-06 0.804D-05-0.212D-04 0.868D-04-0.388D-03 0.201D-02
 Coeff:     -0.732D-02 0.194D-01-0.540D-01 0.157D+00-0.590D+00 0.147D+01
 Gap=     0.373 Goal=   None    Shift=    0.000
 RMSDP=1.36D-08 MaxDP=6.12D-08 DE=-6.25D-13 OVMax= 1.72D-07

 Cycle  13  Pass 1  IDiag  3:
 E= 0.190199595716933E-01 Delta-E=        0.000000000000 Rises=F Damp=F
 DIIS: error= 2.28D-09 at cycle  13 NSaved=  13.
 NSaved=13 IEnMin=13 EnMin= 0.190199595716933E-01 IErMin=13 ErrMin= 2.28D-09
 ErrMax= 2.28D-09  0.00D+00 EMaxC= 1.00D-01 BMatC= 3.31D-16 BMatP= 4.00D-15
 IDIUse=1 WtCom= 1.00D+00 WtEn= 0.00D+00
 Coeff-Com:  0.102D-06-0.937D-06 0.228D-05-0.105D-04 0.382D-04-0.200D-03
 Coeff-Com:  0.689D-03-0.163D-02 0.443D-02-0.183D-01 0.136D+00-0.616D+00
 Coeff-Com:  0.149D+01
 Coeff:      0.102D-06-0.937D-06 0.228D-05-0.105D-04 0.382D-04-0.200D-03
 Coeff:      0.689D-03-0.163D-02 0.443D-02-0.183D-01 0.136D+00-0.616D+00
 Coeff:      0.149D+01
 Gap=     0.373 Goal=   None    Shift=    0.000
 RMSDP=4.11D-09 MaxDP=2.16D-08 DE=-4.26D-14 OVMax= 5.62D-08

 Cycle  14  Pass 2  IDiag  1:
 SCF Done:  E(RAM1) =  0.190199595717E-01 A.U. after   14 cycles
            NFock= 13  Conv=0.41D-08     -V/T= 1.0012
 KE=-1.650200711111D+01 PE=-1.706370150263D+02 EE= 8.399000692236D+01
 Leave Link  502 at Tue Dec 15 16:17:14 2015, MaxMem=    33554432 cpu:         0.0
 (Enter /home/Applications/g09/g09/l801.exe)
 Range of M.O.s used for correlation:     1    24
 NBasis=    24 NAE=    13 NBE=    13 NFC=     0 NFV=     0
 NROrb=     24 NOA=    13 NOB=    13 NVA=    11 NVB=    11
 Leave Link  801 at Tue Dec 15 16:17:14 2015, MaxMem=    33554432 cpu:         0.0
 (Enter /home/Applications/g09/g09/l914.exe)
 RHF ground state
 MDV=    33554432 DFT=F DoStab=F Mixed=F DoRPA=F DoScal=F NonHer=F
 Making orbital integer symmetry assigments:
 Orbital symmetries:
       Occupied  (A) (A) (A) (A) (A) (A) (A) (A) (A) (A) (A) (A)
                 (A)
       Virtual   (A) (A) (A) (A) (A) (A) (A) (A) (A) (A) (A)
    60 initial guesses have been made.
 Convergence on wavefunction:    0.000001000000000
 Davidson Disk Diagonalization:  ConvIn= 1.00D-06 SkipCon=T Conv= 1.00D-06.
 Max sub-space:   240 roots to seek:    60 dimension of matrix:          286
 Iteration     1 Dimension    60 NMult     0 NNew     60
 CISAX will form    60 AO SS matrices at one time.
 NMat=    60 NSing=    60 JSym2X= 0.
 FoFJK:  IHMeth= 8 ICntrl=       0 DoSepK=F KAlg= 0 I1Cent=   0 FoldK=F
 IRaf=         1 NMat= 120 IRICut=       1 DoRegI=T DoRafI=F ISym2E= 0.
 FoFCou: FMM=F IPFlag=           0 FMFlag=      100000 FMFlg1=           0
         NFxFlg=           0 DoJE=F BraDBF=F KetDBF=F FulRan=T
         wScrn=  0.000000 ICntrl=       0 IOpCl=  0 I1Cent=           0 NGrid=           0
         NMat0=  120 NMatS0=     60 NMatT0=    0 NMatD0=  120 NMtDS0=    0 NMtDT0=    0
 Symmetry not used in FoFCou.
 New state      2 was old state      4
 New state      3 was old state      2
 New state      4 was old state      7
 New state      5 was old state      6
 New state      6 was old state      9
 New state      7 was old state      3
 New state      9 was old state      5
 New state     10 was old state     11
 New state     11 was old state     17
 New state     12 was old state     19
 New state     13 was old state     18
 New state     14 was old state     16
 New state     15 was old state     10
 Excitation Energies [eV] at current iteration:
 Root      1 :     4.470562040668251
 Root      2 :     4.658689153164504
 Root      3 :     5.079620307016365
 Root      4 :     5.835980343112992
 Root      5 :     5.886235488439270
 Root      6 :     6.344438675937162
 Root      7 :     6.368603442536950
 Root      8 :     6.508202309608639
 Root      9 :     6.550166010953821
 Root     10 :     6.886857405068542
 Root     11 :     7.312900126311431
 Root     12 :     7.379206310584435
 Root     13 :     7.471304209827928
 Root     14 :     7.543562693129536
 Root     15 :     7.695246950449750
 Root     16 :     7.825241892161372
 Root     17 :     7.932147034244960
 Root     18 :     8.070738228406439
 Root     19 :     8.123465042193263
 Root     20 :     8.235283734066778
 Root     21 :     8.415288197728040
 Root     22 :     8.627074258527070
 Root     23 :     8.665604352442411
 Root     24 :     9.054851451271841
 Root     25 :     9.248212412423968
 Root     26 :     9.413691449312806
 Root     27 :     9.559083551009069
 Root     28 :     9.630782227680811
 Root     29 :     9.795904594607704
 Root     30 :     9.861983586543641
 Root     31 :     9.881566820978852
 Root     32 :     9.948809875773101
 Root     33 :     9.957188003979834
 Root     34 :    10.075704783088040
 Root     35 :    10.101702305814120
 Root     36 :    10.265917351369050
 Root     37 :    10.392002779141510
 Root     38 :    10.625201223851200
 Root     39 :    10.769254196693160
 Root     40 :    10.809658076811960
 Root     41 :    10.867642416636640
 Root     42 :    10.999420156750730
 Root     43 :    11.139525400110510
 Root     44 :    11.232267159499410
 Root     45 :    11.470743484272270
 Root     46 :    11.559067093470500
 Root     47 :    11.664016184689550
 Root     48 :    11.756867496593350
 Root     49 :    11.827800494224910
 Root     50 :    11.910915394591810
 Root     51 :    12.206107054484660
 Root     52 :    12.283019889783880
 Root     53 :    12.576485116172710
 Root     54 :    12.673541991233680
 Root     55 :    12.846293037371430
 Root     56 :    12.956670869736180
 Root     57 :    13.164138620525740
 Root     58 :    13.317287184738050
 Root     59 :    13.366763815601550
 Root     60 :    13.630559651151960
 Iteration     2 Dimension   120 NMult    60 NNew     60
 CISAX will form    60 AO SS matrices at one time.
 NMat=    60 NSing=    60 JSym2X= 0.
 Root      1 not converged, maximum delta is    0.044244251297121
 Root      2 not converged, maximum delta is    0.038010668568846
 Root      3 not converged, maximum delta is    0.015134164402970
 Root      4 not converged, maximum delta is    0.128105909363065
 Root      5 not converged, maximum delta is    0.166405420047546
 Root      6 not converged, maximum delta is    0.274781889098891
 Root      7 not converged, maximum delta is    0.303353445073788
 Root      8 not converged, maximum delta is    0.033372013762834
 Root      9 not converged, maximum delta is    0.029479353035307
 Root     10 not converged, maximum delta is    0.020610145397157
 Root     11 not converged, maximum delta is    0.062091591717586
 Root     12 not converged, maximum delta is    0.057749339928093
 New state     13 was old state     14
 Root     13 not converged, maximum delta is    0.162511595214081
 New state     14 was old state     13
 Root     14 not converged, maximum delta is    0.206465261657238
 Root     15 not converged, maximum delta is    0.058198852677408
 Excitation Energies [eV] at current iteration:
 Root      1 :     4.374326906876086   Change is   -0.096235133792165
 Root      2 :     4.617938512260057   Change is   -0.040750640904447
 Root      3 :     5.064526294006663   Change is   -0.015094013009702
 Root      4 :     5.764826386665320   Change is   -0.071153956447673
 Root      5 :     5.775444231065226   Change is   -0.110791257374044
 Root      6 :     6.204244968385338   Change is   -0.140193707551824
 Root      7 :     6.226233551525871   Change is   -0.142369891011079
 Root      8 :     6.454577707074185   Change is   -0.053624602534455
 Root      9 :     6.492689458690228   Change is   -0.057476552263592
 Root     10 :     6.842859963009560   Change is   -0.043997442058982
 Root     11 :     7.198345521958841   Change is   -0.114554604352591
 Root     12 :     7.276842738106405   Change is   -0.102363572478030
 Root     13 :     7.400803285433891   Change is   -0.142759407695645
 Root     14 :     7.420852813627899   Change is   -0.050451396200028
 Root     15 :     7.613975511893121   Change is   -0.081271438556629
 Root     16 :     7.751981636287955   Change is   -0.073260255873417
 Root     17 :     7.855754226223675   Change is   -0.076392808021285
 Root     18 :     7.928066171064990   Change is   -0.195398871128274
 Root     19 :     7.943179236689377   Change is   -0.292104497377401
 Root     20 :     8.008572708061253   Change is   -0.062165520345187
 Root     21 :     8.254118428668491   Change is   -0.161169769059550
 Root     22 :     8.591041813719798   Change is   -0.036032444807272
 Root     23 :     8.629716655824540   Change is   -0.035887696617872
 Root     24 :     8.980003171711905   Change is   -0.074848279559934
 Root     25 :     9.032436711039789   Change is   -0.381254738273016
 Root     26 :     9.172921715020184   Change is   -0.075290697403782
 Root     27 :     9.207607753002259   Change is   -0.351475798006809
 Root     28 :     9.322890180426242   Change is   -0.558676640552611
 Root     29 :     9.438096012357384   Change is   -0.192686215323425
 Root     30 :     9.505998791950606   Change is   -0.595703513863516
 Root     31 :     9.629148188884503   Change is   -0.328039815095331
 Root     32 :     9.673560646011227   Change is   -0.188422940532414
 Root     33 :     9.699485240842952   Change is   -0.096419353764752
 Root     34 :     9.740616577726007   Change is   -0.525300773643046
 Root     35 :     9.779508257958957   Change is   -0.169301617814143
 Root     36 :     9.860411233884930   Change is   -0.215293549203115
 Root     37 :    10.074004317493790   Change is   -0.317998461647721
 Root     38 :    10.214209103683670   Change is   -0.410992120167525
 Root     39 :    10.259486680688070   Change is   -0.509767516005089
 Root     40 :    10.451831538265240   Change is   -0.547588618485487
 Root     41 :    10.529249020771840   Change is   -0.280409056040117
 Root     42 :    10.605740793174190   Change is   -0.261901623462451
 Root     43 :    10.756743685076070   Change is   -0.382781715034437
 Root     44 :    10.909524978480940   Change is   -0.561218505791330
 Root     45 :    11.119755609069050   Change is   -0.544260575620500
 Root     46 :    11.159081308828570   Change is   -0.073185850670840
 Root     47 :    11.335171875761190   Change is   -0.223895217709310
 Root     48 :    11.511849929763950   Change is   -0.315950564460960
 Root     49 :    11.530528644273630   Change is   -0.226338852319720
 Root     50 :    11.678943861808590   Change is   -0.231971532783216
 Root     51 :    11.835314412395990   Change is   -0.370792642088674
 Root     52 :    11.895719708543850   Change is   -0.387300181240026
 Root     53 :    12.187005346417650   Change is   -0.486536644816026
 Root     54 :    12.208953583955840   Change is   -0.367531532216875
 Root     55 :    12.656662294202640   Change is   -0.189630743168786
 Root     56 :    12.847195762925030   Change is   -0.316942857600710
 Root     57 :    12.904244037436600   Change is   -0.052426832299579
 Root     58 :    12.933881868801080
 Root     59 :    13.065920445237020   Change is   -0.300843370364524
 Root     60 :    13.189897689134670   Change is   -0.440661962017292
 Iteration     3 Dimension   135 NMult   120 NNew     15
 CISAX will form    15 AO SS matrices at one time.
 NMat=    15 NSing=    15 JSym2X= 0.
 Root      1 not converged, maximum delta is    0.001785731833504
 Root      2 not converged, maximum delta is    0.000255872528310
 Root      3 not converged, maximum delta is    0.000499468755945
 Root      4 not converged, maximum delta is    0.000146266877886
 Root      5 not converged, maximum delta is    0.000086987349164
 Root      6 not converged, maximum delta is    0.003872783953199
 Root      7 not converged, maximum delta is    0.006274818688837
 Root      8 not converged, maximum delta is    0.001211125193022
 Root      9 not converged, maximum delta is    0.003690757184404
 Root     10 not converged, maximum delta is    0.000265856599127
 Root     11 not converged, maximum delta is    0.000163268622534
 Root     12 not converged, maximum delta is    0.000423487279737
 Root     13 not converged, maximum delta is    0.000983301806082
 Root     14 not converged, maximum delta is    0.001035687312965
 Root     15 not converged, maximum delta is    0.000196735180234
 Excitation Energies [eV] at current iteration:
 Root      1 :     4.373862825285116   Change is   -0.000464081590971
 Root      2 :     4.617921779429688   Change is   -0.000016732830370
 Root      3 :     5.064491255528702   Change is   -0.000035038477962
 Root      4 :     5.764814615943622   Change is   -0.000011770721698
 Root      5 :     5.775441056155254   Change is   -0.000003174909973
 Root      6 :     6.203533128082319   Change is   -0.000711840303019
 Root      7 :     6.226116115025198   Change is   -0.000117436500673
 Root      8 :     6.454570072456645   Change is   -0.000007634617540
 Root      9 :     6.491737690188755   Change is   -0.000951768501474
 Root     10 :     6.842836413490129   Change is   -0.000023549519430
 Root     11 :     7.198337905626983   Change is   -0.000007616331858
 Root     12 :     7.276793077152362   Change is   -0.000049660954043
 Root     13 :     7.400732353908404   Change is   -0.000070931525487
 Root     14 :     7.420788740057985   Change is   -0.000064073569915
 Root     15 :     7.613963013799199   Change is   -0.000012498093922
 Iteration     4 Dimension   143 NMult   135 NNew      8
 CISAX will form     8 AO SS matrices at one time.
 NMat=     8 NSing=     8 JSym2X= 0.
 Root      1 not converged, maximum delta is    0.000045839946656
 Root      2 not converged, maximum delta is    0.000009131665831
 Root      3 not converged, maximum delta is    0.000013466006781
 Root      4 not converged, maximum delta is    0.000014423601494
 Root      5 not converged, maximum delta is    0.000005180660343
 Root      6 not converged, maximum delta is    0.000146649618051
 Root      7 not converged, maximum delta is    0.000068928055877
 Root      8 not converged, maximum delta is    0.000016727636636
 Root      9 not converged, maximum delta is    0.000152728856744
 Root     10 not converged, maximum delta is    0.000032560958981
 Root     11 not converged, maximum delta is    0.000010073737793
 Root     12 not converged, maximum delta is    0.000014156957727
 Root     13 not converged, maximum delta is    0.000021062349912
 Root     14 not converged, maximum delta is    0.000031113360420
 Root     15 not converged, maximum delta is    0.000009545504961
 Excitation Energies [eV] at current iteration:
 Root      1 :     4.373862109468867   Change is   -0.000000715816248
 Root      2 :     4.617921759754809   Change is   -0.000000019674879
 Root      3 :     5.064491199702250   Change is   -0.000000055826452
 Root      4 :     5.764814559610905   Change is   -0.000000056332717
 Root      5 :     5.775441046700650   Change is   -0.000000009454603
 Root      6 :     6.203527938870045   Change is   -0.000005189212274
 Root      7 :     6.226115094999980   Change is   -0.000001020025219
 Root      8 :     6.454570027804824   Change is   -0.000000044651821
 Root      9 :     6.491733751776652   Change is   -0.000003938412103
 Root     10 :     6.842836195374399   Change is   -0.000000218115731
 Root     11 :     7.198337884345656   Change is   -0.000000021281327
 Root     12 :     7.276793043470992   Change is   -0.000000033681371
 Root     13 :     7.400732259140462   Change is   -0.000000094767942
 Root     14 :     7.420788544146307   Change is   -0.000000195911678
 Root     15 :     7.613962998160284   Change is   -0.000000015638916
 Convergence achieved on expansion vectors.
 ***********************************************************************
 Excited states from <AA,BB:AA,BB> singles matrix:
 ***********************************************************************
 
 1PDM for each excited state written to RWF  633
 Ground to excited state transition densities written to RWF  633
 Ground to excited state transition electric dipole moments (Au):
       state          X           Y           Z        Dip. S.      Osc.
         1        -0.9232     -0.0464     -0.0475      0.8568      0.0918
         2         0.1467     -0.0393     -0.0193      0.0234      0.0027
         3        -0.0481      0.2961     -0.0179      0.0903      0.0112
         4        -0.0319      0.1770      0.1052      0.0434      0.0061
         5         0.0338     -0.0637     -0.0296      0.0061      0.0009
         6        -0.0146      1.4503      0.0029      2.1035      0.3197
         7        -0.0137      0.5640     -0.0630      0.3223      0.0492
         8         0.0714      0.0416     -0.0535      0.0097      0.0015
         9         0.8513     -0.0147      0.0039      0.7249      0.1153
        10        -0.0554      0.2005     -0.1128      0.0560      0.0094
        11         0.0101      0.0131      0.0296      0.0012      0.0002
        12         0.0131      0.0480      0.0875      0.0101      0.0018
        13        -0.0180      0.0758     -0.1540      0.0298      0.0054
        14        -0.0187     -0.0040     -0.1178      0.0142      0.0026
        15         0.0217     -0.0551     -0.1348      0.0217      0.0040
 Ground to excited state transition velocity dipole moments (Au):
       state          X           Y           Z        Dip. S.      Osc.
         1         0.0582     -0.0107      0.0045      0.0035      0.0146
         2        -0.0091      0.0052      0.0007      0.0001      0.0004
         3        -0.0111     -0.0260      0.0027      0.0008      0.0029
         4         0.0095     -0.0326     -0.0654      0.0054      0.0171
         5        -0.0049      0.0064      0.0427      0.0019      0.0059
         6         0.0285     -0.2935      0.0010      0.0870      0.2543
         7         0.0102     -0.1085      0.0114      0.0120      0.0350
         8        -0.0143     -0.0076      0.1658      0.0278      0.0780
         9        -0.1555      0.0080     -0.0132      0.0244      0.0683
        10         0.0152     -0.0486      0.0152      0.0028      0.0075
        11         0.0022      0.0017      0.0511      0.0026      0.0066
        12         0.0027     -0.0172      0.0237      0.0009      0.0022
        13         0.0027     -0.0196      0.0175      0.0007      0.0017
        14         0.0001     -0.0014      0.0649      0.0042      0.0103
        15        -0.0022      0.0154      0.0064      0.0003      0.0007
 Ground to excited state transition magnetic dipole moments (Au):
       state          X           Y           Z
         1         0.0012      0.1033     -0.6698
         2        -0.0213      0.5905      0.1002
         3         0.0044      0.0528     -0.0561
         4         0.2487     -0.0735      0.0044
         5         0.1746      0.2235      0.0168
         6         0.1624      0.0508      0.0845
         7        -0.0628      0.0570      0.0444
         8         0.2385     -0.2711     -0.0076
         9        -0.0741     -0.0517      0.0575
        10        -1.5136     -0.5869      0.0063
        11        -0.2693      0.7804      0.0277
        12         0.2157      0.1600      0.0202
        13        -0.5266      0.3971      0.0630
        14         0.7426      0.1778     -0.0618
        15        -0.1451     -0.1512     -0.0424
 Ground to excited state transition velocity quadrupole moments (Au):
       state          XX          YY          ZZ          XY          XZ          YZ
         1         0.2634     -0.2058     -0.0247     -0.3661      0.0359      0.0145
         2        -0.0614      0.0575     -0.0039      0.0911      0.1598      0.0608
         3         0.1869     -0.2247      0.0642     -0.1213      0.0137      0.0118
         4         0.0483      0.0078     -0.0201      0.0211     -0.1038      0.1857
         5        -0.0265     -0.0017     -0.0101     -0.0195     -0.0713      0.1050
         6         0.3857     -0.1623     -0.0367      0.1886      0.0548      0.0337
         7         0.1600     -0.0575     -0.0185      0.0633     -0.0682     -0.2060
         8         0.0223     -0.0454      0.0040     -0.0429      0.1143     -0.0735
         9         0.1507     -0.2012     -0.0147     -0.5000     -0.0248      0.0259
        10         0.0368     -0.0313     -0.0093      0.0473     -0.0625      0.0493
        11        -0.0159      0.0006      0.0107      0.0079     -0.2490     -0.1346
        12         0.0084     -0.0251      0.0130      0.0098     -0.1816      0.1668
        13         0.0114      0.0078     -0.0091      0.0457      0.1053      0.1827
        14         0.0141     -0.0357      0.0037     -0.0280     -0.1100      0.3845
        15         0.0079     -0.0019     -0.0151     -0.0479     -0.1170     -0.1759
 <0|del|b> * <b|rxdel|0> + <0|del|b> * <b|delr+rdel|0>
 Rotatory Strengths (R) in cgs (10**-40 erg-esu-cm/Gauss)
       state          XX          YY          ZZ    R(velocity)    E-M Angle
         1       -11.7653     -0.9730     -4.9912     -5.9098       95.75
         2         4.9649     -0.7349      9.7479      4.6593       57.80
         3        -2.8431     -0.0084     -3.1317     -1.9944      135.89
         4        -4.4438      8.6813     10.6514      4.9630       76.51
         5         2.9486      0.3186      1.0598      1.4423       83.96
         6         2.2406      8.5173    -42.3885    -10.5435      100.49
         7       -19.1128     -4.5675      4.1283     -6.5173      127.07
         8        -8.1154      5.2062     -4.8845     -2.5979       92.49
         9         8.3232      0.2451     22.1559     10.2414       51.75
        10        36.9606    -32.1192     11.0002      5.2805       86.25
        11         4.7941      0.1818      0.8301      1.9353       87.06
        12        -6.8124      1.7007      0.6674     -1.4814      102.26
        13        -4.9686     -0.8249    -15.3360     -7.0432      117.60
        14        -8.0889     -2.7351     -0.0944     -3.6394       94.86
        15        -1.3963      0.9235     -5.3009     -1.9246      129.46
 1/2[<0|r|b>*<b|rxdel|0> + (<0|rxdel|b>*<b|r|0>)*]
 Rotatory Strengths (R) in cgs (10**-40 erg-esu-cm/Gauss)
       state          XX          YY          ZZ     R(length)
         1         0.7886      3.3920    -22.4801     -6.0998
         2         2.2096     16.4037      1.3670      6.6601
         3         0.1509    -11.0622     -0.7091     -3.8735
         4         5.6045      9.1954     -0.3283      4.8239
         5        -4.1788     10.0728      0.3511      2.0817
         6         1.6801    -52.1073     -0.1747    -16.8673
         7        -0.6097    -22.7495      1.9765     -7.1276
         8       -12.0343      7.9722     -0.2859     -1.4493
         9        44.6363     -0.5385     -0.1585     14.6464
        10       -59.2624     83.2236      0.5062      8.1558
        11         1.9223     -7.2151     -0.5797     -1.9575
        12        -1.9996     -5.4268     -1.2488     -2.8917
        13        -6.6975    -21.2875      6.8563     -7.0429
        14         9.8140      0.5003     -5.1458      1.7228
        15         2.2297     -5.8900     -4.0458     -2.5687
  1/2[<0|del|b>*<b|r|0> + (<0|r|b>*<b|del|0>)*] (Au)
       state          X           Y           Z        Dip. S.   Osc.(frdel)
         1        -0.0537      0.0005     -0.0002      0.0534      0.0356
         2        -0.0013     -0.0002      0.0000      0.0016      0.0010
         3         0.0005     -0.0077      0.0000      0.0072      0.0048
         4        -0.0003     -0.0058     -0.0069      0.0130      0.0086
         5        -0.0002     -0.0004     -0.0013      0.0018      0.0012
         6        -0.0004     -0.4257      0.0000      0.4261      0.2841
         7        -0.0001     -0.0612     -0.0007      0.0621      0.0414
         8        -0.0010     -0.0003     -0.0089      0.0102      0.0068
         9        -0.1324     -0.0001     -0.0001      0.1326      0.0884
        10        -0.0008     -0.0097     -0.0017      0.0123      0.0082
        11         0.0000      0.0000      0.0015     -0.0016     -0.0010
        12         0.0000     -0.0008      0.0021     -0.0013     -0.0009
        13         0.0000     -0.0015     -0.0027      0.0042      0.0028
        14         0.0000      0.0000     -0.0076      0.0076      0.0051
        15         0.0000     -0.0008     -0.0009      0.0018      0.0012

 Excitation energies and oscillator strengths:
 
 Excited State   1:      Singlet-A      4.3739 eV  283.47 nm  f=0.0918  <S**2>=0.000
      12 -> 15         0.18510
      13 -> 14         0.66407
 This state for optimization and/or second-order correction.
 Total Energy, E(CIS) =  0.179756441476    
 Copying the excited state density for this state as the 1-particle RhoCI density.
 
 Excited State   2:      Singlet-A      4.6179 eV  268.48 nm  f=0.0027  <S**2>=0.000
      13 -> 15        -0.11354
      13 -> 16         0.67207
 
 Excited State   3:      Singlet-A      5.0645 eV  244.81 nm  f=0.0112  <S**2>=0.000
      12 -> 14        -0.40081
      13 -> 15         0.56376
      13 -> 16         0.11619
 
 Excited State   4:      Singlet-A      5.7648 eV  215.07 nm  f=0.0061  <S**2>=0.000
       7 -> 16        -0.14160
      12 -> 16         0.54824
      12 -> 22         0.15708
      13 -> 17         0.25301
      13 -> 18         0.12939
      13 -> 22         0.13619
 
 Excited State   5:      Singlet-A      5.7754 eV  214.67 nm  f=0.0009  <S**2>=0.000
      12 -> 16        -0.34369
      12 -> 17         0.13477
      12 -> 20        -0.10125
      13 -> 17         0.37101
      13 -> 18         0.21460
      13 -> 20        -0.15916
      13 -> 22         0.23885
      13 -> 23        -0.18895
 
 Excited State   6:      Singlet-A      6.2035 eV  199.86 nm  f=0.3197  <S**2>=0.000
      11 -> 16        -0.10077
      12 -> 14         0.50139
      13 -> 15         0.35298
      13 -> 18        -0.10586
      13 -> 19        -0.13036
 
 Excited State   7:      Singlet-A      6.2261 eV  199.14 nm  f=0.0492  <S**2>=0.000
      12 -> 14         0.18655
      12 -> 18        -0.11193
      12 -> 19        -0.17526
      12 -> 21         0.15108
      12 -> 23        -0.15036
      13 -> 15         0.13069
      13 -> 17        -0.14500
      13 -> 18         0.27736
      13 -> 19         0.30681
      13 -> 21        -0.15621
      13 -> 22         0.18747
      13 -> 23         0.21682
 
 Excited State   8:      Singlet-A      6.4546 eV  192.09 nm  f=0.0015  <S**2>=0.000
      13 -> 17         0.33803
      13 -> 18        -0.31015
      13 -> 19         0.45045
      13 -> 20         0.10351
      13 -> 21        -0.14689
 
 Excited State   9:      Singlet-A      6.4917 eV  190.99 nm  f=0.1153  <S**2>=0.000
      12 -> 15         0.65910
      13 -> 14        -0.17208
 
 Excited State  10:      Singlet-A      6.8428 eV  181.19 nm  f=0.0094  <S**2>=0.000
       9 -> 15        -0.17241
      10 -> 14        -0.17560
      11 -> 14         0.60604
      11 -> 15         0.18136
 
 Excited State  11:      Singlet-A      7.1983 eV  172.24 nm  f=0.0002  <S**2>=0.000
      12 -> 17        -0.17987
      12 -> 18         0.34185
      12 -> 19        -0.31762
      12 -> 20        -0.10529
      12 -> 21         0.20039
      13 -> 18        -0.31593
      13 -> 22         0.23855
      13 -> 23         0.10048
 
 Excited State  12:      Singlet-A      7.2768 eV  170.38 nm  f=0.0018  <S**2>=0.000
       9 -> 14         0.15099
      10 -> 14        -0.11034
      11 -> 15        -0.10030
      12 -> 17        -0.20928
      12 -> 18         0.21398
      12 -> 19         0.23860
      12 -> 21         0.11357
      12 -> 22         0.12560
      12 -> 23         0.12166
      13 -> 18         0.18762
      13 -> 19         0.30154
      13 -> 21         0.26583
      13 -> 24        -0.14115
 
 Excited State  13:      Singlet-A      7.4007 eV  167.53 nm  f=0.0054  <S**2>=0.000
       9 -> 14         0.31568
      10 -> 14        -0.30220
      10 -> 15         0.29352
      11 -> 15        -0.12138
      12 -> 18        -0.10464
      12 -> 23        -0.11809
      13 -> 17        -0.10509
      13 -> 20         0.19016
      13 -> 21        -0.16569
      13 -> 22         0.21420
      13 -> 23        -0.10157
 
 Excited State  14:      Singlet-A      7.4208 eV  167.08 nm  f=0.0026  <S**2>=0.000
       9 -> 14        -0.20776
      10 -> 14         0.14410
      11 -> 14         0.10403
      11 -> 15         0.12315
      12 -> 17         0.11144
      12 -> 18         0.12271
      12 -> 20         0.15213
      12 -> 22         0.13923
      13 -> 17        -0.27282
      13 -> 18        -0.10430
      13 -> 20         0.14906
      13 -> 22         0.28792
      13 -> 23        -0.27752
 
 Excited State  15:      Singlet-A      7.6140 eV  162.84 nm  f=0.0040  <S**2>=0.000
       9 -> 14        -0.13515
      10 -> 15        -0.17159
      12 -> 17        -0.36165
      12 -> 18        -0.20303
      12 -> 20        -0.13438
      12 -> 22        -0.12054
      13 -> 17         0.13527
      13 -> 20         0.37979
      13 -> 22         0.14018
      13 -> 24         0.12682
 SavETr:  write IOETrn=   770 NScale= 10 NData=  16 NLR=1 NState=   15 LETran=     280.
 The selected state is a singlet
 CISAX will form     1 AO SS matrices at one time.
 NMat=     1 NSing=     1 JSym2X= 0.
 Leave Link  914 at Tue Dec 15 16:17:14 2015, MaxMem=    33554432 cpu:         0.1
 (Enter /home/Applications/g09/g09/l1002.exe)
 Minotr:  Closed shell wavefunction.
          Computing CIS/TD-HF/TD-KS derivatives.
          Using Z-Vector for PSCF gradient.
          Skipping F1 and S1 gradient terms here.
          IDoAtm=111111111
          Direct CPHF calculation.
          Differentiating once with respect to electric field.
                with respect to dipole field.
          Differentiating once with respect to nuclear coordinates.
          Electric field/nuclear overlap derivatives assumed to be zero.
          Requested convergence is 1.0D-10 RMS, and 1.0D-09 maximum.
          NewPWx=T KeepS1=F KeepF1=F KeepIn=T MapXYZ=F SortEE=F KeepMc=T.
          MDV=      33495423 using IRadAn=       0.
 Keep J ints in memory in canonical form, NReq=871704.
 FoFCou: FMM=F IPFlag=           0 FMFlag=           0 FMFlg1=           0
         NFxFlg=           0 DoJE=F BraDBF=F KetDBF=F FulRan=T
         wScrn=  0.000000 ICntrl=     600 IOpCl=  2 I1Cent=           0 NGrid=           0
         NMat0=    1 NMatS0=     54 NMatT0=    0 NMatD0=    1 NMtDS0=    0 NMtDT0=    0
 Symmetry not used in FoFCou.
          Solving linear equations separately, MaxMat=       0.
          There are     1 degrees of freedom in the 1st order CPHF.  IDoFFX=0 NUNeed=     1.
 LinEq1:  Iter=  0 NonCon=     1 RMS=1.37D-02 Max=1.07D-01 NDo=     1
 AX will form     1 AO Fock derivatives at one time.
 LinEq1:  Iter=  1 NonCon=     1 RMS=3.19D-03 Max=2.23D-02 NDo=     1
 LinEq1:  Iter=  2 NonCon=     1 RMS=4.59D-04 Max=2.54D-03 NDo=     1
 LinEq1:  Iter=  3 NonCon=     1 RMS=6.17D-05 Max=2.41D-04 NDo=     1
 LinEq1:  Iter=  4 NonCon=     1 RMS=8.28D-06 Max=4.04D-05 NDo=     1
 LinEq1:  Iter=  5 NonCon=     1 RMS=1.16D-06 Max=5.19D-06 NDo=     1
 LinEq1:  Iter=  6 NonCon=     1 RMS=1.43D-07 Max=8.23D-07 NDo=     1
 LinEq1:  Iter=  7 NonCon=     1 RMS=1.85D-08 Max=6.86D-08 NDo=     1
 LinEq1:  Iter=  8 NonCon=     1 RMS=2.31D-09 Max=6.76D-09 NDo=     1
 LinEq1:  Iter=  9 NonCon=     1 RMS=2.93D-10 Max=1.07D-09 NDo=     1
 LinEq1:  Iter= 10 NonCon=     0 RMS=3.84D-11 Max=1.46D-10 NDo=     1
 Linear equations converged to 1.000D-10 1.000D-09 after    10 iterations.
 End of Minotr F.D. properties file   721 does not exist.
 End of Minotr F.D. properties file   722 does not exist.
 End of Minotr F.D. properties file   788 does not exist.
 Leave Link 1002 at Tue Dec 15 16:17:14 2015, MaxMem=    33554432 cpu:         0.0
 (Enter /home/Applications/g09/g09/l601.exe)
 Copying SCF densities to generalized density rwf, IOpCl= 0 IROHF=0.

 **********************************************************************

            Population analysis using the SCF density.

 **********************************************************************

 Orbital symmetries:
       Occupied  (A) (A) (A) (A) (A) (A) (A) (A) (A) (A) (A) (A)
                 (A)
       Virtual   (A) (A) (A) (A) (A) (A) (A) (A) (A) (A) (A)
 The electronic state is 1-A.
 Alpha  occ. eigenvalues --   -1.55478  -1.22794  -1.09658  -0.81812  -0.80629
 Alpha  occ. eigenvalues --   -0.67955  -0.59663  -0.56957  -0.50492  -0.49854
 Alpha  occ. eigenvalues --   -0.48914  -0.39549  -0.34196
 Alpha virt. eigenvalues --    0.03087   0.06605   0.08691   0.13661   0.15043
 Alpha virt. eigenvalues --    0.15468   0.17333   0.18258   0.19332   0.20716
 Alpha virt. eigenvalues --    0.22559
     Molecular Orbital Coefficients:
                           1         2         3         4         5
                           O         O         O         O         O
     Eigenvalues --    -1.55478  -1.22794  -1.09658  -0.81812  -0.80629
   1 1   C  1S          0.28508  -0.50892  -0.21269  -0.02814   0.43238
   2        1PX         0.09208  -0.07812   0.13424   0.23443  -0.08039
   3        1PY        -0.09002   0.03780   0.17030   0.24758   0.18992
   4        1PZ         0.00078  -0.00164  -0.00139  -0.00084   0.00548
   5 2   C  1S          0.33657  -0.22230  -0.50243  -0.23733  -0.34060
   6        1PX         0.16162   0.08998  -0.01087   0.23760  -0.06420
   7        1PY         0.04971  -0.20246  -0.00099  -0.15400   0.28428
   8        1PZ         0.00314  -0.00070  -0.00551  -0.00191  -0.00530
   9 3   O  1S          0.64444   0.57830  -0.13125   0.24032   0.15079
  10        1PX        -0.02236   0.07602   0.30484  -0.29738   0.40096
  11        1PY         0.19698  -0.01132   0.10099  -0.19558  -0.01431
  12        1PZ        -0.00194   0.00003   0.00096  -0.00224   0.00402
  13 4   C  1S          0.38536  -0.02509   0.51261  -0.38276  -0.16435
  14        1PX        -0.18312   0.00045   0.00071  -0.13362  -0.05849
  15        1PY        -0.07183  -0.24223   0.07255   0.20813  -0.31141
  16        1PZ        -0.00112   0.00130  -0.00095  -0.00175   0.00338
  17 5   C  1S          0.28617  -0.42175   0.36446   0.39672  -0.11041
  18        1PX        -0.03276   0.10381   0.15863  -0.10271  -0.30966
  19        1PY        -0.12909   0.04225  -0.07902   0.18480   0.08891
  20        1PZ         0.00274  -0.00390   0.00454   0.00515  -0.00156
  21 6   H  1S          0.05836  -0.12826   0.13265   0.24256  -0.05926
  22 7   H  1S          0.08212   0.00545   0.19580  -0.26408  -0.07372
  23 8   H  1S          0.07242  -0.06431  -0.19920  -0.15082  -0.23439
  24 9   H  1S          0.05862  -0.15570  -0.08305  -0.02990   0.28017
                           6         7         8         9        10
                           O         O         O         O         O
     Eigenvalues --    -0.67955  -0.59663  -0.56957  -0.50492  -0.49854
   1 1   C  1S         -0.06466  -0.01308   0.17026   0.02818  -0.03649
   2        1PX         0.21343   0.00431  -0.08105  -0.45283  -0.34938
   3        1PY        -0.18416  -0.00057   0.02405   0.35321  -0.40318
   4        1PZ        -0.01562   0.22289   0.01634   0.03639   0.00164
   5 2   C  1S         -0.08698  -0.00365  -0.13023  -0.08951  -0.00442
   6        1PX         0.30616  -0.00899   0.39569  -0.02290   0.02396
   7        1PY         0.19618  -0.00344   0.12744  -0.24351   0.44959
   8        1PZ        -0.01620   0.34635   0.01221   0.01032  -0.01145
   9 3   O  1S         -0.19621  -0.00950   0.04263  -0.01977   0.10857
  10        1PX        -0.11665   0.00301  -0.40346  -0.14005   0.07314
  11        1PY         0.47236   0.04131  -0.19344   0.20185  -0.07195
  12        1PZ        -0.02189   0.77356   0.03846  -0.03420  -0.00037
  13 4   C  1S         -0.06755  -0.00589   0.13922   0.08644  -0.07961
  14        1PX        -0.37577  -0.03898   0.40430  -0.29326  -0.08824
  15        1PY        -0.00990  -0.00500   0.18617   0.21049   0.15979
  16        1PZ        -0.01428   0.41600   0.02349  -0.02059   0.00200
  17 5   C  1S         -0.12322  -0.00091  -0.17349  -0.06009   0.03053
  18        1PX        -0.11405   0.00025  -0.00274   0.25930   0.48243
  19        1PY        -0.29335   0.00114  -0.15529  -0.18640   0.18151
  20        1PZ        -0.01393   0.23291   0.00752   0.00431   0.01522
  21 6   H  1S         -0.25069   0.00853  -0.20047  -0.10403   0.28797
  22 7   H  1S         -0.25582  -0.02592   0.33716  -0.21269  -0.15948
  23 8   H  1S         -0.26452   0.01532  -0.34852   0.08527  -0.27203
  24 9   H  1S         -0.20390  -0.00070   0.15006   0.48070  -0.00215
                          11        12        13        14        15
                           O         O         O         V         V
     Eigenvalues --    -0.48914  -0.39549  -0.34196   0.03087   0.06605
   1 1   C  1S         -0.03889  -0.00579   0.00319   0.00964  -0.02960
   2        1PX        -0.10177   0.03717  -0.00656  -0.01682   0.02473
   3        1PY         0.11782  -0.02742   0.01349   0.00482  -0.01940
   4        1PZ         0.01393   0.64249  -0.23844  -0.34470   0.59273
   5 2   C  1S          0.07737  -0.00482   0.01001  -0.02384   0.04686
   6        1PX         0.25757   0.00159  -0.00677  -0.00116   0.03246
   7        1PY        -0.07158   0.01212  -0.01766   0.02048  -0.02992
   8        1PZ        -0.00284   0.31877  -0.57044   0.55350  -0.37396
   9 3   O  1S         -0.16743   0.00070  -0.00100   0.00693  -0.02133
  10        1PX        -0.18982   0.01510   0.00145  -0.00703   0.03247
  11        1PY         0.52968  -0.02450  -0.00704   0.01158  -0.03600
  12        1PZ        -0.03017  -0.48845  -0.14118  -0.37125  -0.03307
  13 4   C  1S          0.01228  -0.00329   0.00745  -0.00115   0.00577
  14        1PX         0.12597   0.00425  -0.01249  -0.00162  -0.00736
  15        1PY        -0.33988   0.00025   0.01142   0.01650  -0.03396
  16        1PZ         0.00329   0.02522   0.57846   0.58398   0.38568
  17 5   C  1S         -0.04595  -0.00851  -0.01270   0.00553   0.02876
  18        1PX        -0.01077  -0.01537  -0.00964   0.00458   0.01558
  19        1PY         0.49597  -0.01633  -0.01570   0.01359   0.01169
  20        1PZ         0.01971   0.49233   0.51144  -0.30493  -0.58601
  21 6   H  1S          0.35296  -0.00141  -0.00090  -0.01053  -0.02135
  22 7   H  1S          0.17804   0.00137  -0.00438   0.00363  -0.01865
  23 8   H  1S         -0.06113   0.00203  -0.00329   0.02265  -0.03983
  24 9   H  1S          0.10434  -0.01412   0.00212  -0.01436   0.04394
                          16        17        18        19        20
                           V         V         V         V         V
     Eigenvalues --     0.08691   0.13661   0.15043   0.15468   0.17333
   1 1   C  1S          0.05185  -0.31627   0.07880   0.14112  -0.39709
   2        1PX        -0.04987  -0.04763   0.31375  -0.23462   0.17360
   3        1PY         0.01992  -0.13958  -0.23289  -0.27101  -0.24700
   4        1PZ         0.07465  -0.03722  -0.01489   0.01940  -0.02233
   5 2   C  1S         -0.29913   0.16954  -0.30280  -0.24817  -0.02272
   6        1PX        -0.40074  -0.04192   0.34917  -0.06964  -0.21962
   7        1PY         0.26765  -0.05547   0.03307  -0.22387   0.16653
   8        1PZ        -0.06647   0.02859  -0.01858  -0.00933   0.00564
   9 3   O  1S          0.23112  -0.01743  -0.01148  -0.05845   0.06081
  10        1PX        -0.22099   0.09722   0.11227  -0.20824  -0.14221
  11        1PY         0.42390   0.00196   0.02883  -0.17014   0.04469
  12        1PZ        -0.00145  -0.00264   0.00406  -0.00151  -0.00399
  13 4   C  1S         -0.23192  -0.40918  -0.19812   0.06955   0.22881
  14        1PX         0.06933  -0.20145   0.12069  -0.34706   0.16328
  15        1PY         0.33123  -0.13735  -0.10669  -0.10176   0.13139
  16        1PZ         0.01783  -0.00595   0.00401   0.00888  -0.00085
  17 5   C  1S          0.02521   0.33636  -0.06216  -0.18990  -0.06801
  18        1PX        -0.05948  -0.01947   0.31191  -0.28211  -0.41475
  19        1PY         0.05152  -0.17874  -0.20583  -0.27035   0.01245
  20        1PZ        -0.04099   0.02744  -0.00074  -0.03626  -0.00431
  21 6   H  1S         -0.08489  -0.13430   0.14199   0.51358   0.16699
  22 7   H  1S          0.31888   0.52069   0.03435   0.22601  -0.26182
  23 8   H  1S          0.25746  -0.23068   0.53334   0.01889  -0.02526
  24 9   H  1S         -0.16871   0.34232   0.31264  -0.13367   0.52731
                          21        22        23        24
                           V         V         V         V
     Eigenvalues --     0.18258   0.19332   0.20716   0.22559
   1 1   C  1S          0.02175   0.19175   0.25487   0.00609
   2        1PX         0.38829   0.01384   0.32977  -0.25684
   3        1PY         0.36413  -0.18055  -0.35264  -0.17019
   4        1PZ        -0.00227  -0.00474  -0.01897   0.00334
   5 2   C  1S          0.28109  -0.04769  -0.11879   0.06067
   6        1PX        -0.11911  -0.31668  -0.15451   0.33235
   7        1PY         0.07237  -0.36166  -0.39622  -0.28682
   8        1PZ         0.01187   0.01195   0.01023   0.00279
   9 3   O  1S          0.04363   0.08052   0.00247   0.04546
  10        1PX         0.16288  -0.06427   0.00676   0.49767
  11        1PY         0.07161   0.25339   0.00789   0.20182
  12        1PZ        -0.00321  -0.00612  -0.00042   0.00462
  13 4   C  1S         -0.11421  -0.14904   0.09762  -0.11875
  14        1PX        -0.05600   0.46673  -0.24420   0.20359
  15        1PY         0.25893  -0.20705   0.20232   0.50048
  16        1PZ         0.00633   0.01063  -0.00870  -0.00338
  17 5   C  1S         -0.41640   0.14549  -0.17828  -0.01179
  18        1PX         0.16706   0.18465   0.15940  -0.32036
  19        1PY        -0.20846  -0.33184   0.45251   0.00418
  20        1PZ        -0.02330   0.00045   0.01023  -0.00456
  21 6   H  1S          0.41781   0.08960  -0.23046   0.07370
  22 7   H  1S          0.15655  -0.25137   0.12589  -0.00276
  23 8   H  1S         -0.23201  -0.31782  -0.18594   0.00986
  24 9   H  1S          0.05046  -0.03776   0.17499  -0.06104
     Density Matrix:
                           1         2         3         4         5
   1 1   C  1S          1.22055
   2        1PX        -0.05569   0.97012
   3        1PY         0.06065  -0.03808   0.94504
   4        1PZ         0.00114   0.00531  -0.00679   1.04279
   5 2   C  1S          0.30708  -0.04282  -0.51054  -0.01919   1.25229
   6        1PX         0.00854   0.15276  -0.00153   0.00910  -0.10200
   7        1PY         0.46623  -0.09224  -0.61155   0.00638  -0.03531
   8        1PZ        -0.00814   0.02367  -0.01631   0.83755  -0.00709
   9 3   O  1S         -0.00438  -0.03304  -0.00744  -0.00035   0.09152
  10        1PX         0.02267  -0.00694  -0.06122  -0.00097  -0.36686
  11        1PY        -0.07287  -0.03297   0.03904  -0.00135   0.15320
  12        1PZ         0.00294  -0.00781   0.00213  -0.21684  -0.01248
  13 4   C  1S         -0.02728  -0.01747   0.01148   0.00071   0.01193
  14        1PX         0.01904  -0.01103  -0.00414   0.00016   0.01192
  15        1PY        -0.01477  -0.07594  -0.04324   0.00213  -0.03841
  16        1PZ         0.00227   0.00252   0.00516  -0.05815   0.00699
  17 5   C  1S          0.27446   0.43769   0.15451  -0.01372  -0.02935
  18        1PX        -0.45966  -0.59703  -0.26663   0.00453   0.00023
  19        1PY        -0.09372  -0.13926   0.06468  -0.00752   0.02526
  20        1PZ        -0.00459   0.01118  -0.00984   0.49414   0.00404
  21 6   H  1S         -0.04788  -0.06374  -0.01722   0.00600   0.05470
  22 7   H  1S          0.04342   0.05879   0.02413  -0.00054   0.05548
  23 8   H  1S         -0.05822   0.00608   0.09618   0.01005   0.62303
  24 9   H  1S          0.56798  -0.61377   0.49005   0.03365  -0.05785
                           6         7         8         9        10
   6        1PX         0.82557
   7        1PY         0.08712   0.93948
   8        1PZ         0.00054   0.00551   1.09540
   9 3   O  1S          0.24370  -0.09291   0.00263   1.85615
  10        1PX        -0.67159   0.29879  -0.00623   0.05340   1.17207
  11        1PY         0.36392  -0.02736   0.00484  -0.28768  -0.06689
  12        1PZ        -0.01274   0.01245   0.38657   0.00556  -0.01021
  13 4   C  1S          0.01548  -0.03485  -0.00555   0.11324   0.25012
  14        1PX         0.04973  -0.00862   0.00723  -0.18459  -0.17604
  15        1PY         0.03464  -0.01733  -0.00725  -0.22566  -0.41736
  16        1PZ        -0.00402  -0.00912  -0.35518  -0.00077  -0.00244
  17 5   C  1S         -0.02067  -0.01549   0.00454   0.00073   0.02798
  18        1PX        -0.07064   0.07354   0.00095   0.03607  -0.04292
  19        1PY         0.01435  -0.00771   0.00152   0.00144   0.00910
  20        1PZ         0.00129  -0.00315  -0.10804  -0.00228   0.00621
  21 6   H  1S          0.00386   0.05862  -0.00269   0.02033   0.02450
  22 7   H  1S          0.11176  -0.03438   0.00282  -0.04460  -0.02936
  23 8   H  1S         -0.51185  -0.52312   0.02986  -0.04008   0.06990
  24 9   H  1S         -0.03198  -0.05561   0.00639   0.02578  -0.08298
                          11        12        13        14        15
  11        1PY         1.35393
  12        1PZ         0.00877   1.72194
  13 4   C  1S          0.35159  -0.00104   1.24685
  14        1PX        -0.50497  -0.00002   0.11112   0.94165
  15        1PY        -0.46070   0.00652   0.03021  -0.07221   0.85933
  16        1PZ        -0.00278   0.45931   0.00655  -0.00390   0.00439
  17 5   C  1S         -0.08222   0.00631   0.29980  -0.22685   0.40325
  18        1PX        -0.01610   0.00389   0.29494  -0.08036   0.39921
  19        1PY         0.06551   0.00597  -0.40601   0.28473  -0.40184
  20        1PZ        -0.00761  -0.26537   0.00795  -0.01264   0.01123
  21 6   H  1S          0.09150  -0.00555  -0.05602   0.04558  -0.05060
  22 7   H  1S         -0.07139   0.00151   0.61182   0.71419  -0.18082
  23 8   H  1S         -0.04958   0.00360   0.04233  -0.06066  -0.05920
  24 9   H  1S          0.06834  -0.00461   0.05413  -0.02731   0.05873
                          16        17        18        19        20
  16        1PZ         1.01905
  17 5   C  1S         -0.02278   1.22869
  18        1PX        -0.01910   0.02504   0.91378
  19        1PY        -0.00479   0.07464   0.03548   0.98224
  20        1PZ         0.81103  -0.00976  -0.00489  -0.00242   1.11835
  21 6   H  1S          0.00952   0.57284   0.27315   0.73512   0.03263
  22 7   H  1S          0.00576  -0.06248  -0.05371   0.08101  -0.00298
  23 8   H  1S         -0.00579   0.04749  -0.05983  -0.01775  -0.00379
  24 9   H  1S         -0.00346  -0.05036   0.06116   0.02053   0.00367
                          21        22        23        24
  21 6   H  1S          0.84248
  22 7   H  1S          0.01148   0.80494
  23 8   H  1S         -0.01823  -0.02430   0.80688
  24 9   H  1S         -0.00846  -0.01125   0.01286   0.84045
    Full Mulliken population analysis:
                           1         2         3         4         5
   1 1   C  1S          1.22055
   2        1PX         0.00000   0.97012
   3        1PY         0.00000   0.00000   0.94504
   4        1PZ         0.00000   0.00000   0.00000   1.04279
   5 2   C  1S          0.00000   0.00000   0.00000   0.00000   1.25229
   6        1PX         0.00000   0.00000   0.00000   0.00000   0.00000
   7        1PY         0.00000   0.00000   0.00000   0.00000   0.00000
   8        1PZ         0.00000   0.00000   0.00000   0.00000   0.00000
   9 3   O  1S          0.00000   0.00000   0.00000   0.00000   0.00000
  10        1PX         0.00000   0.00000   0.00000   0.00000   0.00000
  11        1PY         0.00000   0.00000   0.00000   0.00000   0.00000
  12        1PZ         0.00000   0.00000   0.00000   0.00000   0.00000
  13 4   C  1S          0.00000   0.00000   0.00000   0.00000   0.00000
  14        1PX         0.00000   0.00000   0.00000   0.00000   0.00000
  15        1PY         0.00000   0.00000   0.00000   0.00000   0.00000
  16        1PZ         0.00000   0.00000   0.00000   0.00000   0.00000
  17 5   C  1S          0.00000   0.00000   0.00000   0.00000   0.00000
  18        1PX         0.00000   0.00000   0.00000   0.00000   0.00000
  19        1PY         0.00000   0.00000   0.00000   0.00000   0.00000
  20        1PZ         0.00000   0.00000   0.00000   0.00000   0.00000
  21 6   H  1S          0.00000   0.00000   0.00000   0.00000   0.00000
  22 7   H  1S          0.00000   0.00000   0.00000   0.00000   0.00000
  23 8   H  1S          0.00000   0.00000   0.00000   0.00000   0.00000
  24 9   H  1S          0.00000   0.00000   0.00000   0.00000   0.00000
                           6         7         8         9        10
   6        1PX         0.82557
   7        1PY         0.00000   0.93948
   8        1PZ         0.00000   0.00000   1.09540
   9 3   O  1S          0.00000   0.00000   0.00000   1.85615
  10        1PX         0.00000   0.00000   0.00000   0.00000   1.17207
  11        1PY         0.00000   0.00000   0.00000   0.00000   0.00000
  12        1PZ         0.00000   0.00000   0.00000   0.00000   0.00000
  13 4   C  1S          0.00000   0.00000   0.00000   0.00000   0.00000
  14        1PX         0.00000   0.00000   0.00000   0.00000   0.00000
  15        1PY         0.00000   0.00000   0.00000   0.00000   0.00000
  16        1PZ         0.00000   0.00000   0.00000   0.00000   0.00000
  17 5   C  1S          0.00000   0.00000   0.00000   0.00000   0.00000
  18        1PX         0.00000   0.00000   0.00000   0.00000   0.00000
  19        1PY         0.00000   0.00000   0.00000   0.00000   0.00000
  20        1PZ         0.00000   0.00000   0.00000   0.00000   0.00000
  21 6   H  1S          0.00000   0.00000   0.00000   0.00000   0.00000
  22 7   H  1S          0.00000   0.00000   0.00000   0.00000   0.00000
  23 8   H  1S          0.00000   0.00000   0.00000   0.00000   0.00000
  24 9   H  1S          0.00000   0.00000   0.00000   0.00000   0.00000
                          11        12        13        14        15
  11        1PY         1.35393
  12        1PZ         0.00000   1.72194
  13 4   C  1S          0.00000   0.00000   1.24685
  14        1PX         0.00000   0.00000   0.00000   0.94165
  15        1PY         0.00000   0.00000   0.00000   0.00000   0.85933
  16        1PZ         0.00000   0.00000   0.00000   0.00000   0.00000
  17 5   C  1S          0.00000   0.00000   0.00000   0.00000   0.00000
  18        1PX         0.00000   0.00000   0.00000   0.00000   0.00000
  19        1PY         0.00000   0.00000   0.00000   0.00000   0.00000
  20        1PZ         0.00000   0.00000   0.00000   0.00000   0.00000
  21 6   H  1S          0.00000   0.00000   0.00000   0.00000   0.00000
  22 7   H  1S          0.00000   0.00000   0.00000   0.00000   0.00000
  23 8   H  1S          0.00000   0.00000   0.00000   0.00000   0.00000
  24 9   H  1S          0.00000   0.00000   0.00000   0.00000   0.00000
                          16        17        18        19        20
  16        1PZ         1.01905
  17 5   C  1S          0.00000   1.22869
  18        1PX         0.00000   0.00000   0.91378
  19        1PY         0.00000   0.00000   0.00000   0.98224
  20        1PZ         0.00000   0.00000   0.00000   0.00000   1.11835
  21 6   H  1S          0.00000   0.00000   0.00000   0.00000   0.00000
  22 7   H  1S          0.00000   0.00000   0.00000   0.00000   0.00000
  23 8   H  1S          0.00000   0.00000   0.00000   0.00000   0.00000
  24 9   H  1S          0.00000   0.00000   0.00000   0.00000   0.00000
                          21        22        23        24
  21 6   H  1S          0.84248
  22 7   H  1S          0.00000   0.80494
  23 8   H  1S          0.00000   0.00000   0.80688
  24 9   H  1S          0.00000   0.00000   0.00000   0.84045
     Gross orbital populations:
                           1
   1 1   C  1S          1.22055
   2        1PX         0.97012
   3        1PY         0.94504
   4        1PZ         1.04279
   5 2   C  1S          1.25229
   6        1PX         0.82557
   7        1PY         0.93948
   8        1PZ         1.09540
   9 3   O  1S          1.85615
  10        1PX         1.17207
  11        1PY         1.35393
  12        1PZ         1.72194
  13 4   C  1S          1.24685
  14        1PX         0.94165
  15        1PY         0.85933
  16        1PZ         1.01905
  17 5   C  1S          1.22869
  18        1PX         0.91378
  19        1PY         0.98224
  20        1PZ         1.11835
  21 6   H  1S          0.84248
  22 7   H  1S          0.80494
  23 8   H  1S          0.80688
  24 9   H  1S          0.84045
          Condensed to atoms (all electrons):
               1          2          3          4          5          6
     1  C    4.178493   0.000000   0.000000   0.000000   0.000000   0.000000
     2  C    0.000000   4.112742   0.000000   0.000000   0.000000   0.000000
     3  O    0.000000   0.000000   6.104077   0.000000   0.000000   0.000000
     4  C    0.000000   0.000000   0.000000   4.066880   0.000000   0.000000
     5  C    0.000000   0.000000   0.000000   0.000000   4.243057   0.000000
     6  H    0.000000   0.000000   0.000000   0.000000   0.000000   0.842476
     7  H    0.000000   0.000000   0.000000   0.000000   0.000000   0.000000
     8  H    0.000000   0.000000   0.000000   0.000000   0.000000   0.000000
     9  H    0.000000   0.000000   0.000000   0.000000   0.000000   0.000000
               7          8          9
     1  C    0.000000   0.000000   0.000000
     2  C    0.000000   0.000000   0.000000
     3  O    0.000000   0.000000   0.000000
     4  C    0.000000   0.000000   0.000000
     5  C    0.000000   0.000000   0.000000
     6  H    0.000000   0.000000   0.000000
     7  H    0.804943   0.000000   0.000000
     8  H    0.000000   0.806880   0.000000
     9  H    0.000000   0.000000   0.840452
 Mulliken charges:
               1
     1  C   -0.178493
     2  C   -0.112742
     3  O   -0.104077
     4  C   -0.066880
     5  C   -0.243057
     6  H    0.157524
     7  H    0.195057
     8  H    0.193120
     9  H    0.159548
 Sum of Mulliken charges =   0.00000
 Mulliken charges with hydrogens summed into heavy atoms:
               1
     1  C   -0.018945
     2  C    0.080377
     3  O   -0.104077
     4  C    0.128177
     5  C   -0.085533
 Charge=              0.0000 electrons
 Dipole moment (field-independent basis, Debye):
    X=             -0.1196    Y=              0.3784    Z=              0.2060  Tot=              0.4472
 N-N= 1.031680351746D+02 E-N=-1.706370150280D+02  KE=-1.650200711111D+01
 Orbital energies and kinetic energies (alpha):
                                 1                 2
   1         O                -1.554782         -1.306026
   2         O                -1.227937         -1.044934
   3         O                -1.096578         -0.958903
   4         O                -0.818123         -0.717523
   5         O                -0.806287         -0.705167
   6         O                -0.679552         -0.600430
   7         O                -0.596627         -0.485413
   8         O                -0.569566         -0.508135
   9         O                -0.504921         -0.442921
  10         O                -0.498543         -0.418961
  11         O                -0.489143         -0.406837
  12         O                -0.395486         -0.344450
  13         O                -0.341959         -0.311303
  14         V                 0.030865         -0.195186
  15         V                 0.066052         -0.191270
  16         V                 0.086912         -0.198587
  17         V                 0.136606         -0.250370
  18         V                 0.150434         -0.202473
  19         V                 0.154676         -0.183480
  20         V                 0.173334         -0.195199
  21         V                 0.182583         -0.168707
  22         V                 0.193324         -0.121448
  23         V                 0.207165         -0.119488
  24         V                 0.225586         -0.044085
 Total kinetic energy from orbitals=-1.650200711111D+01
 Leave Link  601 at Tue Dec 15 16:17:14 2015, MaxMem=    33554432 cpu:         0.0
 (Enter /home/Applications/g09/g09/l701.exe)
 Compute integral first derivatives.
 ... and contract with generalized density number  6.
 Leave Link  701 at Tue Dec 15 16:17:14 2015, MaxMem=    33554432 cpu:         0.0
 (Enter /home/Applications/g09/g09/l702.exe)
 L702 exits ... SP integral derivatives will be done elsewhere.
 Leave Link  702 at Tue Dec 15 16:17:14 2015, MaxMem=    33554432 cpu:         0.0
 (Enter /home/Applications/g09/g09/l703.exe)
 Compute integral first derivatives, UseDBF=F ICtDFT=           0.
 Integral derivatives from FoFJK, PRISM(SPDF).
 Calling FoFJK, ICntrl=  10005127 FMM=F ISym2X=0 I1Cent= 0 IOpClX= 0 NMat=1 NMatS=1 NMatT=0.
 FoFJK:  IHMeth= 8 ICntrl=10005127 DoSepK=F KAlg= 0 I1Cent=   0 FoldK=F
 IRaf=         0 NMat=   1 IRICut=       1 DoRegI=T DoRafI=F ISym2E= 0.
 FoFCou: FMM=F IPFlag=           0 FMFlag=      100000 FMFlg1=         800
         NFxFlg=           0 DoJE=F BraDBF=F KetDBF=F FulRan=T
         wScrn=  0.000000 ICntrl=10005127 IOpCl=  0 I1Cent=           0 NGrid=           0
         NMat0=    1 NMatS0=      1 NMatT0=    0 NMatD0=    1 NMtDS0=    0 NMtDT0=    0
 Symmetry not used in FoFCou.
 Leave Link  703 at Tue Dec 15 16:17:14 2015, MaxMem=    33554432 cpu:         0.0
 (Enter /home/Applications/g09/g09/l716.exe)
 Dipole        = 1.24437953D-01 3.16215198D-01 1.51349595D-01
 ***** Axes restored to original set *****
 -------------------------------------------------------------------
 Center     Atomic                   Forces (Hartrees/Bohr)
 Number     Number              X              Y              Z
 -------------------------------------------------------------------
      1        6           0.112378697    0.009629024   -0.000814053
      2        6          -0.048031808   -0.019037986   -0.002948932
      3        8          -0.110039537   -0.041746069    0.002977016
      4        6          -0.016459778    0.060026428    0.001662598
      5        6           0.100781972   -0.008172918   -0.003672690
      6        1          -0.012747189   -0.009393193    0.003086441
      7        1           0.000575819   -0.001224528   -0.002627440
      8        1          -0.015628056   -0.007289947   -0.001134674
      9        1          -0.010830120    0.017209188    0.003471733
 -------------------------------------------------------------------
 Cartesian Forces:  Max     0.112378697 RMS     0.040537202
 Z-matrix is all fixed cartesians, so copy forces.
 Force constants in Cartesian coordinates: 
                1             2             3             4             5 
      1  0.907084D+00
      2  0.104163D-01  0.797763D+00
      3 -0.112428D-01  0.923179D-02  0.203048D+00
      4 -0.532012D+00 -0.125342D+00  0.159250D-02  0.894200D+00
      5 -0.103176D+00 -0.225178D+00 -0.361558D-03  0.955907D-01  0.850508D+00
      6 -0.343263D-02 -0.200222D-02 -0.102138D+00  0.171776D-01  0.912373D-02
      7 -0.936375D-02  0.285299D-01 -0.100388D-02 -0.228048D+00  0.112074D+00
      8 -0.642802D-02  0.195934D-01 -0.530831D-03  0.156454D+00 -0.304809D+00
      9 -0.116962D-03  0.593680D-03  0.520458D-02 -0.974680D-02  0.771177D-02
     10  0.106307D-01 -0.140413D-04  0.348393D-03  0.247481D-01  0.169886D-01
     11  0.339925D-01 -0.493102D-04  0.119443D-02 -0.177717D-01 -0.121993D-01
     12 -0.949636D-04 -0.486537D-04  0.706697D-03  0.112144D-02  0.783373D-03
     13 -0.168731D+00  0.124263D-01  0.189120D-02  0.114309D-01 -0.348250D-01
     14 -0.114181D-01 -0.417740D+00 -0.286523D-02 -0.153553D-04  0.507805D-04
     15  0.213272D-02  0.227900D-02 -0.807032D-01 -0.116691D-03  0.566999D-03
     16  0.163768D-01 -0.243336D-04 -0.231559D-03 -0.133531D-05  0.000000D+00
     17 -0.229773D-01  0.361847D-04  0.205684D-02  0.000000D+00  0.000000D+00
     18 -0.298226D-05  0.199145D-04  0.168733D-01 -0.184449D-04  0.506503D-05
     19  0.498770D-05  0.000000D+00 -0.167767D-03  0.283188D-05 -0.189088D-05
     20 -0.193744D-05  0.000000D+00  0.651679D-04 -0.187107D-05  0.124933D-05
     21 -0.185751D-03  0.764535D-05  0.624797D-02 -0.137286D-03  0.916678D-04
     22  0.885883D-02 -0.269636D-01 -0.196999D-02 -0.164560D+00 -0.104178D+00
     23 -0.419456D-02  0.127880D-01 -0.827562D-03 -0.101606D+00 -0.330635D+00
     24  0.144972D-03 -0.792582D-03  0.293082D-01 -0.100903D-01 -0.169481D-01
     25 -0.232848D+00  0.100971D+00  0.107839D-01 -0.576092D-02  0.175260D-01
     26  0.103787D+00 -0.187213D+00 -0.796305D-02 -0.730834D-02  0.222618D-01
     27  0.127984D-01 -0.928856D-02 -0.785482D-01  0.218037D-03 -0.972934D-03
                6             7             8             9            10 
      6  0.192136D+00
      7 -0.730444D-02  0.519907D+00
      8  0.692516D-02  0.938666D-01  0.722876D+00
      9 -0.441041D-01  0.103515D-01 -0.767919D-02  0.530130D-01
     10  0.352286D-03 -0.317392D+00 -0.249461D+00 -0.222656D-02  0.912202D+00
     11 -0.194716D-03 -0.205892D+00 -0.443597D+00  0.178840D-02  0.276740D-01
     12 -0.211996D-02 -0.321194D-02  0.322735D-03 -0.446214D-01  0.165915D-01
     13 -0.196394D-03 -0.930054D-02  0.667955D-02 -0.911058D-03 -0.462970D+00
     14 -0.688888D-04 -0.297506D-01  0.213641D-01 -0.171261D-02  0.103235D+00
     15 -0.176532D-02  0.921730D-05 -0.883736D-04  0.882907D-02 -0.105817D-01
     16  0.309091D-03  0.000000D+00  0.000000D+00  0.811685D-05 -0.510186D-02
     17  0.458382D-05 -0.147900D-04  0.991727D-05  0.594127D-03  0.705043D-02
     18  0.426952D-02 -0.146851D-03  0.984692D-04  0.589912D-02 -0.104808D-02
     19 -0.120531D-03  0.224332D-01 -0.161086D-01  0.582003D-03 -0.162113D+00
     20  0.796368D-04  0.115348D-01 -0.828290D-02  0.391072D-03  0.945261D-01
     21  0.584322D-02  0.228611D-03 -0.168640D-03  0.379524D-02 -0.323761D-02
     22 -0.877156D-02  0.217654D-01  0.149952D-01  0.194538D-02  0.571220D-05
     23 -0.140328D-01 -0.103533D-01 -0.714370D-02 -0.126422D-02  0.162613D-05
     24 -0.779032D-01  0.115090D-02  0.972554D-03  0.575060D-02 -0.720903D-04
     25  0.198660D-02 -0.134146D-05  0.271718D-05  0.114360D-03 -0.919016D-05
     26  0.165501D-03  0.496218D-05 -0.100511D-04 -0.423029D-03  0.000000D+00
     27  0.257814D-01 -0.731249D-04  0.148117D-03  0.623393D-02 -0.126187D-03
               11            12            13            14            15 
     11  0.937905D+00
     12 -0.112140D-01  0.188418D+00
     13  0.771340D-01 -0.131568D-01  0.853652D+00
     14 -0.210398D+00  0.564157D-02  0.148347D-01  0.772788D+00
     15  0.502293D-02 -0.995157D-01 -0.258806D-02 -0.144365D-01  0.196113D+00
     16 -0.161297D-01  0.195585D-02 -0.249377D+00 -0.102064D+00  0.119430D-01
     17  0.225173D-01 -0.345413D-03 -0.102302D+00 -0.179036D+00  0.877934D-02
     18 -0.110153D-02  0.233688D-01  0.149350D-01  0.112085D-01 -0.746087D-01
     19  0.100996D+00 -0.327113D-02  0.790214D-02  0.252043D-01 -0.731208D-03
     20 -0.294178D+00  0.492502D-02  0.405858D-02  0.130068D-01  0.265513D-03
     21  0.445112D-02 -0.735490D-01 -0.108011D-03  0.220369D-02  0.264673D-01
     22 -0.381410D-05 -0.243124D-03  0.000000D+00  0.000000D+00  0.143079D-03
     23 -0.108578D-05 -0.692116D-04  0.227971D-05  0.000000D+00 -0.527694D-03
     24  0.481355D-04  0.306832D-02 -0.331292D-04  0.909739D-05  0.766857D-02
     25  0.000000D+00  0.309122D-03  0.173944D-01 -0.258037D-04 -0.210367D-03
     26  0.000000D+00  0.455418D-05  0.219915D-01 -0.345055D-04 -0.186119D-02
     27  0.519373D-05  0.424445D-02  0.167295D-03  0.204212D-04  0.175148D-01
               16            17            18            19            20 
     16  0.238136D+00
     17  0.118218D+00  0.156483D+00
     18 -0.135255D-01 -0.101246D-01  0.398721D-01
     19  0.000000D+00  0.257323D-04  0.255498D-03  0.131769D+00
     20  0.000000D+00 -0.999553D-05 -0.992463D-04 -0.110116D+00  0.289462D+00
     21 -0.130924D-04 -0.958321D-03 -0.951523D-02  0.345314D-02 -0.562716D-02
     22  0.000000D+00  0.000000D+00  0.000000D+00  0.000000D+00  0.000000D+00
     23  0.000000D+00  0.000000D+00  0.000000D+00  0.000000D+00  0.000000D+00
     24  0.000000D+00  0.000000D+00  0.000000D+00  0.000000D+00  0.000000D+00
     25 -0.324725D-04  0.000000D+00 -0.448548D-03  0.000000D+00  0.000000D+00
     26  0.000000D+00  0.000000D+00 -0.660831D-05  0.000000D+00  0.000000D+00
     27 -0.445869D-03 -0.661224D-05 -0.615887D-02  0.000000D+00  0.000000D+00
               21            22            23            24            25 
     21  0.407106D-01
     22  0.000000D+00  0.133934D+00
     23  0.000000D+00  0.116136D+00  0.325044D+00
     24  0.000000D+00  0.910282D-02  0.159595D-01  0.431812D-01
     25  0.000000D+00 -0.379025D-05  0.139790D-04 -0.203145D-03  0.221261D+00
     26  0.000000D+00  0.140205D-04 -0.517095D-04  0.751453D-03 -0.118488D+00
     27  0.000000D+00 -0.206612D-03  0.762013D-03 -0.110737D-01 -0.123319D-01
               26            27 
     26  0.165047D+00
     27  0.933236D-02  0.420062D-01
 Leave Link  716 at Tue Dec 15 16:17:14 2015, MaxMem=    33554432 cpu:         0.0
 (Enter /home/Applications/g09/g09/l103.exe)

 GradGradGradGradGradGradGradGradGradGradGradGradGradGradGradGradGradGrad
 Berny optimization.
 Search for a local minimum.
 Step number   1 out of a maximum of    2
 All quantities printed in internal units (Hartrees-Bohrs-Radians)
 Second derivative matrix not updated -- first step.
 ITU=  0
     Eigenvalues ---    0.01845   0.02977   0.06721   0.07343   0.07534
     Eigenvalues ---    0.08124   0.12762   0.14135   0.16095   0.24152
     Eigenvalues ---    0.24589   0.30147   0.38037   0.42430   0.61055
     Eigenvalues ---    0.76867   1.03946   1.26959   1.43020   1.58138
     Eigenvalues ---    1.61234
 Quadratic step=4.469D-01 exceeds max=3.000D-01 adjusted using Lamda=-9.244D-02.
 Angle between NR and scaled steps=  18.32 degrees.
 Angle between quadratic step and forces=  33.89 degrees.
 Linear search not attempted -- first point.
 TrRot= -0.008282 -0.003432  0.001276 -0.203310  0.002442  0.204345
 Variable       Old X    -DE/DX   Delta X   Delta X   Delta X     New X
                                 (Linear)    (Quad)   (Total)
    X1        1.76334   0.11238   0.00000   0.12894   0.12223   1.88556
    Y1       -1.34826   0.00963   0.00000   0.00919   0.00768  -1.34058
    Z1        0.08232  -0.00081   0.00000  -0.00134  -0.00525   0.07707
    X2       -0.64431  -0.04803   0.00000  -0.03096  -0.03691  -0.68122
    Y2       -2.13860  -0.01904   0.00000   0.00904   0.00488  -2.13371
    Z2        0.07286  -0.00295   0.00000  -0.01745  -0.01561   0.05725
    X3       -2.17565  -0.11004   0.00000  -0.19480  -0.20309  -2.37874
    Y3        0.09334  -0.04175   0.00000  -0.02568  -0.03157   0.06176
    Z3        0.00187   0.00298   0.00000   0.02072   0.02769   0.02956
    X4       -0.71946  -0.01646   0.00000  -0.02164  -0.03210  -0.75156
    Y4        2.12134   0.06003   0.00000  -0.00417  -0.00837   2.11297
    Z4        0.00426   0.00166   0.00000   0.00234   0.00643   0.01070
    X5        1.76729   0.10078   0.00000   0.13166   0.12215   1.88944
    Y5        1.34386  -0.00817   0.00000  -0.00384  -0.00534   1.33851
    Z5        0.07915  -0.00367   0.00000  -0.01118  -0.01378   0.06537
    X6        3.47621  -0.01275   0.00000   0.05529   0.04426   3.52047
    Y6        2.56188  -0.00939   0.00000   0.00071   0.00095   2.56283
    Z6       -0.04588   0.00309   0.00000   0.01053   0.00464  -0.04124
    X7       -1.66224   0.00058   0.00000   0.00879  -0.00372  -1.66596
    Y7        3.95576  -0.00122   0.00000   0.00602   0.00090   3.95665
    Z7       -0.04019  -0.00263   0.00000  -0.01832  -0.01113  -0.05131
    X8       -1.50149  -0.01563   0.00000  -0.06916  -0.07346  -1.57495
    Y8       -3.95271  -0.00729   0.00000  -0.00228  -0.00731  -3.96002
    Z8       -0.03598  -0.00113   0.00000  -0.01220  -0.00913  -0.04511
    X9        3.42089  -0.01083   0.00000   0.06626   0.06065   3.48154
    Y9       -2.65842   0.01721   0.00000   0.03799   0.03818  -2.62024
    Z9       -0.03699   0.00347   0.00000   0.02449   0.01613  -0.02086
         Item               Value     Threshold  Converged?
 Maximum Force            0.112379     0.000450     NO 
 RMS     Force            0.040537     0.000300     NO 
 Maximum Displacement     0.203090     0.001800     NO 
 RMS     Displacement     0.057412     0.001200     NO 
 Predicted change in Energy=-3.039528D-02
 GradGradGradGradGradGradGradGradGradGradGradGradGradGradGradGradGradGrad

 Leave Link  103 at Tue Dec 15 16:17:14 2015, MaxMem=    33554432 cpu:         0.0
 (Enter /home/Applications/g09/g09/l9999.exe)
 1\1\GINC-DUSTIN-DESKTOP\Force\RAM1-FC\STO-3G\C4H4O1\DUSTIN\15-Dec-2015
 \0\\#P AM1(Input,print) CIS(Singlets,NStates=15) pop(full) force\\AM1-
 Reparam Input\\0,1\C,0.933117,-0.713469,0.043563\C,-0.340954,-1.131697
 ,0.038555\O,-1.151305,0.049391,0.000987\C,-0.380723,1.122565,0.002256\
 C,0.93521,0.711138,0.041882\H,1.83953,1.35569,-0.024278\H,-0.879617,2.
 093296,-0.021265\H,-0.794554,-2.091683,-0.019041\H,1.810258,-1.406774,
 -0.019575\\Version=ES64L-G09RevD.01\State=1-A\HF=0.01902\RMSD=4.109e-0
 9\RMSF=4.054e-02\Dipole=0.2743553,0.2016214,-0.1498716\PG=C01 [X(C4H4O
 1)]\\@


 IT IS IMPOSSIBLE TO MEDITATE ON TIME AND THE MYSTERY 
 OF NATURE WITHOUT AN OVERWHELMING EMOTION AT THE
 LIMITATIONS OF HUMAN INTELLIGENCE.

                                         -- ALFRED NORTH WHITEHEAD
 Job cpu time:       0 days  0 hours  0 minutes  0.4 seconds.
 File lengths (MBytes):  RWF=      7 Int=      0 D2E=      0 Chk=      2 Scr=      1
 Normal termination of Gaussian 09 at Tue Dec 15 16:17:14 2015.
