 Entering Gaussian System, Link 0=g09
 Input=FuranDFT_18.com
 Output=FuranDFT_18.log
 Initial command:
 /home/Applications/g09/g09/l1.exe "/home/Applications/g09/scratch/Gau-5597.inp" -scrdir="/home/Applications/g09/scratch/"
 Entering Link 1 = /home/Applications/g09/g09/l1.exe PID=      5599.
  
 Copyright (c) 1988,1990,1992,1993,1995,1998,2003,2009,2013,
            Gaussian, Inc.  All Rights Reserved.
  
 This is part of the Gaussian(R) 09 program.  It is based on
 the Gaussian(R) 03 system (copyright 2003, Gaussian, Inc.),
 the Gaussian(R) 98 system (copyright 1998, Gaussian, Inc.),
 the Gaussian(R) 94 system (copyright 1995, Gaussian, Inc.),
 the Gaussian 92(TM) system (copyright 1992, Gaussian, Inc.),
 the Gaussian 90(TM) system (copyright 1990, Gaussian, Inc.),
 the Gaussian 88(TM) system (copyright 1988, Gaussian, Inc.),
 the Gaussian 86(TM) system (copyright 1986, Carnegie Mellon
 University), and the Gaussian 82(TM) system (copyright 1983,
 Carnegie Mellon University). Gaussian is a federally registered
 trademark of Gaussian, Inc.
  
 This software contains proprietary and confidential information,
 including trade secrets, belonging to Gaussian, Inc.
  
 This software is provided under written license and may be
 used, copied, transmitted, or stored only in accord with that
 written license.
  
 The following legend is applicable only to US Government
 contracts under FAR:
  
                    RESTRICTED RIGHTS LEGEND
  
 Use, reproduction and disclosure by the US Government is
 subject to restrictions as set forth in subparagraphs (a)
 and (c) of the Commercial Computer Software - Restricted
 Rights clause in FAR 52.227-19.
  
 Gaussian, Inc.
 340 Quinnipiac St., Bldg. 40, Wallingford CT 06492
  
  
 ---------------------------------------------------------------
 Warning -- This program may not be used in any manner that
 competes with the business of Gaussian, Inc. or will provide
 assistance to any competitor of Gaussian, Inc.  The licensee
 of this program is prohibited from giving any competitor of
 Gaussian, Inc. access to this program.  By using this program,
 the user acknowledges that Gaussian, Inc. is engaged in the
 business of creating and licensing software in the field of
 computational chemistry and represents and warrants to the
 licensee that it is not a competitor of Gaussian, Inc. and that
 it will not use this program in any manner prohibited above.
 ---------------------------------------------------------------
  

 Cite this work as:
 Gaussian 09, Revision D.01,
 M. J. Frisch, G. W. Trucks, H. B. Schlegel, G. E. Scuseria, 
 M. A. Robb, J. R. Cheeseman, G. Scalmani, V. Barone, B. Mennucci, 
 G. A. Petersson, H. Nakatsuji, M. Caricato, X. Li, H. P. Hratchian, 
 A. F. Izmaylov, J. Bloino, G. Zheng, J. L. Sonnenberg, M. Hada, 
 M. Ehara, K. Toyota, R. Fukuda, J. Hasegawa, M. Ishida, T. Nakajima, 
 Y. Honda, O. Kitao, H. Nakai, T. Vreven, J. A. Montgomery, Jr., 
 J. E. Peralta, F. Ogliaro, M. Bearpark, J. J. Heyd, E. Brothers, 
 K. N. Kudin, V. N. Staroverov, T. Keith, R. Kobayashi, J. Normand, 
 K. Raghavachari, A. Rendell, J. C. Burant, S. S. Iyengar, J. Tomasi, 
 M. Cossi, N. Rega, J. M. Millam, M. Klene, J. E. Knox, J. B. Cross, 
 V. Bakken, C. Adamo, J. Jaramillo, R. Gomperts, R. E. Stratmann, 
 O. Yazyev, A. J. Austin, R. Cammi, C. Pomelli, J. W. Ochterski, 
 R. L. Martin, K. Morokuma, V. G. Zakrzewski, G. A. Voth, 
 P. Salvador, J. J. Dannenberg, S. Dapprich, A. D. Daniels, 
 O. Farkas, J. B. Foresman, J. V. Ortiz, J. Cioslowski, 
 and D. J. Fox, Gaussian, Inc., Wallingford CT, 2013.
 
 ******************************************
 Gaussian 09:  ES64L-G09RevD.01 24-Apr-2013
                15-Dec-2015 
 ******************************************
 -------------------------------------------------------
 #P B3LYP/3-21G CIS(Singlets,NStates=15) pop(full) force
 -------------------------------------------------------
 1/10=7,30=1,38=1/1,3;
 2/12=2,17=6,18=5,40=1/2;
 3/5=5,11=9,16=1,25=1,30=1,71=1,74=-5/1,2,8,3;
 4//1;
 5/5=2,38=5/2;
 8/6=1,10=1,108=15/1;
 9/15=2,41=15,42=1,48=1/14;
 10/5=4/2;
 6/7=3,18=1/1;
 7/12=6,13=5,29=1/1,2,3,16;
 1/10=7,30=1/3;
 99//99;
 Leave Link    1 at Tue Dec 15 16:13:48 2015, MaxMem=           0 cpu:         0.0
 (Enter /home/Applications/g09/g09/l101.exe)
 --------
 FuranDFT
 --------
 Symbolic Z-matrix:
 Charge =  0 Multiplicity = 1
 6                     0.9708   -0.73621   0.03952 
 6                    -0.36615  -1.09404  -0.04843 
 8                    -1.19233   0.04811   0.01772 
 6                    -0.32496   1.10728   0.02851 
 6                     0.90852   0.67368  -0.04543 
 1                     1.8187    1.34688  -0.03061 
 1                    -0.88028   2.03513   0.00427 
 1                    -0.8032   -2.01762  -0.03095 
 1                     1.82883  -1.38776  -0.00609 
 
 NAtoms=      9 NQM=        9 NQMF=       0 NMMI=      0 NMMIF=      0
                NMic=       0 NMicF=      0.
                    Isotopes and Nuclear Properties:
 (Nuclear quadrupole moments (NQMom) in fm**2, nuclear magnetic moments (NMagM)
  in nuclear magnetons)

  Atom         1           2           3           4           5           6           7           8           9
 IAtWgt=          12          12          16          12          12           1           1           1           1
 AtmWgt=  12.0000000  12.0000000  15.9949146  12.0000000  12.0000000   1.0078250   1.0078250   1.0078250   1.0078250
 NucSpn=           0           0           0           0           0           1           1           1           1
 AtZEff=   0.0000000   0.0000000   0.0000000   0.0000000   0.0000000   0.0000000   0.0000000   0.0000000   0.0000000
 NQMom=    0.0000000   0.0000000   0.0000000   0.0000000   0.0000000   0.0000000   0.0000000   0.0000000   0.0000000
 NMagM=    0.0000000   0.0000000   0.0000000   0.0000000   0.0000000   2.7928460   2.7928460   2.7928460   2.7928460
 AtZNuc=   6.0000000   6.0000000   8.0000000   6.0000000   6.0000000   1.0000000   1.0000000   1.0000000   1.0000000
 Leave Link  101 at Tue Dec 15 16:13:48 2015, MaxMem=    33554432 cpu:         0.1
 (Enter /home/Applications/g09/g09/l103.exe)

 GradGradGradGradGradGradGradGradGradGradGradGradGradGradGradGradGradGrad
 Berny optimization.
 Initialization pass.
 Trust Radius=3.00D-01 FncErr=1.00D-07 GrdErr=1.00D-07
 Number of steps in this run=      2 maximum allowed number of steps=      2.
 GradGradGradGradGradGradGradGradGradGradGradGradGradGradGradGradGradGrad

 Leave Link  103 at Tue Dec 15 16:13:48 2015, MaxMem=    33554432 cpu:         0.0
 (Enter /home/Applications/g09/g09/l202.exe)
                          Input orientation:                          
 ---------------------------------------------------------------------
 Center     Atomic      Atomic             Coordinates (Angstroms)
 Number     Number       Type             X           Y           Z
 ---------------------------------------------------------------------
      1          6           0        0.970799   -0.736209    0.039524
      2          6           0       -0.366154   -1.094039   -0.048431
      3          8           0       -1.192328    0.048114    0.017718
      4          6           0       -0.324964    1.107275    0.028506
      5          6           0        0.908521    0.673680   -0.045430
      6          1           0        1.818698    1.346882   -0.030611
      7          1           0       -0.880281    2.035126    0.004269
      8          1           0       -0.803198   -2.017616   -0.030951
      9          1           0        1.828826   -1.387755   -0.006087
 ---------------------------------------------------------------------
                    Distance matrix (angstroms):
                    1          2          3          4          5
     1  C    0.000000
     2  C    1.386803   0.000000
     3  O    2.301034   1.411188   0.000000
     4  C    2.253343   2.203043   1.369036   0.000000
     5  C    1.413818   2.179366   2.192917   1.309563   0.000000
     6  H    2.250138   3.275972   3.279544   2.157821   1.132185
     7  H    3.332872   3.171558   2.011410   1.081606   2.248515
     8  H    2.189529   1.021914   2.102625   3.161833   3.189556
     9  H    1.078333   2.214949   3.345095   3.296238   2.257880
                    6          7          8          9
     6  H    0.000000
     7  H    2.785567   0.000000
     8  H    4.265464   4.053628   0.000000
     9  H    2.734766   4.365259   2.706454   0.000000
 Stoichiometry    C4H4O
 Framework group  C1[X(C4H4O)]
 Deg. of freedom    21
 Full point group                 C1      NOp   1
 Largest Abelian subgroup         C1      NOp   1
 Largest concise Abelian subgroup C1      NOp   1
                         Standard orientation:                         
 ---------------------------------------------------------------------
 Center     Atomic      Atomic             Coordinates (Angstroms)
 Number     Number       Type             X           Y           Z
 ---------------------------------------------------------------------
      1          6           0       -1.151780    0.428735   -0.051436
      2          6           0       -0.731541   -0.889562    0.041920
      3          8           0        0.676392   -0.968070   -0.012975
      4          6           0        1.099382    0.333947   -0.022468
      5          6           0        0.067705    1.137959    0.042047
      6          1           0        0.142793    2.267538    0.026043
      7          1           0        2.179964    0.367783    0.010261
      8          1           0       -1.272615   -1.756239    0.021526
      9          1           0       -2.163874    0.799003   -0.014409
 ---------------------------------------------------------------------
 Rotational constants (GHZ):      9.7264940      8.9974689      4.6811868
 Leave Link  202 at Tue Dec 15 16:13:48 2015, MaxMem=    33554432 cpu:         0.0
 (Enter /home/Applications/g09/g09/l301.exe)
 Standard basis: 3-21G (6D, 7F)
 Ernie: Thresh=  0.10000D-02 Tol=  0.10000D-05 Strict=F.
 There are    53 symmetry adapted cartesian basis functions of A   symmetry.
 There are    53 symmetry adapted basis functions of A   symmetry.
    53 basis functions,    87 primitive gaussians,    53 cartesian basis functions
    18 alpha electrons       18 beta electrons
       nuclear repulsion energy       160.6667116021 Hartrees.
 IExCor=  402 DFT=T Ex+Corr=B3LYP ExCW=0 ScaHFX=  0.200000
 ScaDFX=  0.800000  0.720000  1.000000  0.810000 ScalE2=  1.000000  1.000000
 IRadAn=      0 IRanWt=     -1 IRanGd=            0 ICorTp=0 IEmpDi=  4
 NAtoms=    9 NActive=    9 NUniq=    9 SFac= 1.00D+00 NAtFMM=   60 NAOKFM=F Big=F
 Integral buffers will be    131072 words long.
 Regular integral format.
 Two-electron integral symmetry is turned on.
 Leave Link  301 at Tue Dec 15 16:13:48 2015, MaxMem=    33554432 cpu:         0.0
 (Enter /home/Applications/g09/g09/l302.exe)
 NPDir=0 NMtPBC=     1 NCelOv=     1 NCel=       1 NClECP=     1 NCelD=      1
         NCelK=      1 NCelE2=     1 NClLst=     1 CellRange=     0.0.
 One-electron integrals computed using PRISM.
 NBasis=    53 RedAO= T EigKep=  3.47D-03  NBF=    53
 NBsUse=    53 1.00D-06 EigRej= -1.00D+00 NBFU=    53
 Precomputing XC quadrature grid using
 IXCGrd= 4 IRadAn=           0 IRanWt=          -1 IRanGd=           0 AccXCQ= 0.00D+00.
 Generated NRdTot=       0 NPtTot=           0 NUsed=           0 NTot=          32
 NSgBfM=    53    53    53    53    53 MxSgAt=     9 MxSgA2=     9.
 Leave Link  302 at Tue Dec 15 16:13:49 2015, MaxMem=    33554432 cpu:         0.1
 (Enter /home/Applications/g09/g09/l308.exe)
 Leave Link  308 at Tue Dec 15 16:13:49 2015, MaxMem=    33554432 cpu:         0.0
 (Enter /home/Applications/g09/g09/l303.exe)
 DipDrv:  MaxL=1.
 Leave Link  303 at Tue Dec 15 16:13:49 2015, MaxMem=    33554432 cpu:         0.0
 (Enter /home/Applications/g09/g09/l401.exe)
 ExpMin= 1.83D-01 ExpMax= 3.22D+02 ExpMxC= 3.22D+02 IAcc=1 IRadAn=         1 AccDes= 0.00D+00
 Harris functional with IExCor=  402 and IRadAn=       1 diagonalized for initial guess.
 HarFok:  IExCor=  402 AccDes= 0.00D+00 IRadAn=         1 IDoV= 1 UseB2=F ITyADJ=14
 ICtDFT=  3500011 ScaDFX=  1.000000  1.000000  1.000000  1.000000
 FoFCou: FMM=F IPFlag=           0 FMFlag=      100000 FMFlg1=           0
         NFxFlg=           0 DoJE=T BraDBF=F KetDBF=T FulRan=T
         wScrn=  0.000000 ICntrl=     500 IOpCl=  0 I1Cent=   200000004 NGrid=           0
         NMat0=    1 NMatS0=      1 NMatT0=    0 NMatD0=    1 NMtDS0=    0 NMtDT0=    0
 Petite list used in FoFCou.
 Harris En= -228.728299241401    
 JPrj=0 DoOrth=F DoCkMO=F.
 Leave Link  401 at Tue Dec 15 16:13:49 2015, MaxMem=    33554432 cpu:         0.3
 (Enter /home/Applications/g09/g09/l502.exe)
 Closed shell SCF:
 Using DIIS extrapolation, IDIIS=  1040.
 Integral symmetry usage will be decided dynamically.
 Keep R1 ints in memory in canonical form, NReq=1925595.
 IVT=       27707 IEndB=       27707 NGot=    33554432 MDV=    32502130
 LenX=    32502130 LenY=    32498880
 Requested convergence on RMS density matrix=1.00D-08 within 128 cycles.
 Requested convergence on MAX density matrix=1.00D-06.
 Requested convergence on             energy=1.00D-06.
 No special actions if energy rises.
 FoFCou: FMM=F IPFlag=           0 FMFlag=           0 FMFlg1=           0
         NFxFlg=           0 DoJE=F BraDBF=F KetDBF=F FulRan=T
         wScrn=  0.000000 ICntrl=     600 IOpCl=  0 I1Cent=           0 NGrid=           0
         NMat0=    1 NMatS0=   1431 NMatT0=    0 NMatD0=    1 NMtDS0=    0 NMtDT0=    0
 Symmetry not used in FoFCou.
 Integral accuracy reduced to 1.0D-05 until final iterations.

 Cycle   1  Pass 0  IDiag  1:
 E= -228.657824850475    
 DIIS: error= 3.36D-02 at cycle   1 NSaved=   1.
 NSaved= 1 IEnMin= 1 EnMin= -228.657824850475     IErMin= 1 ErrMin= 3.36D-02
 ErrMax= 3.36D-02  0.00D+00 EMaxC= 1.00D-01 BMatC= 7.57D-02 BMatP= 7.57D-02
 IDIUse=3 WtCom= 6.64D-01 WtEn= 3.36D-01
 Coeff-Com:  0.100D+01
 Coeff-En:   0.100D+01
 Coeff:      0.100D+01
 Gap=     0.226 Goal=   None    Shift=    0.000
 GapD=    0.226 DampG=1.000 DampE=0.500 DampFc=0.5000 IDamp=-1.
 Damping current iteration by 5.00D-01
 RMSDP=1.17D-02 MaxDP=1.14D-01              OVMax= 1.94D-01

 Cycle   2  Pass 0  IDiag  1:
 E= -228.687873114271     Delta-E=       -0.030048263796 Rises=F Damp=T
 DIIS: error= 1.35D-02 at cycle   2 NSaved=   2.
 NSaved= 2 IEnMin= 2 EnMin= -228.687873114271     IErMin= 2 ErrMin= 1.35D-02
 ErrMax= 1.35D-02  0.00D+00 EMaxC= 1.00D-01 BMatC= 9.23D-03 BMatP= 7.57D-02
 IDIUse=3 WtCom= 8.65D-01 WtEn= 1.35D-01
 Coeff-Com:  0.121D+00 0.879D+00
 Coeff-En:   0.209D+00 0.791D+00
 Coeff:      0.133D+00 0.867D+00
 Gap=     0.241 Goal=   None    Shift=    0.000
 RMSDP=4.40D-03 MaxDP=3.59D-02 DE=-3.00D-02 OVMax= 1.68D-01

 Cycle   3  Pass 0  IDiag  1:
 E= -228.726261979111     Delta-E=       -0.038388864840 Rises=F Damp=F
 DIIS: error= 1.96D-02 at cycle   3 NSaved=   3.
 NSaved= 3 IEnMin= 3 EnMin= -228.726261979111     IErMin= 2 ErrMin= 1.35D-02
 ErrMax= 1.96D-02  0.00D+00 EMaxC= 1.00D-01 BMatC= 1.20D-02 BMatP= 9.23D-03
 IDIUse=2 WtCom= 0.00D+00 WtEn= 1.00D+00
 Coeff-En:   0.000D+00 0.000D+00 0.100D+01
 Coeff:      0.000D+00 0.000D+00 0.100D+01
 Gap=     0.233 Goal=   None    Shift=    0.000
 RMSDP=5.94D-03 MaxDP=4.84D-02 DE=-3.84D-02 OVMax= 1.29D-01

 Cycle   4  Pass 0  IDiag  1:
 E= -228.693807096739     Delta-E=        0.032454882371 Rises=F Damp=F
 DIIS: error= 4.01D-02 at cycle   4 NSaved=   4.
 NSaved= 4 IEnMin= 3 EnMin= -228.726261979111     IErMin= 2 ErrMin= 1.35D-02
 ErrMax= 4.01D-02  0.00D+00 EMaxC= 1.00D-01 BMatC= 4.83D-02 BMatP= 9.23D-03
 IDIUse=2 WtCom= 0.00D+00 WtEn= 1.00D+00
 Coeff-En:   0.000D+00 0.000D+00 0.752D+00 0.248D+00
 Coeff:      0.000D+00 0.000D+00 0.752D+00 0.248D+00
 Gap=     0.244 Goal=   None    Shift=    0.000
 RMSDP=2.97D-03 MaxDP=2.40D-02 DE= 3.25D-02 OVMax= 7.07D-02

 Cycle   5  Pass 0  IDiag  1:
 E= -228.734590350843     Delta-E=       -0.040783254103 Rises=F Damp=F
 DIIS: error= 9.56D-03 at cycle   5 NSaved=   5.
 NSaved= 5 IEnMin= 5 EnMin= -228.734590350843     IErMin= 5 ErrMin= 9.56D-03
 ErrMax= 9.56D-03  0.00D+00 EMaxC= 1.00D-01 BMatC= 2.76D-03 BMatP= 9.23D-03
 IDIUse=3 WtCom= 9.04D-01 WtEn= 9.56D-02
 Coeff-Com: -0.920D-02 0.304D-01 0.232D+00-0.102D+00 0.849D+00
 Coeff-En:   0.000D+00 0.000D+00 0.231D+00 0.000D+00 0.769D+00
 Coeff:     -0.832D-02 0.274D-01 0.232D+00-0.924D-01 0.841D+00
 Gap=     0.248 Goal=   None    Shift=    0.000
 RMSDP=1.03D-03 MaxDP=8.16D-03 DE=-4.08D-02 OVMax= 2.29D-02

 Cycle   6  Pass 0  IDiag  1:
 E= -228.737068800496     Delta-E=       -0.002478449653 Rises=F Damp=F
 DIIS: error= 5.73D-04 at cycle   6 NSaved=   6.
 NSaved= 6 IEnMin= 6 EnMin= -228.737068800496     IErMin= 6 ErrMin= 5.73D-04
 ErrMax= 5.73D-04  0.00D+00 EMaxC= 1.00D-01 BMatC= 1.04D-05 BMatP= 2.76D-03
 IDIUse=3 WtCom= 9.94D-01 WtEn= 5.73D-03
 Coeff-Com: -0.446D-02 0.923D-02 0.317D-01-0.320D-01 0.226D+00 0.770D+00
 Coeff-En:   0.000D+00 0.000D+00 0.000D+00 0.000D+00 0.000D+00 0.100D+01
 Coeff:     -0.443D-02 0.918D-02 0.315D-01-0.318D-01 0.224D+00 0.771D+00
 Gap=     0.248 Goal=   None    Shift=    0.000
 RMSDP=6.86D-05 MaxDP=5.11D-04 DE=-2.48D-03 OVMax= 1.34D-03

 Cycle   7  Pass 0  IDiag  1:
 E= -228.737079058179     Delta-E=       -0.000010257683 Rises=F Damp=F
 DIIS: error= 3.52D-05 at cycle   7 NSaved=   7.
 NSaved= 7 IEnMin= 7 EnMin= -228.737079058179     IErMin= 7 ErrMin= 3.52D-05
 ErrMax= 3.52D-05  0.00D+00 EMaxC= 1.00D-01 BMatC= 5.13D-08 BMatP= 1.04D-05
 IDIUse=1 WtCom= 1.00D+00 WtEn= 0.00D+00
 Coeff-Com: -0.152D-02 0.272D-02 0.106D-01-0.107D-01 0.821D-01 0.371D+00
 Coeff-Com:  0.546D+00
 Coeff:     -0.152D-02 0.272D-02 0.106D-01-0.107D-01 0.821D-01 0.371D+00
 Coeff:      0.546D+00
 Gap=     0.248 Goal=   None    Shift=    0.000
 RMSDP=4.49D-06 MaxDP=5.09D-05 DE=-1.03D-05 OVMax= 1.23D-04

 Initial convergence to 1.0D-05 achieved.  Increase integral accuracy.
 Cycle   8  Pass 1  IDiag  1:
 E= -228.737092645647     Delta-E=       -0.000013587468 Rises=F Damp=F
 DIIS: error= 1.52D-05 at cycle   1 NSaved=   1.
 NSaved= 1 IEnMin= 1 EnMin= -228.737092645647     IErMin= 1 ErrMin= 1.52D-05
 ErrMax= 1.52D-05  0.00D+00 EMaxC= 1.00D-01 BMatC= 1.40D-08 BMatP= 1.40D-08
 IDIUse=1 WtCom= 1.00D+00 WtEn= 0.00D+00
 Coeff-Com:  0.100D+01
 Coeff:      0.100D+01
 Gap=     0.248 Goal=   None    Shift=    0.000
 RMSDP=4.49D-06 MaxDP=5.09D-05 DE=-1.36D-05 OVMax= 1.23D-04

 Cycle   9  Pass 1  IDiag  1:
 E= -228.737092641047     Delta-E=        0.000000004600 Rises=F Damp=F
 DIIS: error= 2.68D-05 at cycle   2 NSaved=   2.
 NSaved= 2 IEnMin= 1 EnMin= -228.737092645647     IErMin= 1 ErrMin= 1.52D-05
 ErrMax= 2.68D-05  0.00D+00 EMaxC= 1.00D-01 BMatC= 2.05D-08 BMatP= 1.40D-08
 IDIUse=1 WtCom= 1.00D+00 WtEn= 0.00D+00
 Coeff-Com:  0.557D+00 0.443D+00
 Coeff:      0.557D+00 0.443D+00
 Gap=     0.248 Goal=   None    Shift=    0.000
 RMSDP=3.27D-06 MaxDP=4.26D-05 DE= 4.60D-09 OVMax= 1.01D-04

 Cycle  10  Pass 1  IDiag  1:
 E= -228.737092661909     Delta-E=       -0.000000020862 Rises=F Damp=F
 DIIS: error= 6.66D-06 at cycle   3 NSaved=   3.
 NSaved= 3 IEnMin= 3 EnMin= -228.737092661909     IErMin= 3 ErrMin= 6.66D-06
 ErrMax= 6.66D-06  0.00D+00 EMaxC= 1.00D-01 BMatC= 1.17D-09 BMatP= 1.40D-08
 IDIUse=1 WtCom= 1.00D+00 WtEn= 0.00D+00
 Coeff-Com: -0.156D-01 0.186D+00 0.830D+00
 Coeff:     -0.156D-01 0.186D+00 0.830D+00
 Gap=     0.248 Goal=   None    Shift=    0.000
 RMSDP=6.51D-07 MaxDP=7.36D-06 DE=-2.09D-08 OVMax= 1.88D-05

 Cycle  11  Pass 1  IDiag  1:
 E= -228.737092663078     Delta-E=       -0.000000001169 Rises=F Damp=F
 DIIS: error= 1.73D-06 at cycle   4 NSaved=   4.
 NSaved= 4 IEnMin= 4 EnMin= -228.737092663078     IErMin= 4 ErrMin= 1.73D-06
 ErrMax= 1.73D-06  0.00D+00 EMaxC= 1.00D-01 BMatC= 1.01D-10 BMatP= 1.17D-09
 IDIUse=1 WtCom= 1.00D+00 WtEn= 0.00D+00
 Coeff-Com: -0.175D-01 0.112D+00 0.516D+00 0.390D+00
 Coeff:     -0.175D-01 0.112D+00 0.516D+00 0.390D+00
 Gap=     0.248 Goal=   None    Shift=    0.000
 RMSDP=1.68D-07 MaxDP=2.14D-06 DE=-1.17D-09 OVMax= 3.43D-06

 Cycle  12  Pass 1  IDiag  1:
 E= -228.737092663154     Delta-E=       -0.000000000076 Rises=F Damp=F
 DIIS: error= 3.26D-07 at cycle   5 NSaved=   5.
 NSaved= 5 IEnMin= 5 EnMin= -228.737092663154     IErMin= 5 ErrMin= 3.26D-07
 ErrMax= 3.26D-07  0.00D+00 EMaxC= 1.00D-01 BMatC= 3.08D-12 BMatP= 1.01D-10
 IDIUse=1 WtCom= 1.00D+00 WtEn= 0.00D+00
 Coeff-Com: -0.718D-02 0.385D-01 0.173D+00 0.187D+00 0.609D+00
 Coeff:     -0.718D-02 0.385D-01 0.173D+00 0.187D+00 0.609D+00
 Gap=     0.248 Goal=   None    Shift=    0.000
 RMSDP=5.19D-08 MaxDP=5.36D-07 DE=-7.59D-11 OVMax= 1.17D-06

 Cycle  13  Pass 1  IDiag  1:
 E= -228.737092663158     Delta-E=       -0.000000000004 Rises=F Damp=F
 DIIS: error= 1.09D-07 at cycle   6 NSaved=   6.
 NSaved= 6 IEnMin= 6 EnMin= -228.737092663158     IErMin= 6 ErrMin= 1.09D-07
 ErrMax= 1.09D-07  0.00D+00 EMaxC= 1.00D-01 BMatC= 6.30D-13 BMatP= 3.08D-12
 IDIUse=1 WtCom= 1.00D+00 WtEn= 0.00D+00
 Coeff-Com: -0.185D-02 0.683D-02 0.274D-01 0.456D-01 0.350D+00 0.572D+00
 Coeff:     -0.185D-02 0.683D-02 0.274D-01 0.456D-01 0.350D+00 0.572D+00
 Gap=     0.248 Goal=   None    Shift=    0.000
 RMSDP=1.64D-08 MaxDP=1.74D-07 DE=-4.38D-12 OVMax= 3.99D-07

 Cycle  14  Pass 1  IDiag  1:
 E= -228.737092663157     Delta-E=        0.000000000001 Rises=F Damp=F
 DIIS: error= 2.40D-08 at cycle   7 NSaved=   7.
 NSaved= 7 IEnMin= 6 EnMin= -228.737092663158     IErMin= 7 ErrMin= 2.40D-08
 ErrMax= 2.40D-08  0.00D+00 EMaxC= 1.00D-01 BMatC= 3.42D-14 BMatP= 6.30D-13
 IDIUse=1 WtCom= 1.00D+00 WtEn= 0.00D+00
 Coeff-Com: -0.108D-03-0.470D-03-0.395D-02 0.170D-02 0.120D+00 0.269D+00
 Coeff-Com:  0.615D+00
 Coeff:     -0.108D-03-0.470D-03-0.395D-02 0.170D-02 0.120D+00 0.269D+00
 Coeff:      0.615D+00
 Gap=     0.248 Goal=   None    Shift=    0.000
 RMSDP=4.38D-09 MaxDP=4.89D-08 DE= 9.09D-13 OVMax= 6.30D-08

 SCF Done:  E(RB3LYP) =  -228.737092663     A.U. after   14 cycles
            NFock= 14  Conv=0.44D-08     -V/T= 2.0080
 KE= 2.269246033353D+02 PE=-8.539706533751D+02 EE= 2.376422457745D+02
 Leave Link  502 at Tue Dec 15 16:13:54 2015, MaxMem=    33554432 cpu:         5.3
 (Enter /home/Applications/g09/g09/l801.exe)
 DoSCS=F DFT=T ScalE2(SS,OS)=  1.000000  1.000000
 ExpMin= 1.83D-01 ExpMax= 3.22D+02 ExpMxC= 3.22D+02 IAcc=3 IRadAn=         5 AccDes= 0.00D+00
 HarFok:  IExCor=  205 AccDes= 0.00D+00 IRadAn=         5 IDoV=-2 UseB2=F ITyADJ=14
 ICtDFT= 12500011 ScaDFX=  1.000000  1.000000  1.000000  1.000000
 Largest valence mixing into a core orbital is  1.76D-04
 Largest core mixing into a valence orbital is  4.82D-05
 Range of M.O.s used for correlation:     6    53
 NBasis=    53 NAE=    18 NBE=    18 NFC=     5 NFV=     0
 NROrb=     48 NOA=    13 NOB=    13 NVA=    35 NVB=    35
 Leave Link  801 at Tue Dec 15 16:13:55 2015, MaxMem=    33554432 cpu:         0.3
 (Enter /home/Applications/g09/g09/l914.exe)
 RHF ground state
 MDV=    33554432 DFT=T DoStab=F Mixed=T DoRPA=F DoScal=F NonHer=F
 Keep R1, R2, and R3 ints in memory in canonical form, NReq=5596273.
 FoFCou: FMM=F IPFlag=           0 FMFlag=           0 FMFlg1=           0
         NFxFlg=           0 DoJE=F BraDBF=F KetDBF=F FulRan=T
         wScrn=  0.000000 ICntrl=     600 IOpCl=  0 I1Cent=           0 NGrid=           0
         NMat0=    1 NMatS0=   1431 NMatT0=    0 NMatD0=    1 NMtDS0=    0 NMtDT0=    0
 Symmetry not used in FoFCou.
 Making orbital integer symmetry assigments:
 Orbital symmetries:
       Occupied  (A) (A) (A) (A) (A) (A) (A) (A) (A) (A) (A) (A)
                 (A) (A) (A) (A) (A) (A)
       Virtual   (A) (A) (A) (A) (A) (A) (A) (A) (A) (A) (A) (A)
                 (A) (A) (A) (A) (A) (A) (A) (A) (A) (A) (A) (A)
                 (A) (A) (A) (A) (A) (A) (A) (A) (A) (A) (A)
    60 initial guesses have been made.
 Convergence on wavefunction:    0.000001000000000
 Davidson Disk Diagonalization:  ConvIn= 1.00D-06 SkipCon=T Conv= 1.00D-06.
 Max sub-space:   240 roots to seek:    60 dimension of matrix:          910
 Iteration     1 Dimension    60 NMult     0 NNew     60
 CISAX will form    60 AO SS matrices at one time.
 NMat=    60 NSing=    60 JSym2X= 0.
 New state      1 was old state      2
 New state      2 was old state      1
 New state      3 was old state      4
 New state      4 was old state      6
 New state      5 was old state      7
 New state      6 was old state      9
 New state      7 was old state      8
 New state      8 was old state     10
 New state      9 was old state      5
 New state     10 was old state     11
 New state     11 was old state     13
 New state     13 was old state      3
 Excitation Energies [eV] at current iteration:
 Root      1 :     7.347819290675024
 Root      2 :     7.986344360145807
 Root      3 :     8.289636556907682
 Root      4 :     8.738426137256004
 Root      5 :     9.301973628767692
 Root      6 :     9.489898248123989
 Root      7 :     9.612225771706207
 Root      8 :     9.953678562261134
 Root      9 :    10.105146485001840
 Root     10 :    10.248522518238480
 Root     11 :    10.553648502791980
 Root     12 :    10.585371521125080
 Root     13 :    10.715073529808890
 Root     14 :    10.817363170343100
 Root     15 :    10.953284574838860
 Root     16 :    11.082999811426630
 Root     17 :    11.192335915130240
 Root     18 :    11.288010259085710
 Root     19 :    11.350356799526790
 Root     20 :    11.545424628019220
 Root     21 :    11.786152671321600
 Root     22 :    12.106476829369580
 Root     23 :    12.384029136443170
 Root     24 :    12.576941810234380
 Root     25 :    12.680104465707560
 Root     26 :    13.071950501098960
 Root     27 :    13.179135437160610
 Root     28 :    13.511523386268860
 Root     29 :    13.618014571672380
 Root     30 :    13.730036945327110
 Root     31 :    13.742944864358510
 Root     32 :    13.817609830408430
 Root     33 :    13.953723524924970
 Root     34 :    14.020168434490170
 Root     35 :    14.048484925906250
 Root     36 :    14.367069623468550
 Root     37 :    14.406493414462610
 Root     38 :    14.572213138684500
 Root     39 :    14.672431412372050
 Root     40 :    14.746804877310490
 Root     41 :    14.875976598280980
 Root     42 :    14.973777329745570
 Root     43 :    15.037464754690490
 Root     44 :    15.241218711169900
 Root     45 :    15.463980175401210
 Root     46 :    15.543441283421360
 Root     47 :    15.562276358259910
 Root     48 :    15.574392578812790
 Root     49 :    15.669265071693860
 Root     50 :    15.861607148958330
 Root     51 :    15.890181680241250
 Root     52 :    15.983278839777970
 Root     53 :    15.992739162007190
 Root     54 :    16.102174038801710
 Root     55 :    16.198533275553070
 Root     56 :    16.634640600167100
 Root     57 :    16.918792105071490
 Root     58 :    17.405895657479590
 Root     59 :    18.109353631880960
 Root     60 :    19.551027085605420
 Iteration     2 Dimension   120 NMult    60 NNew     60
 CISAX will form    60 AO SS matrices at one time.
 NMat=    60 NSing=    60 JSym2X= 0.
 Root      1 not converged, maximum delta is    0.325455117589032
 Root      2 not converged, maximum delta is    0.280048473126009
 Root      3 not converged, maximum delta is    0.020817280033812
 Root      4 not converged, maximum delta is    0.025798975366388
 Root      5 not converged, maximum delta is    0.124260052885925
 Root      6 not converged, maximum delta is    0.207038392070517
 New state      7 was old state      9
 Root      7 not converged, maximum delta is    0.491571656262429
 New state      8 was old state      7
 Root      8 not converged, maximum delta is    0.189124843304178
 New state      9 was old state     13
 Root      9 not converged, maximum delta is    0.236808694776226
 New state     10 was old state      8
 Root     10 not converged, maximum delta is    0.269677472586856
 New state     11 was old state     10
 Root     11 not converged, maximum delta is    0.072924669970735
 New state     12 was old state     11
 Root     12 not converged, maximum delta is    0.421821612808378
 New state     13 was old state     12
 Root     13 not converged, maximum delta is    0.419655373861278
 Root     14 not converged, maximum delta is    0.031953027959111
 Root     15 not converged, maximum delta is    0.064608723422242
 Excitation Energies [eV] at current iteration:
 Root      1 :     7.040483970003317   Change is   -0.307335320671707
 Root      2 :     7.375785681982400   Change is   -0.610558678163407
 Root      3 :     8.282243353046333   Change is   -0.007393203861349
 Root      4 :     8.711230788825166   Change is   -0.027195348430839
 Root      5 :     9.238330636862246   Change is   -0.063642991905446
 Root      6 :     9.454152120430532   Change is   -0.035746127693458
 Root      7 :     9.554157089072143   Change is   -0.550989395929698
 Root      8 :     9.601720758814000   Change is   -0.010505012892206
 Root      9 :     9.839521083696141   Change is   -0.875552446112749
 Root     10 :    10.008960449262500   Change is    0.055281887001366
 Root     11 :    10.230127165214620   Change is   -0.018395353023856
 Root     12 :    10.528242431718670   Change is   -0.025406071073307
 Root     13 :    10.567852660519690   Change is   -0.017518860605388
 Root     14 :    10.801421257177390   Change is   -0.015941913165706
 Root     15 :    10.921907110422320   Change is   -0.031377464416535
 Root     16 :    11.040265737910460   Change is   -0.042734073516173
 Root     17 :    11.150421479174300   Change is   -0.041914435955934
 Root     18 :    11.220561846734720   Change is   -0.067448412350991
 Root     19 :    11.333116407379630   Change is   -0.017240392147157
 Root     20 :    11.498413716492880   Change is   -0.047010911526338
 Root     21 :    11.583290222132970   Change is   -0.202862449188634
 Root     22 :    12.066582918311000   Change is   -0.039893911058576
 Root     23 :    12.331021246349980   Change is   -0.053007890093192
 Root     24 :    12.443846535786700   Change is   -0.236257929920851
 Root     25 :    12.545430493760450   Change is   -0.031511316473928
 Root     26 :    12.848801145831970   Change is   -0.662722240436887
 Root     27 :    13.032282391749540   Change is   -0.039668109349415
 Root     28 :    13.060194478459500   Change is   -0.118940958701102
 Root     29 :    13.353944543178830   Change is   -0.599778981746140
 Root     30 :    13.627091492266580   Change is    0.009076920594207
 Root     31 :    13.682745957174310   Change is   -0.047290988152806
 Root     32 :    13.708992670650350   Change is   -0.033952193708162
 Root     33 :    13.847565167694360   Change is    0.029955337285934
 Root     34 :    13.961928366647880   Change is   -0.086556559258372
 Root     35 :    13.985175904261800   Change is   -0.034992530228367
 Root     36 :    14.282483871370880   Change is   -0.084585752097664
 Root     37 :    14.361944418921100   Change is   -0.044548995541505
 Root     38 :    14.478838201731100   Change is   -0.093374936953394
 Root     39 :    14.566409563605480   Change is   -0.106021848766568
 Root     40 :    14.652362177136550   Change is   -0.094442700173942
 Root     41 :    14.737372497648420   Change is   -0.138604100632559
 Root     42 :    14.809452856607290   Change is   -0.431765854562605
 Root     43 :    14.867586980075710   Change is   -0.106190349669866
 Root     44 :    14.982449061031920   Change is   -0.055015693658568
 Root     45 :    15.217152631647320   Change is   -0.246827543753895
 Root     46 :    15.474210423896980   Change is   -0.069230859524379
 Root     47 :    15.486806209427770   Change is   -0.075470148832143
 Root     48 :    15.524477316284630   Change is   -0.049915262528158
 Root     49 :    15.580749600920240   Change is   -0.088515470773628
 Root     50 :    15.679333625064500   Change is   -0.182273523893832
 Root     51 :    15.699549162519730   Change is   -0.293189999487461
 Root     52 :    15.770006869174770   Change is   -0.120174811066477
 Root     53 :    15.855400180379710   Change is   -0.127878659398261
 Root     54 :    15.868044791094590   Change is   -0.234129247707117
 Root     55 :    16.100363386887510   Change is   -0.098169888665556
 Root     56 :    16.253240578146500   Change is   -0.665551526924990
 Root     57 :    16.382051841728680   Change is   -1.023843815750909
 Root     58 :    16.522545470550530   Change is   -0.112095129616573
 Root     59 :    16.735107030469900   Change is   -1.374246601411053
 Root     60 :    16.900409877356940   Change is   -2.650617208248485
 Iteration     3 Dimension   135 NMult   120 NNew     15
 CISAX will form    15 AO SS matrices at one time.
 NMat=    15 NSing=    15 JSym2X= 0.
 Root      1 not converged, maximum delta is    0.001964898981894
 Root      2 not converged, maximum delta is    0.001717352167984
 Root      3 not converged, maximum delta is    0.000119273669061
 Root      4 not converged, maximum delta is    0.000166879381213
 Root      5 not converged, maximum delta is    0.001500191535304
 Root      6 not converged, maximum delta is    0.003584023890570
 Root      7 not converged, maximum delta is    0.008835677545828
 Root      8 not converged, maximum delta is    0.008100797928198
 Root      9 not converged, maximum delta is    0.003645407387718
 Root     10 not converged, maximum delta is    0.002581620373964
 Root     11 not converged, maximum delta is    0.000347376044522
 Root     12 not converged, maximum delta is    0.000495173375219
 Root     13 not converged, maximum delta is    0.000497151468475
 Root     14 not converged, maximum delta is    0.000307177017014
 Root     15 not converged, maximum delta is    0.000322426766652
 Excitation Energies [eV] at current iteration:
 Root      1 :     7.038981784557870   Change is   -0.001502185445447
 Root      2 :     7.374466784674802   Change is   -0.001318897307598
 Root      3 :     8.282235436165028   Change is   -0.000007916881305
 Root      4 :     8.711205568712163   Change is   -0.000025220113002
 Root      5 :     9.237766426760187   Change is   -0.000564210102060
 Root      6 :     9.453636294506095   Change is   -0.000515825924436
 Root      7 :     9.553002431102319   Change is   -0.001154657969823
 Root      8 :     9.601103391939169   Change is   -0.000617366874830
 Root      9 :     9.836690933309381   Change is   -0.002830150386760
 Root     10 :    10.008378496110520   Change is   -0.000581953151983
 Root     11 :    10.230097217952750   Change is   -0.000029947261872
 Root     12 :    10.528170210447990   Change is   -0.000072221270682
 Root     13 :    10.567755827577700   Change is   -0.000096832941999
 Root     14 :    10.801404247870800   Change is   -0.000017009306592
 Root     15 :    10.921861727521920   Change is   -0.000045382900404
 Iteration     4 Dimension   150 NMult   135 NNew     15
 CISAX will form    15 AO SS matrices at one time.
 NMat=    15 NSing=    15 JSym2X= 0.
 Root      1 not converged, maximum delta is    0.000050317569437
 Root      2 not converged, maximum delta is    0.000038068548849
 Root      3 not converged, maximum delta is    0.000003153376751
 Root      4 not converged, maximum delta is    0.000005016361397
 Root      5 not converged, maximum delta is    0.000029615509759
 Root      6 not converged, maximum delta is    0.000027518913250
 Root      7 not converged, maximum delta is    0.000038449616609
 Root      8 not converged, maximum delta is    0.000028878593655
 Root      9 not converged, maximum delta is    0.000084207951185
 Root     10 not converged, maximum delta is    0.000038122056259
 Root     11 not converged, maximum delta is    0.000006488822207
 Root     12 not converged, maximum delta is    0.000012309952239
 Root     13 not converged, maximum delta is    0.000016525602359
 Root     14 not converged, maximum delta is    0.000003931264019
 Root     15 not converged, maximum delta is    0.000012336675266
 Excitation Energies [eV] at current iteration:
 Root      1 :     7.038980192298984   Change is   -0.000001592258886
 Root      2 :     7.374465286395043   Change is   -0.000001498279759
 Root      3 :     8.282235429172902   Change is   -0.000000006992126
 Root      4 :     8.711205550030275   Change is   -0.000000018681889
 Root      5 :     9.237765592792362   Change is   -0.000000833967824
 Root      6 :     9.453635536886081   Change is   -0.000000757620015
 Root      7 :     9.553000714525247   Change is   -0.000001716577074
 Root      8 :     9.601102519872954   Change is   -0.000000872066216
 Root      9 :     9.836686569602712   Change is   -0.000004363706669
 Root     10 :    10.008377633717630   Change is   -0.000000862392892
 Root     11 :    10.230097195909420   Change is   -0.000000022043331
 Root     12 :    10.528170118886860   Change is   -0.000000091561132
 Root     13 :    10.567755697686770   Change is   -0.000000129890929
 Root     14 :    10.801404231551740   Change is   -0.000000016319058
 Root     15 :    10.921861659629020   Change is   -0.000000067892896
 Iteration     5 Dimension   165 NMult   150 NNew     15
 CISAX will form    15 AO SS matrices at one time.
 NMat=    15 NSing=    15 JSym2X= 0.
 Root      1 not converged, maximum delta is    0.000001463785446
 Root      2 not converged, maximum delta is    0.000001075501168
 Root      3 has converged.
 Root      4 has converged.
 Root      5 has converged.
 Root      6 has converged.
 Root      7 not converged, maximum delta is    0.000001488382549
 Root      8 has converged.
 Root      9 not converged, maximum delta is    0.000002310250844
 Root     10 not converged, maximum delta is    0.000001038152238
 Root     11 has converged.
 Root     12 has converged.
 Root     13 has converged.
 Root     14 has converged.
 Root     15 has converged.
 Excitation Energies [eV] at current iteration:
 Root      1 :     7.038980191015496   Change is   -0.000000001283488
 Root      2 :     7.374465285237249   Change is   -0.000000001157794
 Root      3 :     8.282235429168297   Change is   -0.000000000004606
 Root      4 :     8.711205550015691   Change is   -0.000000000014583
 Root      5 :     9.237765592270906   Change is   -0.000000000521456
 Root      6 :     9.453635536349751   Change is   -0.000000000536329
 Root      7 :     9.553000713279213   Change is   -0.000000001246033
 Root      8 :     9.601102519283817   Change is   -0.000000000589137
 Root      9 :     9.836686565912672   Change is   -0.000000003690040
 Root     10 :    10.008377633033310   Change is   -0.000000000684316
 Root     11 :    10.230097195888620   Change is   -0.000000000020797
 Root     12 :    10.528170118799580   Change is   -0.000000000087279
 Root     13 :    10.567755697542550   Change is   -0.000000000144220
 Root     14 :    10.801404231534320   Change is   -0.000000000017426
 Root     15 :    10.921861659574980   Change is   -0.000000000054044
 Iteration     6 Dimension   169 NMult   165 NNew      4
 CISAX will form     4 AO SS matrices at one time.
 NMat=     4 NSing=     4 JSym2X= 0.
 Root      1 has converged.
 Root      2 has converged.
 Root      3 has converged.
 Root      4 has converged.
 Root      5 has converged.
 Root      6 has converged.
 Root      7 has converged.
 Root      8 has converged.
 Root      9 has converged.
 Root     10 has converged.
 Root     11 has converged.
 Root     12 has converged.
 Root     13 has converged.
 Root     14 has converged.
 Root     15 has converged.
 Excitation Energies [eV] at current iteration:
 Root      1 :     7.038980191015273   Change is   -0.000000000000224
 Root      2 :     7.374465285236953   Change is   -0.000000000000296
 Root      3 :     8.282235429168283   Change is   -0.000000000000014
 Root      4 :     8.711205550015688   Change is   -0.000000000000005
 Root      5 :     9.237765592270714   Change is   -0.000000000000192
 Root      6 :     9.453635536349500   Change is   -0.000000000000251
 Root      7 :     9.553000713278648   Change is   -0.000000000000566
 Root      8 :     9.601102519283545   Change is   -0.000000000000270
 Root      9 :     9.836686565910922   Change is   -0.000000000001749
 Root     10 :    10.008377633032990   Change is   -0.000000000000317
 Root     11 :    10.230097195888620   Change is   -0.000000000000002
 Root     12 :    10.528170118799510   Change is   -0.000000000000066
 Root     13 :    10.567755697542490   Change is   -0.000000000000053
 Root     14 :    10.801404231534320   Change is    0.000000000000003
 Root     15 :    10.921861659574970   Change is   -0.000000000000008
 Convergence achieved on expansion vectors.
 ***********************************************************************
 Excited states from <AA,BB:AA,BB> singles matrix:
 ***********************************************************************
 
 1PDM for each excited state written to RWF  633
 Ground to excited state transition densities written to RWF  633
 Ground to excited state transition electric dipole moments (Au):
       state          X           Y           Z        Dip. S.      Osc.
         1         0.7242      0.5393     -0.1082      0.8271      0.1426
         2        -0.4276     -0.4783      0.0877      0.4192      0.0757
         3        -0.0123     -0.0131     -0.0152      0.0006      0.0001
         4        -0.0038      0.0337     -0.1389      0.0204      0.0044
         5         0.4236     -0.3375      0.1102      0.3055      0.0691
         6         0.4717     -0.0768      0.0507      0.2309      0.0535
         7         0.6989     -0.1837      0.0129      0.5224      0.1223
         8        -0.4653      0.2779     -0.0289      0.2946      0.0693
         9        -0.1684      1.0641      0.0912      1.1689      0.2817
        10        -0.2950      0.3687     -0.0335      0.2241      0.0549
        11         0.1077      0.0406     -0.0254      0.0139      0.0035
        12         0.1181      0.0309      0.0372      0.0163      0.0042
        13         0.0589      0.1402     -0.0806      0.0296      0.0077
        14         0.0527     -0.0016     -0.0157      0.0030      0.0008
        15         0.0321     -0.0403      0.1300      0.0196      0.0052
 Ground to excited state transition velocity dipole moments (Au):
       state          X           Y           Z        Dip. S.      Osc.
         1         0.0186     -0.0214     -0.0057      0.0008      0.0022
         2         0.0325     -0.0439      0.0025      0.0030      0.0074
         3        -0.0043      0.0056     -0.0067      0.0001      0.0002
         4         0.0009      0.0014      0.0735      0.0054      0.0112
         5        -0.0148      0.0027     -0.0215      0.0007      0.0014
         6        -0.0292     -0.0199      0.0040      0.0013      0.0024
         7        -0.0406     -0.0209      0.0144      0.0023      0.0044
         8         0.0296      0.0065     -0.0249      0.0015      0.0029
         9        -0.0391     -0.0583     -0.0040      0.0049      0.0091
        10         0.0132      0.0051      0.0358      0.0015      0.0027
        11        -0.0261     -0.0149      0.0203      0.0013      0.0023
        12        -0.0168     -0.0056     -0.0567      0.0035      0.0061
        13        -0.0166     -0.0195      0.0072      0.0007      0.0012
        14        -0.0139      0.0025      0.0119      0.0003      0.0006
        15         0.0054     -0.0027      0.0036      0.0000      0.0001
 Ground to excited state transition magnetic dipole moments (Au):
       state          X           Y           Z
         1         0.0313      0.0654      0.3903
         2        -0.0344      0.0474     -0.3542
         3        -0.2874      0.4621     -0.0139
         4        -1.3185     -0.8526     -0.0462
         5         0.1143     -0.0659      0.0347
         6         0.3439      0.0685     -0.1319
         7        -0.3660     -0.0489     -0.0562
         8         0.0619     -0.0624     -0.0264
         9         0.0927     -0.1098     -0.2266
        10         0.1064     -0.0072     -0.0760
        11         0.0376      0.1795      0.0490
        12         0.0253      0.1530     -0.1071
        13         0.0562     -0.1325     -0.0282
        14         0.7591     -0.6013     -0.0141
        15         0.5209     -1.1011      0.0478
 Ground to excited state transition velocity quadrupole moments (Au):
       state          XX          YY          ZZ          XY          XZ          YZ
         1        -0.1488      0.1133      0.0169      0.0470      0.0001      0.0024
         2         0.1187     -0.1589      0.0253     -0.0754      0.0056     -0.0021
         3        -0.0030      0.0190     -0.0031     -0.0190     -0.0347     -0.0087
         4        -0.0090      0.0100     -0.0045      0.0124      0.0948     -0.1728
         5        -0.0492      0.0141      0.0201     -0.0855     -0.1538     -0.0479
         6         0.1254     -0.0959      0.0037     -0.1051      0.0472      0.0102
         7         0.1126     -0.1359      0.0235     -0.1692      0.0961     -0.0687
         8        -0.0807      0.1116     -0.0262      0.1512      0.0665     -0.0237
         9         0.2765     -0.2942     -0.0432      0.0930     -0.0045      0.0156
        10         0.0974     -0.1036     -0.0239      0.0568     -0.0787     -0.1338
        11         0.0306     -0.0341      0.0031     -0.0286     -0.0494      0.0794
        12         0.0360     -0.0662      0.0058     -0.0243      0.0212      0.0377
        13         0.1147     -0.0690     -0.0156     -0.0231     -0.0165      0.0393
        14         0.0318     -0.0165     -0.0141      0.0317      0.0777      0.1220
        15        -0.0017      0.0389      0.0038     -0.0153      0.1568      0.1191
 <0|del|b> * <b|rxdel|0> + <0|del|b> * <b|delr+rdel|0>
 Rotatory Strengths (R) in cgs (10**-40 erg-esu-cm/Gauss)
       state          XX          YY          ZZ    R(velocity)    E-M Angle
         1        -5.3178     -1.8137     -1.1787     -2.7701      105.34
         2        -3.8201     -2.4700     -4.4106     -3.5669      102.05
         3         3.4981      1.4332      4.1757      3.0357       42.20
         4        -4.2453     -6.2029     -2.3192     -4.2558       92.87
         5         1.3839     -3.7203     -3.1115     -1.8160      136.89
         6        -1.4071    -10.6240    -12.2508     -8.0940      153.62
         7        -0.2236     19.4396     11.1769     10.1310       32.57
         8        -3.9601      5.5683      2.5637      1.3906       54.67
         9         6.5252     -2.8913      3.5720      2.4020       78.73
        10        -0.3091     -4.9212      2.6368     -0.8645      105.52
        11        -2.8186     -1.3907     -0.7981     -1.6691      112.75
        12         6.1302      3.3230     -0.7084      2.9150       64.71
        13         1.7230     -1.4813      2.3892      0.8770       68.30
        14        -1.3428    -11.4035     -9.0747     -7.2737      133.17
        15         3.1466      3.2351      4.1887      3.5234       45.69
 1/2[<0|r|b>*<b|rxdel|0> + (<0|rxdel|b>*<b|r|0>)*]
 Rotatory Strengths (R) in cgs (10**-40 erg-esu-cm/Gauss)
       state          XX          YY          ZZ     R(length)
         1       -16.0528    -24.9465     29.8632     -3.7120
         2       -10.3933     16.0330     21.9581      9.1993
         3        -2.4959      4.2779     -0.1489      0.5444
         4        -3.5464     20.3101     -4.5351      4.0762
         5       -34.2226    -15.7277     -2.7050    -17.5518
         6      -114.7196      3.7191      4.7289    -35.4239
         7       180.8797     -6.3542      0.5136     58.3464
         8        20.3720     12.2646     -0.5382     10.6994
         9        11.0386     82.6246     14.6081     36.0904
        10        22.1901      1.8821     -1.8014      7.4236
        11        -2.8669     -5.1501      0.8797     -2.3791
        12        -2.1136     -3.3482      2.8209     -0.8803
        13        -2.3410     13.1377     -1.6051      3.0639
        14       -28.3099     -0.6911     -0.1568     -9.7193
        15       -11.8203    -31.4155     -4.3981    -15.8779
  1/2[<0|del|b>*<b|r|0> + (<0|r|b>*<b|del|0>)*] (Au)
       state          X           Y           Z        Dip. S.   Osc.(frdel)
         1         0.0135     -0.0115      0.0006     -0.0026     -0.0017
         2        -0.0139      0.0210      0.0002     -0.0073     -0.0049
         3         0.0001     -0.0001      0.0001     -0.0001     -0.0001
         4         0.0000      0.0000     -0.0102      0.0102      0.0068
         5        -0.0063     -0.0009     -0.0024      0.0095      0.0064
         6        -0.0138      0.0015      0.0002      0.0120      0.0080
         7        -0.0284      0.0038      0.0002      0.0244      0.0163
         8        -0.0138      0.0018      0.0007      0.0112      0.0075
         9         0.0066     -0.0620     -0.0004      0.0558      0.0372
        10        -0.0039      0.0019     -0.0012      0.0032      0.0021
        11        -0.0028     -0.0006     -0.0005      0.0039      0.0026
        12        -0.0020     -0.0002     -0.0021      0.0043      0.0028
        13        -0.0010     -0.0027     -0.0006      0.0043      0.0029
        14        -0.0007      0.0000     -0.0002      0.0009      0.0006
        15         0.0002      0.0001      0.0005     -0.0008     -0.0005

 Excitation energies and oscillator strengths:
 
 Excited State   1:      Singlet-A      7.0390 eV  176.14 nm  f=0.1426  <S**2>=0.000
      17 -> 19         0.30159
      18 -> 19         0.57662
      18 -> 20         0.22217
 This state for optimization and/or second-order correction.
 Total Energy, E(CIS) =  -228.478414890    
 Copying the excited state density for this state as the 1-particle RhoCI density.
 
 Excited State   2:      Singlet-A      7.3745 eV  168.13 nm  f=0.0757  <S**2>=0.000
      17 -> 19         0.43193
      18 -> 19        -0.36337
      18 -> 20         0.40339
 
 Excited State   3:      Singlet-A      8.2822 eV  149.70 nm  f=0.0001  <S**2>=0.000
      18 -> 21         0.70153
 
 Excited State   4:      Singlet-A      8.7112 eV  142.33 nm  f=0.0044  <S**2>=0.000
      16 -> 19         0.69998
 
 Excited State   5:      Singlet-A      9.2378 eV  134.21 nm  f=0.0691  <S**2>=0.000
      15 -> 19         0.21423
      17 -> 19         0.17524
      18 -> 20        -0.21515
      18 -> 22         0.58237
 
 Excited State   6:      Singlet-A      9.4536 eV  131.15 nm  f=0.0535  <S**2>=0.000
      15 -> 19         0.50842
      17 -> 19         0.11269
      17 -> 20         0.29690
      17 -> 21        -0.13024
      18 -> 20        -0.12477
      18 -> 22        -0.28423
 
 Excited State   7:      Singlet-A      9.5530 eV  129.79 nm  f=0.1223  <S**2>=0.000
      15 -> 19        -0.30259
      17 -> 19         0.18360
      17 -> 20         0.34925
      17 -> 21         0.39226
      18 -> 20        -0.20322
      18 -> 22        -0.15034
 
 Excited State   8:      Singlet-A      9.6011 eV  129.14 nm  f=0.0693  <S**2>=0.000
      15 -> 19         0.28843
      17 -> 19        -0.15429
      17 -> 20        -0.12909
      17 -> 21         0.53567
      18 -> 20         0.17673
      18 -> 23        -0.13195
      18 -> 24        -0.11725
 
 Excited State   9:      Singlet-A      9.8367 eV  126.04 nm  f=0.2817  <S**2>=0.000
      17 -> 19        -0.23961
      17 -> 20         0.46803
      17 -> 21        -0.10067
      18 -> 20         0.29763
      18 -> 22         0.16431
      18 -> 23        -0.13376
      18 -> 24        -0.13948
 
 Excited State  10:      Singlet-A     10.0084 eV  123.88 nm  f=0.0549  <S**2>=0.000
      17 -> 19        -0.12489
      17 -> 21         0.11925
      18 -> 20         0.14403
      18 -> 22         0.11483
      18 -> 23         0.48461
      18 -> 24         0.41332
 
 Excited State  11:      Singlet-A     10.2301 eV  121.20 nm  f=0.0035  <S**2>=0.000
      18 -> 23        -0.45189
      18 -> 24         0.52863
 
 Excited State  12:      Singlet-A     10.5282 eV  117.76 nm  f=0.0042  <S**2>=0.000
      14 -> 19        -0.35583
      16 -> 20         0.19236
      17 -> 22         0.55735
 
 Excited State  13:      Singlet-A     10.5678 eV  117.32 nm  f=0.0077  <S**2>=0.000
      14 -> 19         0.47635
      16 -> 20        -0.28992
      17 -> 22         0.39727
 
 Excited State  14:      Singlet-A     10.8014 eV  114.79 nm  f=0.0008  <S**2>=0.000
      12 -> 19         0.30238
      13 -> 19        -0.33156
      14 -> 19         0.21348
      16 -> 20         0.48342
 
 Excited State  15:      Singlet-A     10.9219 eV  113.52 nm  f=0.0052  <S**2>=0.000
      12 -> 19         0.32122
      13 -> 19        -0.21886
      14 -> 19        -0.26158
      16 -> 20        -0.32667
      18 -> 25         0.36796
      18 -> 26        -0.10276
 SavETr:  write IOETrn=   770 NScale= 10 NData=  16 NLR=1 NState=   15 LETran=     280.
 The selected state is a singlet
 CISAX will form     1 AO SS matrices at one time.
 NMat=     1 NSing=     1 JSym2X= 0.
 CISAX will form     1 AO SS matrices at one time.
 NMat=     1 NSing=     1 JSym2X= 0.
 Leave Link  914 at Tue Dec 15 16:14:28 2015, MaxMem=    33554432 cpu:        33.2
 (Enter /home/Applications/g09/g09/l1002.exe)
 Minotr:  Closed shell wavefunction.
          Computing CIS/TD-HF/TD-KS derivatives.
          Using Z-Vector for PSCF gradient.
          Skipping F1 and S1 gradient terms here.
          IDoAtm=111111111
          Frozen-core window.
          Direct CPHF calculation.
          Differentiating once with respect to electric field.
                with respect to dipole field.
          Differentiating once with respect to nuclear coordinates.
          Requested convergence is 1.0D-10 RMS, and 1.0D-09 maximum.
          NewPWx=F KeepS1=T KeepF1=T KeepIn=T MapXYZ=F SortEE=F KeepMc=T.
          MDV=      33554290 using IRadAn=       0.
 Using stored XC quadrature information.
 Keep R1 ints in memory in canonical form, NReq=1898913.
 FoFCou: FMM=F IPFlag=           0 FMFlag=           0 FMFlg1=           0
         NFxFlg=           0 DoJE=F BraDBF=F KetDBF=F FulRan=T
         wScrn=  0.000000 ICntrl=     600 IOpCl=  0 I1Cent=           0 NGrid=           0
         NMat0=    1 NMatS0=   1431 NMatT0=    0 NMatD0=    1 NMtDS0=    0 NMtDT0=    0
 Symmetry not used in FoFCou.
          Solving linear equations separately, MaxMat=       0.
          There are     1 degrees of freedom in the 1st order CPHF.  IDoFFX=0 NUNeed=     1.
 LinEq1:  Iter=  0 NonCon=     1 RMS=4.97D-02 Max=8.36D-01 NDo=     1
 AX will form     1 AO Fock derivatives at one time.
 LinEq1:  Iter=  1 NonCon=     1 RMS=2.07D-02 Max=3.24D-01 NDo=     1
 LinEq1:  Iter=  2 NonCon=     1 RMS=1.59D-02 Max=2.03D-01 NDo=     1
 LinEq1:  Iter=  3 NonCon=     1 RMS=6.63D-03 Max=9.59D-02 NDo=     1
 LinEq1:  Iter=  4 NonCon=     1 RMS=5.05D-03 Max=5.81D-02 NDo=     1
 LinEq1:  Iter=  5 NonCon=     1 RMS=1.67D-03 Max=2.07D-02 NDo=     1
 LinEq1:  Iter=  6 NonCon=     1 RMS=1.07D-03 Max=6.76D-03 NDo=     1
 LinEq1:  Iter=  7 NonCon=     1 RMS=2.23D-04 Max=1.72D-03 NDo=     1
 LinEq1:  Iter=  8 NonCon=     1 RMS=6.46D-05 Max=4.55D-04 NDo=     1
 LinEq1:  Iter=  9 NonCon=     1 RMS=1.70D-05 Max=8.97D-05 NDo=     1
 LinEq1:  Iter= 10 NonCon=     1 RMS=1.62D-06 Max=9.28D-06 NDo=     1
 LinEq1:  Iter= 11 NonCon=     1 RMS=1.78D-07 Max=1.03D-06 NDo=     1
 LinEq1:  Iter= 12 NonCon=     1 RMS=1.81D-08 Max=9.35D-08 NDo=     1
 LinEq1:  Iter= 13 NonCon=     1 RMS=2.41D-09 Max=1.07D-08 NDo=     1
 LinEq1:  Iter= 14 NonCon=     1 RMS=3.45D-10 Max=1.92D-09 NDo=     1
 LinEq1:  Iter= 15 NonCon=     0 RMS=4.34D-11 Max=2.35D-10 NDo=     1
 Linear equations converged to 1.000D-10 1.000D-09 after    15 iterations.
 End of Minotr F.D. properties file   721 does not exist.
 End of Minotr F.D. properties file   722 does not exist.
 End of Minotr F.D. properties file   788 does not exist.
 Leave Link 1002 at Tue Dec 15 16:14:37 2015, MaxMem=    33554432 cpu:         9.3
 (Enter /home/Applications/g09/g09/l601.exe)
 Copying SCF densities to generalized density rwf, IOpCl= 0 IROHF=0.

 **********************************************************************

            Population analysis using the SCF density.

 **********************************************************************

 Orbital symmetries:
       Occupied  (A) (A) (A) (A) (A) (A) (A) (A) (A) (A) (A) (A)
                 (A) (A) (A) (A) (A) (A)
       Virtual   (A) (A) (A) (A) (A) (A) (A) (A) (A) (A) (A) (A)
                 (A) (A) (A) (A) (A) (A) (A) (A) (A) (A) (A) (A)
                 (A) (A) (A) (A) (A) (A) (A) (A) (A) (A) (A)
 The electronic state is 1-A.
 Alpha  occ. eigenvalues --  -19.10882 -10.17420 -10.17055 -10.13061 -10.12421
 Alpha  occ. eigenvalues --   -1.11170  -0.81159  -0.74637  -0.59837  -0.57825
 Alpha  occ. eigenvalues --   -0.53834  -0.44367  -0.43898  -0.42934  -0.38898
 Alpha  occ. eigenvalues --   -0.36422  -0.28098  -0.23332
 Alpha virt. eigenvalues --    0.01446   0.08366   0.11925   0.15211   0.17975
 Alpha virt. eigenvalues --    0.18196   0.21637   0.22508   0.34685   0.42997
 Alpha virt. eigenvalues --    0.46565   0.67513   0.69883   0.70297   0.75609
 Alpha virt. eigenvalues --    0.77129   0.78882   0.80097   0.82182   0.84253
 Alpha virt. eigenvalues --    0.94120   0.97785   1.01147   1.03070   1.17400
 Alpha virt. eigenvalues --    1.23117   1.30449   1.35967   1.50590   1.57440
 Alpha virt. eigenvalues --    1.63511   1.73392   1.92382   2.09117   3.15865
     Molecular Orbital Coefficients:
                           1         2         3         4         5
                           O         O         O         O         O
     Eigenvalues --   -19.10882 -10.17420 -10.17055 -10.13061 -10.12421
   1 1   C  1S          0.00018  -0.01266  -0.00198   0.98173   0.09132
   2        2S          0.00079  -0.00496  -0.00057   0.10972   0.00654
   3        2PX         0.00063  -0.00026  -0.00053   0.00191  -0.00108
   4        2PY         0.00118   0.00228   0.00052  -0.00062  -0.00024
   5        2PZ        -0.00009  -0.00011   0.00000   0.00045   0.00001
   6        3S         -0.00483   0.03178  -0.01215  -0.10233   0.02375
   7        3PX        -0.00849   0.00623  -0.00719  -0.03033   0.01774
   8        3PY         0.00255  -0.01681   0.00628   0.01053   0.00396
   9        3PZ         0.00034   0.00092  -0.00077  -0.00343   0.00037
  10 2   C  1S         -0.00053   0.98362   0.05940   0.01241   0.00159
  11        2S         -0.00105   0.10643   0.00329  -0.00256  -0.00110
  12        2PX         0.00212   0.00162  -0.00067   0.00025   0.00050
  13        2PY        -0.00050   0.00081  -0.00107  -0.00163  -0.00109
  14        2PZ        -0.00011  -0.00040  -0.00002   0.00013  -0.00012
  15        3S          0.01546  -0.07290   0.00940   0.03602  -0.00211
  16        3PX         0.01338   0.00170   0.00818   0.00151  -0.00003
  17        3PY         0.00882  -0.01698   0.01649   0.02191   0.00242
  18        3PZ        -0.00078   0.00199  -0.00060  -0.00132   0.00085
  19 3   O  1S          0.98276   0.00015   0.00025   0.00007   0.00009
  20        2S          0.10745   0.00139   0.00186   0.00034   0.00038
  21        2PX        -0.00224  -0.00113   0.00004  -0.00001   0.00001
  22        2PY         0.00363   0.00022   0.00089  -0.00002  -0.00011
  23        2PZ         0.00010   0.00010  -0.00001   0.00008  -0.00005
  24        3S         -0.05945   0.00066   0.00036  -0.00266  -0.00459
  25        3PX         0.00703   0.00208   0.00117   0.00265   0.00018
  26        3PY        -0.01174  -0.00203  -0.00312  -0.00033  -0.00243
  27        3PZ        -0.00032  -0.00037   0.00004  -0.00028   0.00014
  28 4   C  1S         -0.00047  -0.06048   0.98354   0.00034   0.00900
  29        2S         -0.00073  -0.00979   0.10640  -0.00023  -0.00431
  30        2PX        -0.00083   0.00136  -0.00219   0.00045   0.00269
  31        2PY        -0.00252   0.00010  -0.00150  -0.00061  -0.00185
  32        2PZ         0.00007  -0.00002   0.00030   0.00014  -0.00011
  33        3S          0.01875   0.02097  -0.07628  -0.00972   0.04262
  34        3PX        -0.01077  -0.02002   0.01854   0.00544  -0.02614
  35        3PY        -0.00908   0.00183  -0.00851   0.00128   0.00849
  36        3PZ         0.00033   0.00062  -0.00158  -0.00074   0.00058
  37 5   C  1S          0.00016  -0.00005  -0.00932  -0.09171   0.98170
  38        2S          0.00067  -0.00015  -0.00594  -0.01406   0.10949
  39        2PX        -0.00138  -0.00004  -0.00313   0.00103   0.00011
  40        2PY         0.00002   0.00048   0.00175   0.00103  -0.00223
  41        2PZ         0.00010  -0.00004   0.00015   0.00011  -0.00039
  42        3S         -0.00539  -0.01845   0.03971   0.04639  -0.10335
  43        3PX        -0.00001  -0.00615   0.01500  -0.01371  -0.00272
  44        3PY         0.00863   0.00760  -0.01361  -0.01881   0.02914
  45        3PZ        -0.00043   0.00091  -0.00104  -0.00137   0.00320
  46 6   H  1S         -0.00096  -0.00005  -0.00119  -0.00023  -0.00256
  47        2S         -0.00258   0.00000   0.00159   0.00261   0.00515
  48 7   H  1S         -0.00031   0.00153  -0.00369  -0.00013  -0.00008
  49        2S          0.00255   0.00634   0.00803  -0.00053   0.00610
  50 8   H  1S          0.00049  -0.00425   0.00110  -0.00055   0.00021
  51        2S          0.00483   0.01066   0.00880   0.00451   0.00223
  52 9   H  1S         -0.00097  -0.00096  -0.00060  -0.00362  -0.00058
  53        2S         -0.00325   0.00147  -0.00156   0.00475   0.00439
                           6         7         8         9        10
                           O         O         O         O         O
     Eigenvalues --    -1.11170  -0.81159  -0.74637  -0.59837  -0.57825
   1 1   C  1S         -0.02663   0.14241  -0.07506  -0.12170   0.02615
   2        2S          0.02603  -0.15350   0.08027   0.12356  -0.02710
   3        2PX         0.02573  -0.08902  -0.00935  -0.08063  -0.08071
   4        2PY        -0.01920   0.01186  -0.08434  -0.00608  -0.15682
   5        2PZ         0.00195  -0.01178   0.00645   0.00946  -0.00248
   6        3S          0.03791  -0.28211   0.16126   0.42258  -0.07782
   7        3PX         0.03535  -0.03312   0.01119   0.00309  -0.03534
   8        3PY        -0.01327   0.01468   0.01100  -0.02230  -0.05786
   9        3PZ         0.00039  -0.00852   0.00343   0.00995  -0.00156
  10 2   C  1S         -0.06895   0.05385  -0.14737   0.04589  -0.10443
  11        2S          0.07737  -0.06233   0.15718  -0.04575   0.11602
  12        2PX         0.07776   0.05438   0.00752  -0.11254  -0.16829
  13        2PY         0.01897  -0.10075   0.00723   0.14688  -0.07297
  14        2PZ        -0.00415   0.00359  -0.00941  -0.00072  -0.00453
  15        3S          0.06916  -0.08002   0.36423  -0.18268   0.31387
  16        3PX        -0.02411   0.00474   0.00171  -0.04514  -0.09683
  17        3PY        -0.02757  -0.03538   0.03846   0.02245  -0.03832
  18        3PZ         0.00013   0.00302  -0.00686   0.00208  -0.00338
  19 3   O  1S         -0.20913  -0.09251  -0.00799  -0.01416   0.04954
  20        2S          0.19053   0.08886   0.00697   0.01520  -0.04919
  21        2PX        -0.05447   0.01408  -0.15498   0.21191   0.06789
  22        2PY         0.09672  -0.01296  -0.10861   0.12101   0.02964
  23        2PZ         0.00233   0.00046   0.00265  -0.00975  -0.00088
  24        3S          0.66468   0.33305   0.03092   0.05568  -0.21275
  25        3PX        -0.07232   0.00270  -0.12961   0.18644   0.06246
  26        3PY         0.12129   0.00189  -0.08655   0.10511   0.02002
  27        3PZ         0.00319   0.00067   0.00354  -0.00873  -0.00055
  28 4   C  1S         -0.08034   0.05590   0.14525   0.00264  -0.10708
  29        2S          0.09058  -0.06717  -0.15715  -0.00884   0.11763
  30        2PX        -0.05270   0.08976   0.02698   0.11362   0.12696
  31        2PY        -0.07488  -0.10161  -0.00074  -0.20787   0.02817
  32        2PZ         0.00202  -0.00385  -0.00632  -0.00728   0.00664
  33        3S          0.06072  -0.07278  -0.36326   0.04807   0.34572
  34        3PX         0.03574   0.02216   0.04419   0.02157   0.05850
  35        3PY         0.01066  -0.02009  -0.01923  -0.07812   0.02725
  36        3PZ         0.00018  -0.00273  -0.00562  -0.00197   0.00534
  37 5   C  1S         -0.03282   0.15132   0.07268   0.08106   0.05787
  38        2S          0.03218  -0.16210  -0.07948  -0.08285  -0.05628
  39        2PX         0.01288   0.01675  -0.10678  -0.15225   0.14926
  40        2PY        -0.03796   0.08696   0.02774  -0.00937  -0.01305
  41        2PZ        -0.00215   0.01036   0.00479   0.00423   0.00670
  42        3S          0.06352  -0.30888  -0.13685  -0.28992  -0.20020
  43        3PX        -0.00020  -0.00146   0.01758  -0.05471   0.05057
  44        3PY        -0.04975   0.04425   0.00002   0.02950   0.01733
  45        3PZ        -0.00087   0.00798   0.00229   0.00492   0.00484
  46 6   H  1S          0.00749  -0.05098  -0.03361  -0.06537  -0.04415
  47        2S          0.01350  -0.01236  -0.00808  -0.03855  -0.03055
  48 7   H  1S          0.01706  -0.00997  -0.08356   0.04327   0.15353
  49        2S         -0.01707   0.00147  -0.03243   0.03387   0.07837
  50 8   H  1S          0.01373  -0.01940   0.09686  -0.07002   0.17310
  51        2S         -0.02407  -0.00766   0.03419  -0.04433   0.07842
  52 9   H  1S          0.00703  -0.05434   0.03966   0.13085  -0.01155
  53        2S          0.01331  -0.01033   0.01020   0.07507  -0.00659
                          11        12        13        14        15
                           O         O         O         O         O
     Eigenvalues --    -0.53834  -0.44367  -0.43898  -0.42934  -0.38898
   1 1   C  1S         -0.02970  -0.02546   0.02310   0.00805   0.01798
   2        2S          0.02506   0.02974  -0.02285  -0.00361  -0.01895
   3        2PX        -0.13325  -0.05036   0.00788   0.32100  -0.11335
   4        2PY         0.16905  -0.02668   0.03753  -0.04737  -0.27179
   5        2PZ        -0.00216   0.07008   0.09213   0.02131   0.00534
   6        3S          0.15028   0.06854  -0.10053  -0.03447  -0.07167
   7        3PX        -0.08760  -0.05987  -0.02061   0.22038  -0.06203
   8        3PY         0.07611   0.00165   0.01604  -0.02565  -0.14077
   9        3PZ         0.00394   0.05039   0.06661   0.01500   0.00347
  10 2   C  1S          0.01552   0.00659  -0.00704  -0.03274  -0.02750
  11        2S         -0.01952  -0.00744   0.00694   0.03734   0.03250
  12        2PX        -0.03067   0.17221  -0.12417  -0.01667  -0.04338
  13        2PY        -0.18227   0.13357  -0.10897   0.08012   0.24183
  14        2PZ         0.00658   0.10153   0.14664   0.01096  -0.01111
  15        3S         -0.02216  -0.00576   0.02506   0.10392   0.11253
  16        3PX        -0.01423   0.12025  -0.07350   0.00397  -0.03595
  17        3PY        -0.14783   0.10150  -0.05540   0.03818   0.18387
  18        3PZ         0.00272   0.09920   0.14073   0.01163  -0.00660
  19 3   O  1S         -0.05296   0.00515  -0.00137   0.00524  -0.01309
  20        2S          0.05197  -0.00591   0.00195  -0.00226   0.00944
  21        2PX         0.05661  -0.17752   0.14181   0.07231   0.01608
  22        2PY        -0.16991  -0.11362   0.09986  -0.03655   0.09462
  23        2PZ         0.00126   0.22977   0.28489   0.02153   0.00000
  24        3S          0.20542  -0.02196   0.00754  -0.03784   0.07752
  25        3PX         0.05061  -0.16803   0.13622   0.07708   0.01665
  26        3PY        -0.15559  -0.10580   0.09477  -0.03567   0.09880
  27        3PZ         0.00096   0.23024   0.28777   0.02146   0.00052
  28 4   C  1S          0.01389  -0.02299   0.01908   0.03117   0.02959
  29        2S         -0.01766   0.02391  -0.01822  -0.04009  -0.03402
  30        2PX         0.15026   0.16520  -0.14292   0.23828  -0.01736
  31        2PY         0.04458   0.12375  -0.09946  -0.10453  -0.02724
  32        2PZ        -0.00205   0.12887   0.15941   0.00477   0.00897
  33        3S         -0.02801   0.06685  -0.07263  -0.11354  -0.08967
  34        3PX         0.13088   0.13070  -0.08548   0.17946  -0.03385
  35        3PY        -0.01726   0.07816  -0.05718  -0.07668  -0.00296
  36        3PZ        -0.00025   0.11753   0.14901   0.00741   0.00733
  37 5   C  1S         -0.06016   0.03327  -0.02751  -0.02180   0.00248
  38        2S          0.05763  -0.03780   0.02792   0.01845  -0.00826
  39        2PX        -0.05304   0.03747  -0.01849  -0.24942   0.16117
  40        2PY         0.20573  -0.01427  -0.00810   0.08787   0.28940
  41        2PZ         0.00043   0.08479   0.10452   0.00993   0.02524
  42        3S          0.25700  -0.08687   0.11233   0.12012  -0.01065
  43        3PX         0.00067   0.02364  -0.02883  -0.10109   0.11593
  44        3PY         0.12730  -0.04292  -0.01676   0.04264   0.22890
  45        3PZ        -0.00425   0.05890   0.07482   0.00620   0.01957
  46 6   H  1S          0.14521  -0.04265   0.02255   0.06991   0.21283
  47        2S          0.08419  -0.02116   0.02025   0.06345   0.20481
  48 7   H  1S          0.06389   0.14235  -0.11853   0.11918  -0.06473
  49        2S          0.02622   0.10443  -0.10099   0.09880  -0.05362
  50 8   H  1S          0.07324  -0.15005   0.11766   0.00461  -0.10394
  51        2S          0.02745  -0.10604   0.09861  -0.00193  -0.09544
  52 9   H  1S          0.11931   0.05674  -0.02194  -0.22470  -0.01571
  53        2S          0.06825   0.02995  -0.02317  -0.19095  -0.01222
                          16        17        18        19        20
                           O         O         O         V         V
     Eigenvalues --    -0.36422  -0.28098  -0.23332   0.01446   0.08366
   1 1   C  1S          0.02457  -0.00915   0.00660  -0.00639  -0.00791
   2        2S         -0.02253   0.01220  -0.00829   0.00284  -0.00162
   3        2PX        -0.05502   0.01212  -0.01077   0.00503  -0.01559
   4        2PY         0.14749  -0.01350  -0.00065   0.01422  -0.00594
   5        2PZ        -0.00918  -0.27985   0.19671  -0.22990  -0.30106
   6        3S         -0.17986   0.02054  -0.01941   0.05741   0.11389
   7        3PX        -0.02794  -0.00821  -0.00380   0.01899  -0.03182
   8        3PY         0.13564  -0.01624  -0.00649   0.04751  -0.01756
   9        3PZ        -0.01612  -0.28956   0.21609  -0.38552  -0.60917
  10 2   C  1S         -0.02210   0.00004  -0.00873  -0.01056  -0.00915
  11        2S          0.02618   0.00066   0.01052   0.00535   0.00149
  12        2PX         0.13827  -0.00142   0.00098   0.00681   0.03335
  13        2PY        -0.12030   0.00449   0.01964   0.00648  -0.01984
  14        2PZ         0.00038  -0.06101   0.32979   0.35289   0.15261
  15        3S          0.09896   0.00284   0.03048   0.10338   0.08991
  16        3PX         0.02601   0.00498  -0.00160  -0.01252   0.07450
  17        3PY         0.02664   0.00470   0.00736   0.01478  -0.03952
  18        3PZ        -0.00196  -0.02020   0.35633   0.53042   0.31243
  19 3   O  1S          0.07071  -0.00006  -0.00075   0.00114   0.01334
  20        2S         -0.07189   0.00005  -0.00107  -0.00096  -0.00872
  21        2PX        -0.24722   0.01629   0.00105   0.00605   0.01997
  22        2PY         0.35097   0.00221  -0.00258   0.00180  -0.01208
  23        2PZ         0.00065   0.32656   0.01311  -0.28012   0.04765
  24        3S         -0.26386   0.00028   0.01074  -0.00919  -0.10994
  25        3PX        -0.26362   0.02031  -0.00139   0.00399   0.03505
  26        3PY         0.37925   0.00401  -0.00018  -0.00154  -0.02084
  27        3PZ         0.00121   0.36696   0.01708  -0.38434   0.07215
  28 4   C  1S         -0.01636   0.00026  -0.00515   0.00697  -0.00889
  29        2S          0.01986  -0.00062   0.00628  -0.00674   0.00096
  30        2PX         0.07919  -0.00110  -0.00513   0.00212   0.01584
  31        2PY        -0.17465   0.00055   0.01370  -0.00423  -0.01863
  32        2PZ        -0.01091  -0.06876  -0.31859   0.27826  -0.26777
  33        3S          0.08136  -0.00581   0.01239  -0.06650   0.08680
  34        3PX        -0.00915   0.00531   0.00571  -0.00513   0.05012
  35        3PY         0.00979   0.00206   0.00998  -0.02953  -0.04634
  36        3PZ        -0.00706  -0.01910  -0.33325   0.40993  -0.52837
  37 5   C  1S          0.02169   0.00724   0.00564   0.00590  -0.00629
  38        2S         -0.02515  -0.01011  -0.00716  -0.00567  -0.00447
  39        2PX        -0.11570   0.00772   0.00650   0.01919   0.00472
  40        2PY         0.12992   0.01749   0.01079   0.00426   0.01041
  41        2PZ        -0.00200  -0.28456  -0.18912  -0.11009   0.36132
  42        3S         -0.13205  -0.00690  -0.01673  -0.04287   0.12292
  43        3PX        -0.13179  -0.00432   0.01263   0.05393   0.01502
  44        3PY         0.05982   0.00519   0.00213   0.00029   0.00201
  45        3PZ         0.00264  -0.29419  -0.19663  -0.18726   0.73510
  46 6   H  1S          0.07113   0.00857   0.00405   0.00559  -0.01183
  47        2S          0.10096   0.01229   0.00798   0.02102  -0.05575
  48 7   H  1S          0.06972  -0.00350  -0.00553   0.00728  -0.01845
  49        2S          0.06701  -0.00542  -0.00928   0.02877  -0.10133
  50 8   H  1S          0.05561  -0.00194  -0.00935  -0.01242  -0.01374
  51        2S          0.06197  -0.00140  -0.01505  -0.04030  -0.05713
  52 9   H  1S          0.05122  -0.00809   0.00526  -0.00853  -0.01231
  53        2S          0.06838  -0.01366   0.00889  -0.02233  -0.06455
                          21        22        23        24        25
                           V         V         V         V         V
     Eigenvalues --     0.11925   0.15211   0.17975   0.18196   0.21637
   1 1   C  1S          0.06021  -0.00415  -0.05932   0.07986   0.06913
   2        2S         -0.04290   0.01581   0.06359  -0.05676  -0.02539
   3        2PX         0.10121  -0.04414   0.09169   0.20282  -0.01249
   4        2PY        -0.08950  -0.03455   0.02564  -0.05813  -0.14185
   5        2PZ        -0.01011  -0.03273  -0.00108  -0.02234  -0.01846
   6        3S         -0.63695  -0.11175   0.28035  -0.93427  -1.14612
   7        3PX         0.37523  -0.32878  -0.11634   0.86832  -0.33532
   8        3PY        -0.25522  -0.15871   0.21708  -0.24048  -0.73733
   9        3PZ        -0.03018  -0.08783  -0.02961  -0.05494  -0.08320
  10 2   C  1S         -0.00484   0.11193   0.08671   0.00289   0.06315
  11        2S          0.00752  -0.08539  -0.06874   0.01456  -0.04940
  12        2PX         0.12954  -0.18147   0.05170   0.09620  -0.18500
  13        2PY         0.01040   0.07261   0.14810   0.16485   0.00730
  14        2PZ        -0.00110   0.03419   0.01663   0.00630   0.01902
  15        3S         -0.14733  -1.04787  -0.97774  -0.42141  -0.63939
  16        3PX         0.26323  -0.28788   0.38892   0.16914  -0.46812
  17        3PY        -0.07404   0.37432   0.69329   0.45564  -0.08009
  18        3PZ         0.01116   0.07431   0.02399   0.04125   0.06744
  19 3   O  1S          0.05684  -0.08232  -0.03370  -0.01994   0.00325
  20        2S         -0.03908   0.05943   0.02002   0.01376  -0.00316
  21        2PX         0.08214  -0.17075  -0.03335   0.07107  -0.25766
  22        2PY        -0.11857   0.04951   0.01444   0.07516  -0.18378
  23        2PZ         0.00043   0.00884  -0.00428  -0.00386  -0.00464
  24        3S         -0.46649   0.67132   0.31244   0.16469  -0.02084
  25        3PX         0.14399  -0.26996  -0.03075   0.09502  -0.52969
  26        3PY        -0.21267   0.07075   0.07408   0.11302  -0.34575
  27        3PZ         0.00065   0.01671  -0.00974  -0.00889  -0.00474
  28 4   C  1S          0.02071   0.09156  -0.04267   0.04099  -0.10490
  29        2S         -0.01078  -0.06429   0.03628  -0.04840   0.07308
  30        2PX        -0.14283  -0.16298   0.15144   0.13004   0.07682
  31        2PY        -0.13887   0.05371   0.11507   0.09290  -0.16786
  32        2PZ        -0.01187  -0.03247   0.00290  -0.00231   0.01468
  33        3S         -0.42087  -0.91636   0.46459  -0.11217   1.32670
  34        3PX        -0.28852  -0.71600   0.69058   0.15542   0.25533
  35        3PY        -0.32587   0.21164   0.46140   0.12511  -0.31637
  36        3PZ        -0.03771  -0.06875  -0.00412   0.00746   0.06004
  37 5   C  1S          0.03835  -0.03368   0.09694  -0.06103  -0.04881
  38        2S         -0.01740   0.03487  -0.07830   0.04996   0.00993
  39        2PX         0.01819  -0.03071  -0.00942   0.00200  -0.18477
  40        2PY        -0.21283  -0.04889  -0.08312   0.16725  -0.02730
  41        2PZ         0.00704   0.03018   0.02079  -0.00082  -0.00904
  42        3S         -0.49477   0.16036  -0.83872   0.52950   0.84823
  43        3PX         0.02275  -0.23078   0.02049   0.12033  -0.94722
  44        3PY        -0.53384  -0.00459  -0.57088   0.76501  -0.22638
  45        3PZ         0.03054   0.07058   0.03019   0.01985  -0.06356
  46 6   H  1S          0.11217  -0.00524   0.02296  -0.06127   0.03513
  47        2S          1.02592  -0.05327   0.93947  -1.10418   0.01657
  48 7   H  1S          0.04924   0.10287  -0.04798  -0.00630   0.03929
  49        2S          0.62394   1.35537  -1.00890  -0.15162  -0.88056
  50 8   H  1S          0.00517   0.05214   0.06996   0.02911  -0.04503
  51        2S          0.19596   0.78613   1.47376   0.81776  -0.04762
  52 9   H  1S          0.09898  -0.04331  -0.02620   0.06025  -0.03725
  53        2S          0.96881  -0.28404  -0.28598   1.48342   0.42295
                          26        27        28        29        30
                           V         V         V         V         V
     Eigenvalues --     0.22508   0.34685   0.42997   0.46565   0.67513
   1 1   C  1S         -0.05765   0.08439  -0.04447   0.11596   0.04730
   2        2S          0.02581  -0.03012   0.03315  -0.00557  -0.06059
   3        2PX        -0.16732  -0.11763   0.15267  -0.16496  -0.01185
   4        2PY        -0.10453   0.14734   0.19708   0.15967   0.40389
   5        2PZ         0.03128  -0.00172   0.00466   0.00683   0.02318
   6        3S          0.96630  -1.61773   0.77846  -2.95854  -0.27918
   7        3PX        -0.63206  -0.65989   0.98141  -2.34173  -0.27458
   8        3PY        -0.49796   1.58901   1.29576   0.76282  -0.03754
   9        3PZ         0.09751  -0.09939   0.06035  -0.16125  -0.04356
  10 2   C  1S          0.05422  -0.08359   0.01034  -0.07935  -0.04709
  11        2S         -0.03087   0.00497   0.00934   0.02996  -0.00081
  12        2PX         0.26742  -0.02048  -0.17417   0.25324   0.12528
  13        2PY         0.04960   0.31403   0.03007  -0.01051   0.03749
  14        2PZ        -0.00119  -0.01101  -0.00785  -0.01145   0.00735
  15        3S         -1.08766   1.55524   0.25199   1.60598   0.31399
  16        3PX         1.00812  -0.09089  -0.92481   0.05516  -0.15054
  17        3PY         0.06002   1.75571   0.41627   1.69941   0.42746
  18        3PZ         0.00943  -0.10616  -0.03999  -0.11598  -0.03472
  19 3   O  1S          0.08163   0.04584  -0.00483  -0.01568   0.02248
  20        2S         -0.03912  -0.02091   0.00688   0.00364  -0.08096
  21        2PX         0.01004   0.02361  -0.22739   0.12406   0.05313
  22        2PY        -0.07160  -0.16960  -0.09594   0.08285  -0.20518
  23        2PZ        -0.01125   0.00629   0.02655  -0.00967  -0.00301
  24        3S         -0.84108  -0.56104   0.02492   0.22651   0.21569
  25        3PX         0.07104   0.08640  -0.55262   0.12455   0.06286
  26        3PY        -0.21982  -0.46779  -0.22183   0.20517  -0.05244
  27        3PZ        -0.02202   0.01139   0.04260   0.00313  -0.00349
  28 4   C  1S         -0.00612  -0.06887   0.04005   0.10394  -0.03594
[...]
     2  C    0.446703   5.130418   0.299404  -0.155902  -0.142416   0.005869
     3  O   -0.072861   0.299404   8.097910   0.279479  -0.078750   0.002251
     4  C   -0.135711  -0.155902   0.279479   5.071939   0.467740  -0.029879
     5  C    0.430727  -0.142416  -0.078750   0.467740   5.269938   0.370355
     6  H   -0.028713   0.005869   0.002251  -0.029879   0.370355   0.502534
     7  H    0.002490   0.004048  -0.031240   0.388320  -0.033676  -0.000829
     8  H   -0.043910   0.389635  -0.024887   0.003891   0.004266  -0.000044
     9  H    0.384156  -0.026714   0.001448   0.004536  -0.025631  -0.001328
               7          8          9
     1  C    0.002490  -0.043910   0.384156
     2  C    0.004048   0.389635  -0.026714
     3  O   -0.031240  -0.024887   0.001448
     4  C    0.388320   0.003891   0.004536
     5  C   -0.033676   0.004266  -0.025631
     6  H   -0.000829  -0.000044  -0.001328
     7  H    0.451012  -0.000068  -0.000020
     8  H   -0.000068   0.453496  -0.000503
     9  H   -0.000020  -0.000503   0.469811
 Mulliken charges:
               1
     1  C   -0.231340
     2  C    0.048954
     3  O   -0.472755
     4  C    0.105585
     5  C   -0.262553
     6  H    0.179783
     7  H    0.219961
     8  H    0.218122
     9  H    0.194244
 Sum of Mulliken charges =   0.00000
 Mulliken charges with hydrogens summed into heavy atoms:
               1
     1  C   -0.037096
     2  C    0.267076
     3  O   -0.472755
     4  C    0.325546
     5  C   -0.082771
 Electronic spatial extent (au):  <R**2>=            290.6903
 Charge=              0.0000 electrons
 Dipole moment (field-independent basis, Debye):
    X=             -0.5166    Y=              0.6377    Z=              0.0440  Tot=              0.8219
 Quadrupole moment (field-independent basis, Debye-Ang):
   XX=            -24.5129   YY=            -27.2374   ZZ=            -31.7658
   XY=              1.8303   XZ=              0.0359   YZ=             -0.0111
 Traceless Quadrupole moment (field-independent basis, Debye-Ang):
   XX=              3.3258   YY=              0.6013   ZZ=             -3.9271
   XY=              1.8303   XZ=              0.0359   YZ=             -0.0111
 Octapole moment (field-independent basis, Debye-Ang**2):
  XXX=              4.1226  YYY=             -2.3222  ZZZ=             -0.0722  XYY=             -3.5128
  XXY=              0.1782  XXZ=              0.1297  XZZ=              1.9920  YZZ=             -2.8740
  YYZ=              0.0622  XYZ=              0.0273
 Hexadecapole moment (field-independent basis, Debye-Ang**3):
 XXXX=           -148.5448 YYYY=           -148.6483 ZZZZ=            -30.9941 XXXY=             -3.1604
 XXXZ=              0.1305 YYYX=              4.7505 YYYZ=              0.0106 ZZZX=             -0.0366
 ZZZY=              0.1008 XXYY=            -54.4171 XXZZ=            -38.3549 YYZZ=            -35.3054
 XXYZ=              0.1470 YYXZ=              0.0402 ZZXY=             -1.6251
 N-N= 1.606667116021D+02 E-N=-8.539706550000D+02  KE= 2.269246033353D+02
 Orbital energies and kinetic energies (alpha):
                                 1                 2
   1         O               -19.108816         28.829830
   2         O               -10.174205         15.801626
   3         O               -10.170554         15.797623
   4         O               -10.130608         15.805634
   5         O               -10.124209         15.804997
   6         O                -1.111696          2.483022
   7         O                -0.811593          1.833941
   8         O                -0.746372          1.768900
   9         O                -0.598369          1.648555
  10         O                -0.578253          1.439184
  11         O                -0.538337          1.285526
  12         O                -0.443668          1.552234
  13         O                -0.438984          1.552055
  14         O                -0.429339          1.346000
  15         O                -0.388979          1.364922
  16         O                -0.364217          2.322499
  17         O                -0.280981          1.603988
  18         O                -0.233324          1.221767
  19         V                 0.014457          1.806597
  20         V                 0.083660          1.504695
  21         V                 0.119247          1.314967
  22         V                 0.152110          1.781633
  23         V                 0.179745          1.319687
  24         V                 0.181964          1.276852
  25         V                 0.216369          2.121665
  26         V                 0.225078          1.595501
  27         V                 0.346850          1.934739
  28         V                 0.429973          1.898921
  29         V                 0.465653          2.427608
  30         V                 0.675127          2.582319
  31         V                 0.698834          2.513839
  32         V                 0.702970          2.592958
  33         V                 0.756089          2.667548
  34         V                 0.771287          2.570141
  35         V                 0.788816          2.593398
  36         V                 0.800971          2.612644
  37         V                 0.821816          2.586730
  38         V                 0.842525          2.573986
  39         V                 0.941205          2.796172
  40         V                 0.977847          3.254726
  41         V                 1.011471          3.129040
  42         V                 1.030699          3.236635
  43         V                 1.174000          2.752922
  44         V                 1.231174          2.906371
  45         V                 1.304488          2.517921
  46         V                 1.359672          2.869360
  47         V                 1.505895          4.908681
  48         V                 1.574398          3.401536
  49         V                 1.635106          3.775530
  50         V                 1.733920          4.344727
  51         V                 1.923816          3.756845
  52         V                 2.091174          4.551349
  53         V                 3.158654          6.819928
 Total kinetic energy from orbitals= 2.269246033353D+02
 No NMR shielding tensors so no spin-rotation constants.
 Leave Link  601 at Tue Dec 15 16:14:37 2015, MaxMem=    33554432 cpu:         0.1
 (Enter /home/Applications/g09/g09/l701.exe)
 Compute integral first derivatives.
 ... and contract with generalized density number  6.
 Leave Link  701 at Tue Dec 15 16:14:37 2015, MaxMem=    33554432 cpu:         0.1
 (Enter /home/Applications/g09/g09/l702.exe)
 L702 exits ... SP integral derivatives will be done elsewhere.
 Leave Link  702 at Tue Dec 15 16:14:37 2015, MaxMem=    33554432 cpu:         0.0
 (Enter /home/Applications/g09/g09/l703.exe)
 Compute integral first derivatives, UseDBF=F ICtDFT=           0.
 Integral derivatives from FoFJK, PRISM(SPDF).
 Calling FoFJK, ICntrl=  10005127 FMM=F ISym2X=0 I1Cent= 0 IOpClX= 0 NMat=1 NMatS=1 NMatT=0.
 FoFJK:  IHMeth= 1 ICntrl=10005127 DoSepK=F KAlg= 0 I1Cent=   0 FoldK=F
 IRaf=         0 NMat=   1 IRICut=       1 DoRegI=T DoRafI=F ISym2E= 0.
 FoFCou: FMM=F IPFlag=           0 FMFlag=      100000 FMFlg1=         800
         NFxFlg=           0 DoJE=F BraDBF=F KetDBF=F FulRan=T
         wScrn=  0.000000 ICntrl=10005127 IOpCl=  0 I1Cent=           0 NGrid=           0
         NMat0=    1 NMatS0=      1 NMatT0=    0 NMatD0=    1 NMtDS0=    0 NMtDT0=    0
 Symmetry not used in FoFCou.
 Leave Link  703 at Tue Dec 15 16:14:39 2015, MaxMem=    33554432 cpu:         1.8
 (Enter /home/Applications/g09/g09/l716.exe)
 Dipole        = 4.21458040D-01 6.81051139D-01 1.94370644D-02
 ***** Axes restored to original set *****
 -------------------------------------------------------------------
 Center     Atomic                   Forces (Hartrees/Bohr)
 Number     Number              X              Y              Z
 -------------------------------------------------------------------
      1        6           0.049013984   -0.009977434    0.001533209
      2        6           0.014514097   -0.030956594   -0.003704367
      3        8          -0.066846180    0.023707221    0.006809356
      4        6          -0.117645178    0.050082982   -0.006243495
      5        6           0.159869913    0.012290293    0.003957364
      6        1          -0.025456002   -0.017227779   -0.003564062
      7        1           0.014679122    0.004174788    0.003120300
      8        1          -0.025792584   -0.037459160   -0.001319748
      9        1          -0.002337173    0.005365683   -0.000588558
 -------------------------------------------------------------------
 Cartesian Forces:  Max     0.159869913 RMS     0.044796447
 Z-matrix is all fixed cartesians, so copy forces.
 Force constants in Cartesian coordinates: 
                1             2             3             4             5 
      1  0.868531D+00
      2 -0.604788D-01  0.799181D+00
      3  0.157265D-01 -0.771997D-02  0.201024D+00
      4 -0.456967D+00 -0.842168D-01 -0.284959D-01  0.859078D+00
      5 -0.637241D-01 -0.196413D+00 -0.912998D-02  0.601704D-01  0.886946D+00
      6 -0.297205D-01 -0.827489D-02 -0.914042D-01  0.119974D-01  0.177270D-01
      7 -0.761448D-02  0.278041D-01  0.203360D-02 -0.248741D+00  0.130166D+00
      8 -0.538789D-02  0.199469D-01  0.137159D-02  0.171222D+00 -0.317556D+00
      9 -0.192070D-02  0.296941D-02  0.355770D-02  0.148332D-01 -0.185317D-01
     10  0.121388D-01  0.452229D-03 -0.158221D-02  0.227148D-01  0.163850D-01
     11  0.352725D-01  0.128649D-02 -0.429052D-02 -0.185496D-01 -0.134285D-01
     12 -0.431167D-02  0.609148D-04 -0.192350D-02 -0.149285D-02 -0.148520D-02
     13 -0.169976D+00  0.238886D-01  0.555455D-03  0.892477D-02 -0.341851D-01
     14 -0.112438D-03 -0.431543D+00  0.264491D-01  0.444126D-03 -0.172953D-02
     15  0.412077D-03  0.273415D-01 -0.852626D-01  0.634048D-03 -0.342003D-02
     16  0.164533D-01  0.740161D-03  0.222061D-03  0.198067D-04 -0.138670D-04
     17 -0.223233D-01 -0.102798D-02 -0.695506D-03 -0.193795D-04  0.135679D-04
     18  0.355384D-02  0.123898D-02  0.179568D-01 -0.336141D-03  0.235337D-03
     19  0.717676D-04  0.556501D-04  0.870952D-03 -0.335420D-05  0.385070D-05
     20  0.643680D-04  0.499122D-04  0.781152D-03  0.141306D-05 -0.162223D-05
     21  0.819826D-03  0.635710D-03  0.994918D-02  0.130947D-03 -0.150330D-03
     22  0.726147D-02 -0.273357D-01  0.833076D-03 -0.180273D+00 -0.126163D+00
     23 -0.344365D-02  0.128461D-01  0.826607D-04 -0.122968D+00 -0.380432D+00
     24 -0.394276D-03 -0.472020D-02  0.251965D-01  0.520916D-02  0.110156D-01
     25 -0.269899D+00  0.119091D+00  0.983643D-02 -0.475198D-02  0.173612D-01
     26  0.120133D+00 -0.204326D+00 -0.684849D-02 -0.608432D-02  0.226013D-01
     27  0.158349D-01 -0.115315D-01 -0.790934D-01 -0.247992D-02  0.373936D-02
                6             7             8             9            10 
      6  0.173784D+00
      7  0.999691D-02  0.520696D+00
      8 -0.158237D-01  0.366827D-01  0.637658D+00
      9 -0.411602D-01 -0.113359D-01  0.196529D-01  0.509222D-01
     10  0.000000D+00 -0.297047D+00 -0.210688D+00 -0.324154D-02  0.104096D+01
     11 -0.426305D-03 -0.167554D+00 -0.345697D+00 -0.723942D-02 -0.750483D-01
     12 -0.257078D-02  0.960749D-03 -0.326531D-02 -0.460327D-01 -0.242262D-01
     13  0.321325D-02 -0.100266D-01  0.815789D-02  0.213174D-02 -0.593113D+00
     14  0.498470D-03 -0.283818D-01  0.232348D-01  0.289271D-02  0.154401D+00
     15 -0.353336D-03 -0.443071D-03  0.655053D-03  0.937144D-02  0.312116D-01
     16 -0.244655D-03  0.117330D-04 -0.123391D-04  0.268106D-03 -0.593195D-02
     17  0.239379D-03 -0.231621D-04  0.243586D-04 -0.529267D-03  0.794978D-02
     18  0.415206D-02  0.331577D-03 -0.348706D-03  0.757672D-02  0.319333D-02
     19 -0.108380D-03  0.200757D-01 -0.164493D-01  0.881752D-03 -0.179770D+00
     20  0.456586D-04  0.120225D-01 -0.985195D-02  0.644630D-03  0.106522D+00
     21  0.423112D-02  0.275966D-03 -0.271576D-03  0.447533D-02 -0.589481D-02
     22  0.326560D-02  0.226384D-01  0.164579D-01 -0.142391D-02  0.721908D-05
     23  0.547980D-02 -0.107427D-01 -0.781603D-02  0.782590D-03 -0.128857D-05
     24 -0.691615D-01 -0.158635D-02 -0.148037D-02  0.574777D-02  0.112412D-03
     25  0.160111D-02  0.812236D-05  0.170410D-04 -0.192792D-03  0.438226D-04
     26  0.534618D-03  0.270405D-04  0.567321D-04 -0.641832D-03  0.277360D-04
     27  0.224829D-01 -0.233473D-03 -0.489836D-03  0.554170D-02  0.428179D-03
               11            12            13            14            15 
     11  0.876192D+00
     12  0.100973D-01  0.243480D+00
     13  0.127799D+00  0.331869D-01  0.969235D+00
     14 -0.252006D+00 -0.940607D-02 -0.567217D-01  0.820165D+00
     15 -0.103621D-01 -0.133810D+00 -0.277572D-01 -0.128754D-01  0.228894D+00
     16 -0.168287D-01 -0.272631D-03 -0.231390D+00 -0.956906D-01 -0.305832D-02
     17  0.226682D-01 -0.309477D-03 -0.974479D-01 -0.174115D+00 -0.734289D-03
     18  0.383171D-02  0.308039D-01 -0.801239D-02 -0.486572D-02 -0.823980D-01
     19  0.114883D+00 -0.460943D-02  0.891297D-02  0.253529D-01  0.154851D-04
     20 -0.289038D+00  0.401290D-02  0.536025D-02  0.150706D-01  0.104478D-02
     21  0.818640D-02 -0.987750D-01  0.989837D-03 -0.394383D-02  0.396420D-01
     22 -0.828768D-05  0.233262D-03  0.381719D-04 -0.267247D-04 -0.471503D-03
     23  0.147931D-05 -0.416359D-04 -0.269683D-04  0.188809D-04  0.333116D-03
     24 -0.129052D-03  0.363224D-02 -0.470512D-03  0.329413D-03  0.581182D-02
     25  0.339809D-04  0.531819D-03  0.173946D-01  0.735634D-03 -0.543107D-03
     26  0.215071D-04  0.336597D-03  0.231757D-01  0.904261D-03 -0.198261D-02
     27  0.332019D-03  0.519627D-02 -0.383714D-02  0.921405D-03  0.181045D-01
               16            17            18            19            20 
     16  0.220840D+00
     17  0.111818D+00  0.152385D+00
     18  0.318261D-02  0.144189D-02  0.426193D-01
     19 -0.432749D-04  0.854288D-04 -0.122296D-02  0.150756D+00
     20 -0.388130D-04  0.766206D-04 -0.109686D-02 -0.123932D+00  0.283695D+00
     21 -0.494344D-03  0.975882D-03 -0.139702D-01  0.417258D-02 -0.543226D-02
     22  0.000000D+00  0.000000D+00  0.000000D+00  0.000000D+00  0.000000D+00
     23  0.000000D+00  0.000000D+00  0.000000D+00  0.000000D+00  0.000000D+00
     24  0.000000D+00  0.000000D+00  0.000000D+00  0.000000D+00  0.000000D+00
     25  0.406499D-04 -0.397732D-04 -0.689872D-03  0.000000D+00  0.000000D+00
     26  0.257280D-04 -0.251731D-04 -0.436631D-03  0.000000D+00  0.000000D+00
     27  0.397180D-03 -0.388613D-03 -0.674056D-02  0.000000D+00  0.000000D+00
               21            22            23            24            25 
     21  0.544476D-01
     22  0.000000D+00  0.150354D+00
     23  0.000000D+00  0.137164D+00  0.375319D+00
     24  0.000000D+00 -0.319619D-02 -0.609983D-02  0.381368D-01
     25  0.000000D+00 -0.264280D-04  0.186713D-04  0.325756D-03  0.257190D+00
     26  0.000000D+00 -0.879827D-04  0.621596D-04  0.108449D-02 -0.137217D+00
     27  0.000000D+00  0.759659D-03 -0.536698D-03 -0.936368D-02 -0.108693D-01
               26            27 
     26  0.180705D+00
     27  0.795386D-02  0.438723D-01
 Leave Link  716 at Tue Dec 15 16:14:39 2015, MaxMem=    33554432 cpu:         0.0
 (Enter /home/Applications/g09/g09/l103.exe)

 GradGradGradGradGradGradGradGradGradGradGradGradGradGradGradGradGradGrad
 Berny optimization.
 Search for a local minimum.
 Step number   1 out of a maximum of    2
 All quantities printed in internal units (Hartrees-Bohrs-Radians)
 Second derivative matrix not updated -- first step.
 ITU=  0
     Eigenvalues ---    0.01904   0.03007   0.06813   0.07506   0.07661
     Eigenvalues ---    0.07965   0.13022   0.13702   0.16294   0.22457
     Eigenvalues ---    0.24636   0.30554   0.42829   0.43612   0.63361
     Eigenvalues ---    0.80250   1.06177   1.34201   1.37969   1.47664
     Eigenvalues ---    1.78318
 Quadratic step=3.868D-01 exceeds max=3.000D-01 adjusted using Lamda=-5.609D-02.
 Angle between NR and scaled steps=  13.94 degrees.
 Angle between quadratic step and forces=  39.82 degrees.
 Linear search not attempted -- first point.
 TrRot= -0.005376  0.001762  0.003921  1.211010  0.000939 -1.209128
 Variable       Old X    -DE/DX   Delta X   Delta X   Delta X     New X
                                 (Linear)    (Quad)   (Total)
    X1        1.83454   0.04901   0.00000   0.08647   0.08376   1.91830
    Y1       -1.39123  -0.00998   0.00000  -0.01516  -0.00972  -1.40095
    Z1        0.07469   0.00153   0.00000  -0.00399   0.00053   0.07522
    X2       -0.69193   0.01451   0.00000  -0.00652  -0.00792  -0.69985
    Y2       -2.06743  -0.03096   0.00000  -0.05994  -0.05957  -2.12700
    Z2       -0.09152  -0.00370   0.00000   0.00366   0.00968  -0.08184
    X3       -2.25317  -0.06685   0.00000  -0.12876  -0.13430  -2.38748
    Y3        0.09092   0.02371   0.00000   0.01309   0.01042   0.10134
    Z3        0.03348   0.00681   0.00000   0.02239   0.02701   0.06049
    X4       -0.61409  -0.11765   0.00000  -0.07615  -0.08553  -0.69962
    Y4        2.09245   0.05008   0.00000   0.04029   0.04077   2.13322
    Z4        0.05387  -0.00624   0.00000  -0.02948  -0.02721   0.02666
    X5        1.71686   0.15987   0.00000   0.12529   0.11743   1.83428
    Y5        1.27307   0.01229   0.00000   0.03402   0.03919   1.31226
    Z5       -0.08585   0.00396   0.00000   0.02510   0.02726  -0.05859
    X6        3.43684  -0.02546   0.00000   0.02241   0.01223   3.44907
    Y6        2.54524  -0.01723   0.00000  -0.00154   0.00668   2.55192
    Z6       -0.05785  -0.00356   0.00000   0.00113   0.00167  -0.05618
    X7       -1.66349   0.01468   0.00000   0.04011   0.02733  -1.63616
    Y7        3.84583   0.00417   0.00000   0.08675   0.08545   3.93128
    Z7        0.00807   0.00312   0.00000  -0.01195  -0.01094  -0.00288
    X8       -1.51782  -0.02579   0.00000  -0.08180  -0.07980  -1.59762
    Y8       -3.81274  -0.03746   0.00000  -0.11766  -0.11897  -3.93172
    Z8       -0.05849  -0.00132   0.00000  -0.02139  -0.01349  -0.07198
    X9        3.45598  -0.00234   0.00000   0.06726   0.06681   3.52279
    Y9       -2.62248   0.00537   0.00000  -0.00262   0.00575  -2.61672
    Z9       -0.01150  -0.00059   0.00000  -0.01956  -0.01450  -0.02601
         Item               Value     Threshold  Converged?
 Maximum Force            0.159870     0.000450     NO 
 RMS     Force            0.044796     0.000300     NO 
 Maximum Displacement     0.134304     0.001800     NO 
 RMS     Displacement     0.057495     0.001200     NO 
 Predicted change in Energy=-2.935609D-02
 GradGradGradGradGradGradGradGradGradGradGradGradGradGradGradGradGradGrad

 Leave Link  103 at Tue Dec 15 16:14:39 2015, MaxMem=    33554432 cpu:         0.0
 (Enter /home/Applications/g09/g09/l9999.exe)
 1\1\GINC-DUSTIN-DESKTOP\Force\RB3LYP-FC\3-21G\C4H4O1\DUSTIN\15-Dec-201
 5\0\\#P B3LYP/3-21G CIS(Singlets,NStates=15) pop(full) force\\FuranDFT
 \\0,1\C,0.970799,-0.736209,0.039524\C,-0.366154,-1.094039,-0.048431\O,
 -1.192328,0.048114,0.017718\C,-0.324964,1.107275,0.028506\C,0.908521,0
 .67368,-0.04543\H,1.818698,1.346882,-0.030611\H,-0.880281,2.035126,0.0
 04269\H,-0.803198,-2.017616,-0.030951\H,1.828826,-1.387755,-0.006087\\
 Version=ES64L-G09RevD.01\State=1-A\HF=-228.7370927\RMSD=4.378e-09\RMSF
 =4.480e-02\Dipole=0.3454316,0.722646,-0.0171762\PG=C01 [X(C4H4O1)]\\@


 THE MOST BEAUTIFUL EXPERIENCE WE CAN HAVE IS THE MYSTERIOUS.
 IT IS THE FUNDAMENTAL EMOTION WHICH STANDS AT AT THE CRADLE 
 OF TRUE ART AND TRUE SCIENCE.

                                    -- ALBERT EINSTEIN
 Job cpu time:       0 days  0 hours  0 minutes 50.7 seconds.
 File lengths (MBytes):  RWF=     14 Int=      0 D2E=      0 Chk=      3 Scr=      1
 Normal termination of Gaussian 09 at Tue Dec 15 16:14:39 2015.
