 Entering Gaussian System, Link 0=g09
 Input=FuranDFT_0.com
 Output=FuranDFT_0.log
 Initial command:
 /home/Applications/g09/g09/l1.exe "/home/Applications/g09/scratch/Gau-15302.inp" -scrdir="/home/Applications/g09/scratch/"
 Entering Link 1 = /home/Applications/g09/g09/l1.exe PID=     15304.
  
 Copyright (c) 1988,1990,1992,1993,1995,1998,2003,2009,2013,
            Gaussian, Inc.  All Rights Reserved.
  
 This is part of the Gaussian(R) 09 program.  It is based on
 the Gaussian(R) 03 system (copyright 2003, Gaussian, Inc.),
 the Gaussian(R) 98 system (copyright 1998, Gaussian, Inc.),
 the Gaussian(R) 94 system (copyright 1995, Gaussian, Inc.),
 the Gaussian 92(TM) system (copyright 1992, Gaussian, Inc.),
 the Gaussian 90(TM) system (copyright 1990, Gaussian, Inc.),
 the Gaussian 88(TM) system (copyright 1988, Gaussian, Inc.),
 the Gaussian 86(TM) system (copyright 1986, Carnegie Mellon
 University), and the Gaussian 82(TM) system (copyright 1983,
 Carnegie Mellon University). Gaussian is a federally registered
 trademark of Gaussian, Inc.
  
 This software contains proprietary and confidential information,
 including trade secrets, belonging to Gaussian, Inc.
  
 This software is provided under written license and may be
 used, copied, transmitted, or stored only in accord with that
 written license.
  
 The following legend is applicable only to US Government
 contracts under FAR:
  
                    RESTRICTED RIGHTS LEGEND
  
 Use, reproduction and disclosure by the US Government is
 subject to restrictions as set forth in subparagraphs (a)
 and (c) of the Commercial Computer Software - Restricted
 Rights clause in FAR 52.227-19.
  
 Gaussian, Inc.
 340 Quinnipiac St., Bldg. 40, Wallingford CT 06492
  
  
 ---------------------------------------------------------------
 Warning -- This program may not be used in any manner that
 competes with the business of Gaussian, Inc. or will provide
 assistance to any competitor of Gaussian, Inc.  The licensee
 of this program is prohibited from giving any competitor of
 Gaussian, Inc. access to this program.  By using this program,
 the user acknowledges that Gaussian, Inc. is engaged in the
 business of creating and licensing software in the field of
 computational chemistry and represents and warrants to the
 licensee that it is not a competitor of Gaussian, Inc. and that
 it will not use this program in any manner prohibited above.
 ---------------------------------------------------------------
  

 Cite this work as:
 Gaussian 09, Revision D.01,
 M. J. Frisch, G. W. Trucks, H. B. Schlegel, G. E. Scuseria, 
 M. A. Robb, J. R. Cheeseman, G. Scalmani, V. Barone, B. Mennucci, 
 G. A. Petersson, H. Nakatsuji, M. Caricato, X. Li, H. P. Hratchian, 
 A. F. Izmaylov, J. Bloino, G. Zheng, J. L. Sonnenberg, M. Hada, 
 M. Ehara, K. Toyota, R. Fukuda, J. Hasegawa, M. Ishida, T. Nakajima, 
 Y. Honda, O. Kitao, H. Nakai, T. Vreven, J. A. Montgomery, Jr., 
 J. E. Peralta, F. Ogliaro, M. Bearpark, J. J. Heyd, E. Brothers, 
 K. N. Kudin, V. N. Staroverov, T. Keith, R. Kobayashi, J. Normand, 
 K. Raghavachari, A. Rendell, J. C. Burant, S. S. Iyengar, J. Tomasi, 
 M. Cossi, N. Rega, J. M. Millam, M. Klene, J. E. Knox, J. B. Cross, 
 V. Bakken, C. Adamo, J. Jaramillo, R. Gomperts, R. E. Stratmann, 
 O. Yazyev, A. J. Austin, R. Cammi, C. Pomelli, J. W. Ochterski, 
 R. L. Martin, K. Morokuma, V. G. Zakrzewski, G. A. Voth, 
 P. Salvador, J. J. Dannenberg, S. Dapprich, A. D. Daniels, 
 O. Farkas, J. B. Foresman, J. V. Ortiz, J. Cioslowski, 
 and D. J. Fox, Gaussian, Inc., Wallingford CT, 2013.
 
 ******************************************
 Gaussian 09:  ES64L-G09RevD.01 24-Apr-2013
                11-Dec-2015 
 ******************************************
 -------------------------------------------------------
 #P B3LYP/3-21G CIS(Singlets,NStates=15) pop(full) force
 -------------------------------------------------------
 1/10=7,30=1,38=1/1,3;
 2/12=2,17=6,18=5,40=1/2;
 3/5=5,11=9,16=1,25=1,30=1,71=1,74=-5/1,2,8,3;
 4//1;
 5/5=2,38=5/2;
 8/6=1,10=1,108=15/1;
 9/15=2,41=15,42=1,48=1/14;
 10/5=4/2;
 6/7=3,18=1/1;
 7/12=6,13=5,29=1/1,2,3,16;
 1/10=7,30=1/3;
 99//99;
 Leave Link    1 at Fri Dec 11 13:18:13 2015, MaxMem=           0 cpu:         0.0
 (Enter /home/Applications/g09/g09/l101.exe)
 --------
 FuranDFT
 --------
 Symbolic Z-matrix:
 Charge =  0 Multiplicity = 1
 6                     0.95696  -0.75909   0.02529 
 6                    -0.32207  -1.07962   0.04332 
 8                    -1.19288  -0.033    -0.01049 
 6                    -0.33669   1.09622  -0.00261 
 6                     0.9462    0.67471  -0.02629 
 1                     1.85597   1.34992  -0.00928 
 1                    -0.80042   2.03366  -0.00982 
 1                    -0.83571  -2.05867   0.04825 
 1                     1.81787  -1.39946  -0.02276 
 
 NAtoms=      9 NQM=        9 NQMF=       0 NMMI=      0 NMMIF=      0
                NMic=       0 NMicF=      0.
                    Isotopes and Nuclear Properties:
 (Nuclear quadrupole moments (NQMom) in fm**2, nuclear magnetic moments (NMagM)
  in nuclear magnetons)

  Atom         1           2           3           4           5           6           7           8           9
 IAtWgt=          12          12          16          12          12           1           1           1           1
 AtmWgt=  12.0000000  12.0000000  15.9949146  12.0000000  12.0000000   1.0078250   1.0078250   1.0078250   1.0078250
 NucSpn=           0           0           0           0           0           1           1           1           1
 AtZEff=   0.0000000   0.0000000   0.0000000   0.0000000   0.0000000   0.0000000   0.0000000   0.0000000   0.0000000
 NQMom=    0.0000000   0.0000000   0.0000000   0.0000000   0.0000000   0.0000000   0.0000000   0.0000000   0.0000000
 NMagM=    0.0000000   0.0000000   0.0000000   0.0000000   0.0000000   2.7928460   2.7928460   2.7928460   2.7928460
 AtZNuc=   6.0000000   6.0000000   8.0000000   6.0000000   6.0000000   1.0000000   1.0000000   1.0000000   1.0000000
 Leave Link  101 at Fri Dec 11 13:18:13 2015, MaxMem=    33554432 cpu:         0.1
 (Enter /home/Applications/g09/g09/l103.exe)

 GradGradGradGradGradGradGradGradGradGradGradGradGradGradGradGradGradGrad
 Berny optimization.
 Initialization pass.
 Trust Radius=3.00D-01 FncErr=1.00D-07 GrdErr=1.00D-07
 Number of steps in this run=      2 maximum allowed number of steps=      2.
 GradGradGradGradGradGradGradGradGradGradGradGradGradGradGradGradGradGrad

 Leave Link  103 at Fri Dec 11 13:18:13 2015, MaxMem=    33554432 cpu:         0.0
 (Enter /home/Applications/g09/g09/l202.exe)
                          Input orientation:                          
 ---------------------------------------------------------------------
 Center     Atomic      Atomic             Coordinates (Angstroms)
 Number     Number       Type             X           Y           Z
 ---------------------------------------------------------------------
      1          6           0        0.956964   -0.759088    0.025294
      2          6           0       -0.322072   -1.079623    0.043319
      3          8           0       -1.192880   -0.033001   -0.010488
      4          6           0       -0.336686    1.096219   -0.002612
      5          6           0        0.946202    0.674706   -0.026290
      6          1           0        1.855969    1.349918   -0.009277
      7          1           0       -0.800417    2.033663   -0.009819
      8          1           0       -0.835706   -2.058670    0.048253
      9          1           0        1.817870   -1.399457   -0.022759
 ---------------------------------------------------------------------
                    Distance matrix (angstroms):
                    1          2          3          4          5
     1  C    0.000000
     2  C    1.318712   0.000000
     3  O    2.269430   1.362578   0.000000
     4  C    2.261962   2.176376   1.417134   0.000000
     5  C    1.434762   2.165880   2.253169   1.350569   0.000000
     6  H    2.292883   3.263326   3.347827   2.207293   1.133083
     7  H    3.299860   3.150268   2.103599   1.045897   2.213078
     8  H    2.214296   1.105612   2.057756   3.194516   3.263755
     9  H    1.074030   2.164720   3.306353   3.297107   2.249882
                    6          7          8          9
     6  H    0.000000
     7  H    2.742972   0.000000
     8  H    4.343604   4.092897   0.000000
     9  H    2.749672   4.317627   2.735154   0.000000
 Stoichiometry    C4H4O
 Framework group  C1[X(C4H4O)]
 Deg. of freedom    21
 Full point group                 C1      NOp   1
 Largest Abelian subgroup         C1      NOp   1
 Largest concise Abelian subgroup C1      NOp   1
                         Standard orientation:                         
 ---------------------------------------------------------------------
 Center     Atomic      Atomic             Coordinates (Angstroms)
 Number     Number       Type             X           Y           Z
 ---------------------------------------------------------------------
      1          6           0       -0.975310    0.715668   -0.009273
      2          6           0       -0.928919   -0.602198   -0.018064
      3          8           0        0.318882   -1.148367    0.018147
      4          6           0        1.166129   -0.012823   -0.013168
      5          6           0        0.405930    1.103118    0.015270
      6          1           0        0.802026    2.164230   -0.016746
      7          1           0        2.195371   -0.198491   -0.022500
      8          1           0       -1.727105   -1.367089   -0.003242
      9          1           0       -1.828327    1.365698    0.048715
 ---------------------------------------------------------------------
 Rotational constants (GHZ):      9.5586681      9.1229760      4.6694122
 Leave Link  202 at Fri Dec 11 13:18:13 2015, MaxMem=    33554432 cpu:         0.0
 (Enter /home/Applications/g09/g09/l301.exe)
 Standard basis: 3-21G (6D, 7F)
 Ernie: Thresh=  0.10000D-02 Tol=  0.10000D-05 Strict=F.
 There are    53 symmetry adapted cartesian basis functions of A   symmetry.
 There are    53 symmetry adapted basis functions of A   symmetry.
    53 basis functions,    87 primitive gaussians,    53 cartesian basis functions
    18 alpha electrons       18 beta electrons
       nuclear repulsion energy       160.5069442102 Hartrees.
 IExCor=  402 DFT=T Ex+Corr=B3LYP ExCW=0 ScaHFX=  0.200000
 ScaDFX=  0.800000  0.720000  1.000000  0.810000 ScalE2=  1.000000  1.000000
 IRadAn=      0 IRanWt=     -1 IRanGd=            0 ICorTp=0 IEmpDi=  4
 NAtoms=    9 NActive=    9 NUniq=    9 SFac= 1.00D+00 NAtFMM=   60 NAOKFM=F Big=F
 Integral buffers will be    131072 words long.
 Regular integral format.
 Two-electron integral symmetry is turned on.
 Leave Link  301 at Fri Dec 11 13:18:13 2015, MaxMem=    33554432 cpu:         0.0
 (Enter /home/Applications/g09/g09/l302.exe)
 NPDir=0 NMtPBC=     1 NCelOv=     1 NCel=       1 NClECP=     1 NCelD=      1
         NCelK=      1 NCelE2=     1 NClLst=     1 CellRange=     0.0.
 One-electron integrals computed using PRISM.
 NBasis=    53 RedAO= T EigKep=  3.14D-03  NBF=    53
 NBsUse=    53 1.00D-06 EigRej= -1.00D+00 NBFU=    53
 Precomputing XC quadrature grid using
 IXCGrd= 4 IRadAn=           0 IRanWt=          -1 IRanGd=           0 AccXCQ= 0.00D+00.
 Generated NRdTot=       0 NPtTot=           0 NUsed=           0 NTot=          32
 NSgBfM=    53    53    53    53    53 MxSgAt=     9 MxSgA2=     9.
 Leave Link  302 at Fri Dec 11 13:18:13 2015, MaxMem=    33554432 cpu:         0.1
 (Enter /home/Applications/g09/g09/l308.exe)
 Leave Link  308 at Fri Dec 11 13:18:13 2015, MaxMem=    33554432 cpu:         0.0
 (Enter /home/Applications/g09/g09/l303.exe)
 DipDrv:  MaxL=1.
 Leave Link  303 at Fri Dec 11 13:18:13 2015, MaxMem=    33554432 cpu:         0.0
 (Enter /home/Applications/g09/g09/l401.exe)
 ExpMin= 1.83D-01 ExpMax= 3.22D+02 ExpMxC= 3.22D+02 IAcc=1 IRadAn=         1 AccDes= 0.00D+00
 Harris functional with IExCor=  402 and IRadAn=       1 diagonalized for initial guess.
 HarFok:  IExCor=  402 AccDes= 0.00D+00 IRadAn=         1 IDoV= 1 UseB2=F ITyADJ=14
 ICtDFT=  3500011 ScaDFX=  1.000000  1.000000  1.000000  1.000000
 FoFCou: FMM=F IPFlag=           0 FMFlag=      100000 FMFlg1=           0
         NFxFlg=           0 DoJE=T BraDBF=F KetDBF=T FulRan=T
         wScrn=  0.000000 ICntrl=     500 IOpCl=  0 I1Cent=   200000004 NGrid=           0
         NMat0=    1 NMatS0=      1 NMatT0=    0 NMatD0=    1 NMtDS0=    0 NMtDT0=    0
 Petite list used in FoFCou.
 Harris En= -228.734045731046    
 JPrj=0 DoOrth=F DoCkMO=F.
 Leave Link  401 at Fri Dec 11 13:18:14 2015, MaxMem=    33554432 cpu:         0.1
 (Enter /home/Applications/g09/g09/l502.exe)
 Closed shell SCF:
 Using DIIS extrapolation, IDIIS=  1040.
 Integral symmetry usage will be decided dynamically.
 Keep R1 ints in memory in canonical form, NReq=1925595.
 IVT=       27707 IEndB=       27707 NGot=    33554432 MDV=    32502130
 LenX=    32502130 LenY=    32498880
 Requested convergence on RMS density matrix=1.00D-08 within 128 cycles.
 Requested convergence on MAX density matrix=1.00D-06.
 Requested convergence on             energy=1.00D-06.
 No special actions if energy rises.
 FoFCou: FMM=F IPFlag=           0 FMFlag=           0 FMFlg1=           0
         NFxFlg=           0 DoJE=F BraDBF=F KetDBF=F FulRan=T
         wScrn=  0.000000 ICntrl=     600 IOpCl=  0 I1Cent=           0 NGrid=           0
         NMat0=    1 NMatS0=   1431 NMatT0=    0 NMatD0=    1 NMtDS0=    0 NMtDT0=    0
 Symmetry not used in FoFCou.
 Integral accuracy reduced to 1.0D-05 until final iterations.

 Cycle   1  Pass 0  IDiag  1:
 E= -228.664725382068    
 DIIS: error= 3.55D-02 at cycle   1 NSaved=   1.
 NSaved= 1 IEnMin= 1 EnMin= -228.664725382068     IErMin= 1 ErrMin= 3.55D-02
 ErrMax= 3.55D-02  0.00D+00 EMaxC= 1.00D-01 BMatC= 7.58D-02 BMatP= 7.58D-02
 IDIUse=3 WtCom= 6.45D-01 WtEn= 3.55D-01
 Coeff-Com:  0.100D+01
 Coeff-En:   0.100D+01
 Coeff:      0.100D+01
 Gap=     0.233 Goal=   None    Shift=    0.000
 GapD=    0.233 DampG=1.000 DampE=0.500 DampFc=0.5000 IDamp=-1.
 Damping current iteration by 5.00D-01
 RMSDP=1.18D-02 MaxDP=1.21D-01              OVMax= 1.90D-01

 Cycle   2  Pass 0  IDiag  1:
 E= -228.694765293118     Delta-E=       -0.030039911049 Rises=F Damp=T
 DIIS: error= 1.46D-02 at cycle   2 NSaved=   2.
 NSaved= 2 IEnMin= 2 EnMin= -228.694765293118     IErMin= 2 ErrMin= 1.46D-02
 ErrMax= 1.46D-02  0.00D+00 EMaxC= 1.00D-01 BMatC= 9.17D-03 BMatP= 7.58D-02
 IDIUse=3 WtCom= 8.54D-01 WtEn= 1.46D-01
 Coeff-Com:  0.121D+00 0.879D+00
 Coeff-En:   0.209D+00 0.791D+00
 Coeff:      0.134D+00 0.866D+00
 Gap=     0.249 Goal=   None    Shift=    0.000
 RMSDP=4.45D-03 MaxDP=4.07D-02 DE=-3.00D-02 OVMax= 1.66D-01

 Cycle   3  Pass 0  IDiag  1:
 E= -228.732988894602     Delta-E=       -0.038223601484 Rises=F Damp=F
 DIIS: error= 2.11D-02 at cycle   3 NSaved=   3.
 NSaved= 3 IEnMin= 3 EnMin= -228.732988894602     IErMin= 2 ErrMin= 1.46D-02
 ErrMax= 2.11D-02  0.00D+00 EMaxC= 1.00D-01 BMatC= 1.20D-02 BMatP= 9.17D-03
 IDIUse=2 WtCom= 0.00D+00 WtEn= 1.00D+00
 Coeff-En:   0.000D+00 0.000D+00 0.100D+01
 Coeff:      0.000D+00 0.000D+00 0.100D+01
 Gap=     0.241 Goal=   None    Shift=    0.000
 RMSDP=5.95D-03 MaxDP=4.82D-02 DE=-3.82D-02 OVMax= 1.28D-01

 Cycle   4  Pass 0  IDiag  1:
 E= -228.700839296167     Delta-E=        0.032149598435 Rises=F Damp=F
 DIIS: error= 4.26D-02 at cycle   4 NSaved=   4.
 NSaved= 4 IEnMin= 3 EnMin= -228.732988894602     IErMin= 2 ErrMin= 1.46D-02
 ErrMax= 4.26D-02  0.00D+00 EMaxC= 1.00D-01 BMatC= 4.84D-02 BMatP= 9.17D-03
 IDIUse=2 WtCom= 0.00D+00 WtEn= 1.00D+00
 Coeff-En:   0.000D+00 0.000D+00 0.751D+00 0.249D+00
 Coeff:      0.000D+00 0.000D+00 0.751D+00 0.249D+00
 Gap=     0.252 Goal=   None    Shift=    0.000
 RMSDP=2.99D-03 MaxDP=2.40D-02 DE= 3.21D-02 OVMax= 6.97D-02

 Cycle   5  Pass 0  IDiag  1:
 E= -228.741313740689     Delta-E=       -0.040474444522 Rises=F Damp=F
 DIIS: error= 1.02D-02 at cycle   5 NSaved=   5.
 NSaved= 5 IEnMin= 5 EnMin= -228.741313740689     IErMin= 5 ErrMin= 1.02D-02
 ErrMax= 1.02D-02  0.00D+00 EMaxC= 1.00D-01 BMatC= 2.76D-03 BMatP= 9.17D-03
 IDIUse=3 WtCom= 8.98D-01 WtEn= 1.02D-01
 Coeff-Com: -0.108D-01 0.333D-01 0.226D+00-0.109D+00 0.860D+00
 Coeff-En:   0.000D+00 0.000D+00 0.229D+00 0.000D+00 0.771D+00
 Coeff:     -0.969D-02 0.299D-01 0.226D+00-0.977D-01 0.851D+00
 Gap=     0.256 Goal=   None    Shift=    0.000
 RMSDP=1.03D-03 MaxDP=8.22D-03 DE=-4.05D-02 OVMax= 2.26D-02

 Cycle   6  Pass 0  IDiag  1:
 E= -228.743763401757     Delta-E=       -0.002449661067 Rises=F Damp=F
 DIIS: error= 6.52D-04 at cycle   6 NSaved=   6.
 NSaved= 6 IEnMin= 6 EnMin= -228.743763401757     IErMin= 6 ErrMin= 6.52D-04
 ErrMax= 6.52D-04  0.00D+00 EMaxC= 1.00D-01 BMatC= 1.16D-05 BMatP= 2.76D-03
 IDIUse=3 WtCom= 9.93D-01 WtEn= 6.52D-03
 Coeff-Com: -0.472D-02 0.975D-02 0.311D-01-0.320D-01 0.227D+00 0.769D+00
 Coeff-En:   0.000D+00 0.000D+00 0.000D+00 0.000D+00 0.000D+00 0.100D+01
 Coeff:     -0.469D-02 0.969D-02 0.309D-01-0.318D-01 0.225D+00 0.771D+00
 Gap=     0.256 Goal=   None    Shift=    0.000
 RMSDP=7.12D-05 MaxDP=5.36D-04 DE=-2.45D-03 OVMax= 1.42D-03

 Cycle   7  Pass 0  IDiag  1:
 E= -228.743774661294     Delta-E=       -0.000011259537 Rises=F Damp=F
 DIIS: error= 3.51D-05 at cycle   7 NSaved=   7.
 NSaved= 7 IEnMin= 7 EnMin= -228.743774661294     IErMin= 7 ErrMin= 3.51D-05
 ErrMax= 3.51D-05  0.00D+00 EMaxC= 1.00D-01 BMatC= 6.49D-08 BMatP= 1.16D-05
 IDIUse=1 WtCom= 1.00D+00 WtEn= 0.00D+00
 Coeff-Com: -0.163D-02 0.288D-02 0.105D-01-0.106D-01 0.840D-01 0.392D+00
 Coeff-Com:  0.522D+00
 Coeff:     -0.163D-02 0.288D-02 0.105D-01-0.106D-01 0.840D-01 0.392D+00
 Coeff:      0.522D+00
 Gap=     0.256 Goal=   None    Shift=    0.000
 RMSDP=4.97D-06 MaxDP=6.35D-05 DE=-1.13D-05 OVMax= 1.41D-04

 Initial convergence to 1.0D-05 achieved.  Increase integral accuracy.
 Cycle   8  Pass 1  IDiag  1:
 E= -228.743796977026     Delta-E=       -0.000022315733 Rises=F Damp=F
 DIIS: error= 1.46D-05 at cycle   1 NSaved=   1.
 NSaved= 1 IEnMin= 1 EnMin= -228.743796977026     IErMin= 1 ErrMin= 1.46D-05
 ErrMax= 1.46D-05  0.00D+00 EMaxC= 1.00D-01 BMatC= 1.24D-08 BMatP= 1.24D-08
 IDIUse=1 WtCom= 1.00D+00 WtEn= 0.00D+00
 Coeff-Com:  0.100D+01
 Coeff:      0.100D+01
 Gap=     0.256 Goal=   None    Shift=    0.000
 RMSDP=4.97D-06 MaxDP=6.35D-05 DE=-2.23D-05 OVMax= 9.12D-05

 Cycle   9  Pass 1  IDiag  1:
 E= -228.743796980232     Delta-E=       -0.000000003206 Rises=F Damp=F
 DIIS: error= 2.04D-05 at cycle   2 NSaved=   2.
 NSaved= 2 IEnMin= 2 EnMin= -228.743796980232     IErMin= 1 ErrMin= 1.46D-05
 ErrMax= 2.04D-05  0.00D+00 EMaxC= 1.00D-01 BMatC= 1.25D-08 BMatP= 1.24D-08
 IDIUse=1 WtCom= 1.00D+00 WtEn= 0.00D+00
 Coeff-Com:  0.501D+00 0.499D+00
 Coeff:      0.501D+00 0.499D+00
 Gap=     0.256 Goal=   None    Shift=    0.000
 RMSDP=2.98D-06 MaxDP=3.69D-05 DE=-3.21D-09 OVMax= 8.47D-05

 Cycle  10  Pass 1  IDiag  1:
 E= -228.743796991647     Delta-E=       -0.000000011415 Rises=F Damp=F
 DIIS: error= 7.50D-06 at cycle   3 NSaved=   3.
 NSaved= 3 IEnMin= 3 EnMin= -228.743796991647     IErMin= 3 ErrMin= 7.50D-06
 ErrMax= 7.50D-06  0.00D+00 EMaxC= 1.00D-01 BMatC= 1.93D-09 BMatP= 1.24D-08
 IDIUse=1 WtCom= 1.00D+00 WtEn= 0.00D+00
 Coeff-Com: -0.822D-02 0.278D+00 0.730D+00
 Coeff:     -0.822D-02 0.278D+00 0.730D+00
 Gap=     0.256 Goal=   None    Shift=    0.000
 RMSDP=9.76D-07 MaxDP=8.88D-06 DE=-1.14D-08 OVMax= 2.18D-05

 Cycle  11  Pass 1  IDiag  1:
 E= -228.743796993532     Delta-E=       -0.000000001885 Rises=F Damp=F
 DIIS: error= 3.05D-06 at cycle   4 NSaved=   4.
 NSaved= 4 IEnMin= 4 EnMin= -228.743796993532     IErMin= 4 ErrMin= 3.05D-06
 ErrMax= 3.05D-06  0.00D+00 EMaxC= 1.00D-01 BMatC= 2.25D-10 BMatP= 1.93D-09
 IDIUse=1 WtCom= 1.00D+00 WtEn= 0.00D+00
 Coeff-Com: -0.173D-01 0.177D+00 0.490D+00 0.350D+00
 Coeff:     -0.173D-01 0.177D+00 0.490D+00 0.350D+00
 Gap=     0.256 Goal=   None    Shift=    0.000
 RMSDP=2.55D-07 MaxDP=2.30D-06 DE=-1.88D-09 OVMax= 5.32D-06

 Cycle  12  Pass 1  IDiag  1:
 E= -228.743796993716     Delta-E=       -0.000000000184 Rises=F Damp=F
 DIIS: error= 1.39D-07 at cycle   5 NSaved=   5.
 NSaved= 5 IEnMin= 5 EnMin= -228.743796993716     IErMin= 5 ErrMin= 1.39D-07
 ErrMax= 1.39D-07  0.00D+00 EMaxC= 1.00D-01 BMatC= 1.22D-12 BMatP= 2.25D-10
 IDIUse=1 WtCom= 1.00D+00 WtEn= 0.00D+00
 Coeff-Com: -0.538D-02 0.408D-01 0.115D+00 0.106D+00 0.743D+00
 Coeff:     -0.538D-02 0.408D-01 0.115D+00 0.106D+00 0.743D+00
 Gap=     0.256 Goal=   None    Shift=    0.000
 RMSDP=2.58D-08 MaxDP=2.65D-07 DE=-1.84D-10 OVMax= 3.83D-07

 Cycle  13  Pass 1  IDiag  1:
 E= -228.743796993716     Delta-E=        0.000000000000 Rises=F Damp=F
 DIIS: error= 5.09D-08 at cycle   6 NSaved=   6.
 NSaved= 6 IEnMin= 6 EnMin= -228.743796993716     IErMin= 6 ErrMin= 5.09D-08
 ErrMax= 5.09D-08  0.00D+00 EMaxC= 1.00D-01 BMatC= 2.03D-13 BMatP= 1.22D-12
 IDIUse=1 WtCom= 1.00D+00 WtEn= 0.00D+00
 Coeff-Com: -0.110D-02 0.557D-02 0.149D-01 0.226D-01 0.325D+00 0.633D+00
 Coeff:     -0.110D-02 0.557D-02 0.149D-01 0.226D-01 0.325D+00 0.633D+00
 Gap=     0.256 Goal=   None    Shift=    0.000
 RMSDP=1.17D-08 MaxDP=1.37D-07 DE=-1.71D-13 OVMax= 1.95D-07

 Cycle  14  Pass 1  IDiag  1:
 E= -228.743796993717     Delta-E=       -0.000000000001 Rises=F Damp=F
 DIIS: error= 2.36D-08 at cycle   7 NSaved=   7.
 NSaved= 7 IEnMin= 7 EnMin= -228.743796993717     IErMin= 7 ErrMin= 2.36D-08
 ErrMax= 2.36D-08  0.00D+00 EMaxC= 1.00D-01 BMatC= 2.37D-14 BMatP= 2.03D-13
 IDIUse=1 WtCom= 1.00D+00 WtEn= 0.00D+00
 Coeff-Com: -0.237D-03 0.383D-03 0.164D-03 0.580D-02 0.109D+00 0.320D+00
 Coeff-Com:  0.565D+00
 Coeff:     -0.237D-03 0.383D-03 0.164D-03 0.580D-02 0.109D+00 0.320D+00
 Coeff:      0.565D+00
 Gap=     0.256 Goal=   None    Shift=    0.000
 RMSDP=3.67D-09 MaxDP=4.25D-08 DE=-1.14D-12 OVMax= 7.30D-08

 SCF Done:  E(RB3LYP) =  -228.743796994     A.U. after   14 cycles
            NFock= 14  Conv=0.37D-08     -V/T= 2.0082
 KE= 2.268814419550D+02 PE=-8.536124744606D+02 EE= 2.374802913017D+02
 Leave Link  502 at Fri Dec 11 13:18:17 2015, MaxMem=    33554432 cpu:         3.1
 (Enter /home/Applications/g09/g09/l801.exe)
 DoSCS=F DFT=T ScalE2(SS,OS)=  1.000000  1.000000
 ExpMin= 1.83D-01 ExpMax= 3.22D+02 ExpMxC= 3.22D+02 IAcc=3 IRadAn=         5 AccDes= 0.00D+00
 HarFok:  IExCor=  205 AccDes= 0.00D+00 IRadAn=         5 IDoV=-2 UseB2=F ITyADJ=14
 ICtDFT= 12500011 ScaDFX=  1.000000  1.000000  1.000000  1.000000
 Largest valence mixing into a core orbital is  1.73D-04
 Largest core mixing into a valence orbital is  4.70D-05
 Range of M.O.s used for correlation:     6    53
 NBasis=    53 NAE=    18 NBE=    18 NFC=     5 NFV=     0
 NROrb=     48 NOA=    13 NOB=    13 NVA=    35 NVB=    35
 Leave Link  801 at Fri Dec 11 13:18:17 2015, MaxMem=    33554432 cpu:         0.2
 (Enter /home/Applications/g09/g09/l914.exe)
 RHF ground state
 MDV=    33554432 DFT=T DoStab=F Mixed=T DoRPA=F DoScal=F NonHer=F
 Keep R1, R2, and R3 ints in memory in canonical form, NReq=5596273.
 FoFCou: FMM=F IPFlag=           0 FMFlag=           0 FMFlg1=           0
         NFxFlg=           0 DoJE=F BraDBF=F KetDBF=F FulRan=T
         wScrn=  0.000000 ICntrl=     600 IOpCl=  0 I1Cent=           0 NGrid=           0
         NMat0=    1 NMatS0=   1431 NMatT0=    0 NMatD0=    1 NMtDS0=    0 NMtDT0=    0
 Symmetry not used in FoFCou.
 Making orbital integer symmetry assigments:
 Orbital symmetries:
       Occupied  (A) (A) (A) (A) (A) (A) (A) (A) (A) (A) (A) (A)
                 (A) (A) (A) (A) (A) (A)
       Virtual   (A) (A) (A) (A) (A) (A) (A) (A) (A) (A) (A) (A)
                 (A) (A) (A) (A) (A) (A) (A) (A) (A) (A) (A) (A)
                 (A) (A) (A) (A) (A) (A) (A) (A) (A) (A) (A)
    60 initial guesses have been made.
 Convergence on wavefunction:    0.000001000000000
 Davidson Disk Diagonalization:  ConvIn= 1.00D-06 SkipCon=T Conv= 1.00D-06.
 Max sub-space:   240 roots to seek:    60 dimension of matrix:          910
 Iteration     1 Dimension    60 NMult     0 NNew     60
 CISAX will form    60 AO SS matrices at one time.
 NMat=    60 NSing=    60 JSym2X= 0.
 New state      1 was old state      2
 New state      2 was old state      1
 New state      3 was old state      4
 New state      4 was old state      7
 New state      5 was old state      6
 New state      6 was old state      8
 New state      7 was old state     10
 New state      8 was old state      9
 New state      9 was old state      5
 New state     10 was old state     11
 New state     11 was old state     12
 New state     12 was old state     14
 New state     14 was old state     15
 New state     15 was old state     17
 Excitation Energies [eV] at current iteration:
 Root      1 :     7.520614355894446
 Root      2 :     8.001164046426371
 Root      3 :     8.372878447856431
 Root      4 :     9.010399230875839
 Root      5 :     9.250513102544884
 Root      6 :     9.601419754412575
 Root      7 :     9.763799295995421
 Root      8 :     9.949685686908010
 Root      9 :    10.148224781626740
 Root     10 :    10.317104673377140
 Root     11 :    10.421283694409250
 Root     12 :    10.522866390672080
 Root     13 :    10.733413629843680
 Root     14 :    10.905855637523600
 Root     15 :    10.964944640711410
 Root     16 :    11.096472271363550
 Root     17 :    11.165687949691360
 Root     18 :    11.350420981634160
 Root     19 :    11.410934624515740
 Root     20 :    11.559981439183890
 Root     21 :    11.833067915708680
 Root     22 :    11.947598691492030
 Root     23 :    12.278861280004610
 Root     24 :    12.687329907696060
 Root     25 :    12.761891540735850
 Root     26 :    13.003934154799540
 Root     27 :    13.237053798532810
 Root     28 :    13.555951516202620
 Root     29 :    13.572467341254320
 Root     30 :    13.799518930510340
 Root     31 :    13.876481505446260
 Root     32 :    13.958056785135990
 Root     33 :    13.973056268079670
 Root     34 :    14.004765044125650
 Root     35 :    14.100248685878190
 Root     36 :    14.279893908209890
 Root     37 :    14.466324277664030
 Root     38 :    14.635734452631070
 Root     39 :    14.680024472964560
 Root     40 :    14.705149017367310
 Root     41 :    14.780682594400280
 Root     42 :    15.056422016948720
 Root     43 :    15.166467993613300
 Root     44 :    15.178278746583250
 Root     45 :    15.306016759014990
 Root     46 :    15.389621337943820
 Root     47 :    15.477335511584680
 Root     48 :    15.652644135963640
 Root     49 :    15.718219950157540
 Root     50 :    15.753003718063810
 Root     51 :    15.810799137874800
 Root     52 :    15.945965442897080
 Root     53 :    15.978965382714970
 Root     54 :    16.011056122007300
 Root     55 :    16.116235536222120
 Root     56 :    16.237825705927530
 Root     57 :    16.832815198530270
 Root     58 :    17.084327051373680
 Root     59 :    17.588675701896840
 Root     60 :    19.551810689614700
 Iteration     2 Dimension   120 NMult    60 NNew     60
 CISAX will form    60 AO SS matrices at one time.
 NMat=    60 NSing=    60 JSym2X= 0.
 New state      1 was old state      2
 Root      1 not converged, maximum delta is    0.205357644299372
 New state      2 was old state      1
 Root      2 not converged, maximum delta is    0.275606727517867
 Root      3 not converged, maximum delta is    0.041946001348710
 Root      4 not converged, maximum delta is    0.015546051941387
 Root      5 not converged, maximum delta is    0.018262099843275
 Root      6 not converged, maximum delta is    0.311658822941312
 New state      7 was old state      9
 Root      7 not converged, maximum delta is    0.278313218153728
 New state      8 was old state      7
 Root      8 not converged, maximum delta is    0.077937193045359
 New state      9 was old state      8
 Root      9 not converged, maximum delta is    0.317474885680385
 New state     10 was old state     13
 Root     10 not converged, maximum delta is    0.506720024873949
 New state     11 was old state     10
 Root     11 not converged, maximum delta is    0.031875726448227
 New state     12 was old state     11
 Root     12 not converged, maximum delta is    0.095384759848233
 New state     13 was old state     12
 Root     13 not converged, maximum delta is    0.086889467957936
 Root     14 not converged, maximum delta is    0.400716807642026
 Root     15 not converged, maximum delta is    0.291000690720631
 Excitation Energies [eV] at current iteration:
 Root      1 :     7.249825803103125   Change is   -0.751338243323246
 Root      2 :     7.401060355995071   Change is   -0.119553999899376
 Root      3 :     8.362057220121665   Change is   -0.010821227734767
 Root      4 :     8.983604925109519   Change is   -0.026794305766319
 Root      5 :     9.226103683495506   Change is   -0.024409419049379
 Root      6 :     9.532711597193900   Change is   -0.068708157218674
 Root      7 :     9.658586852099527   Change is   -0.489637929527216
 Root      8 :     9.750382378437864   Change is   -0.013416917557557
 Root      9 :     9.933170329419699   Change is   -0.016515357488311
 Root     10 :     9.955545237839889   Change is   -0.777868392003794
 Root     11 :    10.300921161523850   Change is   -0.016183511853291
 Root     12 :    10.404797927878870   Change is   -0.016485766530384
 Root     13 :    10.501572762770690   Change is   -0.021293627901391
 Root     14 :    10.791551537949050   Change is   -0.114304099574554
 Root     15 :    10.905304891721050   Change is   -0.059639748990368
 Root     16 :    11.045202531125480   Change is   -0.051269740238071
 Root     17 :    11.149484238922570   Change is   -0.016203710768787
 Root     18 :    11.326555156945040   Change is   -0.023865824689120
 Root     19 :    11.383651046393800   Change is   -0.027283578121945
 Root     20 :    11.538389286251250   Change is   -0.021592152932635
 Root     21 :    11.742361520606000   Change is   -0.205237170886034
 Root     22 :    11.801648167129390   Change is   -0.031419748579291
 Root     23 :    12.233846830995880   Change is   -0.045014449008736
 Root     24 :    12.580222034405660   Change is   -0.181669506330192
 Root     25 :    12.663600142522840   Change is   -0.023729765173227
 Root     26 :    12.875923024054630   Change is   -0.361130774478185
 Root     27 :    12.965482533001300   Change is   -0.038451621798237
 Root     28 :    13.188470528317580   Change is   -0.383996812936737
 Root     29 :    13.356522249897270   Change is   -0.199429266305354
 Root     30 :    13.598245545997780   Change is   -0.201273384512560
 Root     31 :    13.796227813629530   Change is   -0.080253691816732
 Root     32 :    13.838196028988960   Change is   -0.166569015136694
 Root     33 :    13.921480470060430   Change is   -0.036576315075557
 Root     34 :    13.935006985403140   Change is   -0.038049282676533
 Root     35 :    14.067946938419320   Change is   -0.032301747458864
 Root     36 :    14.194758982869300   Change is   -0.085134925340590
 Root     37 :    14.425743695764940   Change is   -0.040580581899089
 Root     38 :    14.444187555017180   Change is   -0.191546897613885
 Root     39 :    14.544806467116570   Change is   -0.160342550250745
 Root     40 :    14.644680716668110   Change is   -0.411741300280612
 Root     41 :    14.655988004325800   Change is   -0.024036468638760
 Root     42 :    14.746359664010200   Change is   -0.034322930390079
 Root     43 :    15.028886348145400   Change is   -0.137581645467895
 Root     44 :    15.094799517751750   Change is   -0.211217241263245
 Root     45 :    15.134912770652040   Change is   -0.043365975931215
 Root     46 :    15.307200326964350   Change is   -0.082421010979467
 Root     47 :    15.356501127590250   Change is   -0.120834383994426
 Root     48 :    15.389197864320370   Change is   -0.421601273554430
 Root     49 :    15.549475158115720   Change is   -0.168744792041823
 Root     50 :    15.602687616406630   Change is   -0.049956519557006
 Root     51 :    15.679739182046280   Change is   -0.073264536017527
 Root     52 :    15.839172616742650   Change is   -0.106792826154430
 Root     53 :    15.874608010991700   Change is   -0.136448111015599
 Root     54 :    15.917315600752230   Change is   -0.061649781962730
 Root     55 :    15.955498449451360   Change is   -0.160737086770755
 Root     56 :    16.081025886645910   Change is   -0.751789311884359
 Root     57 :    16.135622133701470   Change is   -0.102203572226066
 Root     58 :    16.228159927674410   Change is   -0.856167123699265
 Root     59 :    16.684302321678060   Change is   -0.904373380218778
 Root     60 :    16.966094712990400   Change is   -2.585715976624308
 Iteration     3 Dimension   135 NMult   120 NNew     15
 CISAX will form    15 AO SS matrices at one time.
 NMat=    15 NSing=    15 JSym2X= 0.
 Root      1 not converged, maximum delta is    0.002421286335650
 Root      2 not converged, maximum delta is    0.001420073067387
 Root      3 not converged, maximum delta is    0.000169640362380
 Root      4 not converged, maximum delta is    0.000238607360706
 Root      5 not converged, maximum delta is    0.000232025903574
 Root      6 not converged, maximum delta is    0.003002748167546
 Root      7 not converged, maximum delta is    0.004031047515561
 Root      8 not converged, maximum delta is    0.001635846781996
 Root      9 not converged, maximum delta is    0.032399500583572
 Root     10 not converged, maximum delta is    0.036624812837716
 Root     11 not converged, maximum delta is    0.000403788663388
 Root     12 not converged, maximum delta is    0.000212837118510
 Root     13 not converged, maximum delta is    0.000417714976957
 Root     14 not converged, maximum delta is    0.000456936873353
 Root     15 not converged, maximum delta is    0.000200668840570
 Excitation Energies [eV] at current iteration:
 Root      1 :     7.248281972000180   Change is   -0.001543831102945
 Root      2 :     7.400128592037220   Change is   -0.000931763957851
 Root      3 :     8.362037197933393   Change is   -0.000020022188271
 Root      4 :     8.983575098851954   Change is   -0.000029826257566
 Root      5 :     9.226075758697158   Change is   -0.000027924798348
 Root      6 :     9.531972151309134   Change is   -0.000739445884768
 Root      7 :     9.657258587701799   Change is   -0.001328264397727
 Root      8 :     9.750316542155923   Change is   -0.000065836281942
 Root      9 :     9.931801001910449   Change is   -0.001369327509251
 Root     10 :     9.953225733001915   Change is   -0.002319504837974
 Root     11 :    10.300884592691730   Change is   -0.000036568832126
 Root     12 :    10.404769160642310   Change is   -0.000028767236559
 Root     13 :    10.501500745903540   Change is   -0.000072016867149
 Root     14 :    10.791449757675400   Change is   -0.000101780273645
 Root     15 :    10.905280449533170   Change is   -0.000024442187875
 Iteration     4 Dimension   150 NMult   135 NNew     15
 CISAX will form    15 AO SS matrices at one time.
 NMat=    15 NSing=    15 JSym2X= 0.
 Root      1 not converged, maximum delta is    0.000058403013927
 Root      2 not converged, maximum delta is    0.000041684229631
 Root      3 not converged, maximum delta is    0.000005380039227
 Root      4 not converged, maximum delta is    0.000004126747282
 Root      5 not converged, maximum delta is    0.000004273512881
 Root      6 not converged, maximum delta is    0.000042911412481
 Root      7 not converged, maximum delta is    0.000051330718578
 Root      8 not converged, maximum delta is    0.000010108298210
 Root      9 not converged, maximum delta is    0.000068910381418
 Root     10 not converged, maximum delta is    0.000086269736923
 Root     11 not converged, maximum delta is    0.000008608729930
 Root     12 not converged, maximum delta is    0.000007501196393
 Root     13 not converged, maximum delta is    0.000011682511053
 Root     14 not converged, maximum delta is    0.000017303090962
 Root     15 not converged, maximum delta is    0.000007003450922
 Excitation Energies [eV] at current iteration:
 Root      1 :     7.248280318441978   Change is   -0.000001653558202
 Root      2 :     7.400127433694692   Change is   -0.000001158342528
 Root      3 :     8.362037171616704   Change is   -0.000000026316690
 Root      4 :     8.983575079961817   Change is   -0.000000018890137
 Root      5 :     9.226075731661613   Change is   -0.000000027035545
 Root      6 :     9.531971114240193   Change is   -0.000001037068940
 Root      7 :     9.657256753482306   Change is   -0.000001834219492
 Root      8 :     9.750316464937940   Change is   -0.000000077217983
 Root      9 :     9.931798674624215   Change is   -0.000002327286233
 Root     10 :     9.953222391469557   Change is   -0.000003341532357
 Root     11 :    10.300884565856680   Change is   -0.000000026835048
 Root     12 :    10.404769123919400   Change is   -0.000000036722911
 Root     13 :    10.501500643403090   Change is   -0.000000102500444
 Root     14 :    10.791449619864700   Change is   -0.000000137810703
 Root     15 :    10.905280421513360   Change is   -0.000000028019808
 Iteration     5 Dimension   165 NMult   150 NNew     15
 CISAX will form    15 AO SS matrices at one time.
 NMat=    15 NSing=    15 JSym2X= 0.
 Root      1 not converged, maximum delta is    0.000001841035052
 Root      2 not converged, maximum delta is    0.000001123726084
 Root      3 has converged.
 Root      4 has converged.
 Root      5 has converged.
 Root      6 not converged, maximum delta is    0.000001775707297
 Root      7 not converged, maximum delta is    0.000002069528125
 Root      8 has converged.
 Root      9 not converged, maximum delta is    0.000002440941170
 Root     10 not converged, maximum delta is    0.000002969925228
 Root     11 not converged, maximum delta is    0.000001005761392
 Root     12 has converged.
 Root     13 has converged.
 Root     14 has converged.
 Root     15 has converged.
 Excitation Energies [eV] at current iteration:
 Root      1 :     7.248280316925424   Change is   -0.000000001516555
 Root      2 :     7.400127432735076   Change is   -0.000000000959616
 Root      3 :     8.362037171593595   Change is   -0.000000000023108
 Root      4 :     8.983575079948780   Change is   -0.000000000013037
 Root      5 :     9.226075731640075   Change is   -0.000000000021539
 Root      6 :     9.531971113367272   Change is   -0.000000000872922
 Root      7 :     9.657256751718318   Change is   -0.000000001763988
 Root      8 :     9.750316464863948   Change is   -0.000000000073992
 Root      9 :     9.931798672083570   Change is   -0.000000002540645
 Root     10 :     9.953222387684782   Change is   -0.000000003784776
 Root     11 :    10.300884565836960   Change is   -0.000000000019716
 Root     12 :    10.404769123872000   Change is   -0.000000000047404
 Root     13 :    10.501500643281610   Change is   -0.000000000121482
 Root     14 :    10.791449619700240   Change is   -0.000000000164452
 Root     15 :    10.905280421478390   Change is   -0.000000000034975
 Iteration     6 Dimension   171 NMult   165 NNew      6
 CISAX will form     6 AO SS matrices at one time.
 NMat=     6 NSing=     6 JSym2X= 0.
 Root      1 has converged.
 Root      2 has converged.
 Root      3 has converged.
 Root      4 has converged.
 Root      5 has converged.
 Root      6 has converged.
 Root      7 has converged.
 Root      8 has converged.
 Root      9 has converged.
 Root     10 has converged.
 Root     11 has converged.
 Root     12 has converged.
 Root     13 has converged.
 Root     14 has converged.
 Root     15 has converged.
 Excitation Energies [eV] at current iteration:
 Root      1 :     7.248280316924871   Change is   -0.000000000000553
 Root      2 :     7.400127432734813   Change is   -0.000000000000263
 Root      3 :     8.362037171593581   Change is   -0.000000000000015
 Root      4 :     8.983575079948750   Change is   -0.000000000000029
 Root      5 :     9.226075731640055   Change is   -0.000000000000020
 Root      6 :     9.531971113366767   Change is   -0.000000000000505
 Root      7 :     9.657256751717055   Change is   -0.000000000001264
 Root      8 :     9.750316464863898   Change is   -0.000000000000048
 Root      9 :     9.931798672081355   Change is   -0.000000000002216
 Root     10 :     9.953222387681240   Change is   -0.000000000003541
 Root     11 :    10.300884565836960   Change is   -0.000000000000003
 Root     12 :    10.404769123871980   Change is   -0.000000000000018
 Root     13 :    10.501500643281540   Change is   -0.000000000000074
 Root     14 :    10.791449619700070   Change is   -0.000000000000177
 Root     15 :    10.905280421478360   Change is   -0.000000000000023
 Convergence achieved on expansion vectors.
 ***********************************************************************
 Excited states from <AA,BB:AA,BB> singles matrix:
 ***********************************************************************
 
 1PDM for each excited state written to RWF  633
 Ground to excited state transition densities written to RWF  633
 Ground to excited state transition electric dipole moments (Au):
       state          X           Y           Z        Dip. S.      Osc.
         1        -0.9926     -0.2814      0.0142      1.0646      0.1891
         2         0.2817     -0.0215      0.0052      0.0798      0.0145
         3        -0.0505      0.0740     -0.0175      0.0083      0.0017
         4         0.0177     -0.0675     -0.1472      0.0265      0.0058
         5        -0.0519      0.0301      0.0760      0.0094      0.0021
         6        -0.3894     -0.2829     -0.0580      0.2350      0.0549
         7         0.2873      0.6874      0.0349      0.5563      0.1316
         8        -0.0269     -0.1464      0.1014      0.0324      0.0077
         9         0.4944     -0.6920     -0.0269      0.7240      0.1762
        10        -0.4940      0.9460      0.0065      1.1390      0.2777
        11        -0.0456     -0.0416      0.0020      0.0038      0.0010
        12         0.0356      0.1050     -0.0523      0.0150      0.0038
        13         0.0781     -0.0682      0.0262      0.0114      0.0029
        14         0.0878     -0.1344      0.1875      0.0609      0.0161
        15         0.0386     -0.0642      0.0489      0.0080      0.0021
 Ground to excited state transition velocity dipole moments (Au):
       state          X           Y           Z        Dip. S.      Osc.
         1         0.0140     -0.0133      0.0016      0.0004      0.0009
         2         0.0147     -0.0556      0.0020      0.0033      0.0081
         3         0.0003      0.0039      0.0002      0.0000      0.0000
         4         0.0005      0.0010      0.0771      0.0059      0.0120
         5         0.0085      0.0044     -0.0225      0.0006      0.0012
         6         0.0467      0.0211     -0.0123      0.0028      0.0053
         7        -0.0545     -0.0252     -0.0163      0.0039      0.0073
         8         0.0097      0.0074     -0.0432      0.0020      0.0038
         9        -0.0303      0.0042      0.0121      0.0011      0.0020
        10         0.0257     -0.0149      0.0218      0.0014      0.0025
        11         0.0101      0.0058     -0.0314      0.0011      0.0020
        12        -0.0093     -0.0100     -0.0433      0.0021      0.0036
        13        -0.0103     -0.0013      0.0002      0.0001      0.0002
        14        -0.0078      0.0023      0.0094      0.0002      0.0003
        15        -0.0070      0.0086     -0.0257      0.0008      0.0013
 Ground to excited state transition magnetic dipole moments (Au):
       state          X           Y           Z
         1        -0.0262     -0.0077     -0.5604
         2        -0.0238     -0.0396      0.1316
         3         0.2978     -0.4852     -0.0282
         4        -1.5845     -0.3037      0.0186
         5        -0.1090      0.0058      0.0448
         6        -0.0022     -0.0701      0.1957
         7        -0.1651     -0.0290     -0.1874
         8         0.2277     -0.0611     -0.0161
         9         0.0512     -0.0665     -0.1375
        10         0.0290     -0.0380      0.1365
        11        -0.0591     -0.2436     -0.0383
        12         0.0424     -0.0219     -0.0052
        13         0.0239     -0.4474     -0.0328
        14        -0.0791      0.1620     -0.0494
        15        -0.0830      1.0021     -0.0481
 Ground to excited state transition velocity quadrupole moments (Au):
       state          XX          YY          ZZ          XY          XZ          YZ
         1         0.0645     -0.1299      0.0172     -0.1681      0.0026     -0.0014
         2        -0.0661      0.0299      0.0284      0.0623      0.0027     -0.0018
         3         0.0161     -0.0281     -0.0053     -0.0137      0.0328      0.0178
         4        -0.0216      0.0133      0.0056      0.0089      0.0358     -0.2160
         5        -0.0082      0.0079     -0.0051      0.0074      0.1493      0.0828
         6        -0.1451      0.1615      0.0015      0.1708     -0.0190     -0.0631
         7         0.2294     -0.2285     -0.0231     -0.1350     -0.0336     -0.0731
         8        -0.0659      0.0449      0.0097      0.0169     -0.0440      0.0188
         9        -0.0767      0.0425      0.0422     -0.1991      0.1063     -0.0544
        10         0.1762     -0.1231     -0.0516      0.1930      0.0750     -0.0230
        11        -0.0038      0.0224     -0.0020      0.0117      0.0377     -0.1011
        12         0.0410     -0.0279     -0.0057     -0.0093     -0.0515      0.0310
        13         0.0024     -0.0085      0.0081     -0.0489     -0.0095      0.0157
        14        -0.0224      0.0290      0.0019     -0.0376     -0.0350      0.0499
        15        -0.0002      0.0041     -0.0034     -0.0183     -0.1557     -0.0365
 <0|del|b> * <b|rxdel|0> + <0|del|b> * <b|delr+rdel|0>
 Rotatory Strengths (R) in cgs (10**-40 erg-esu-cm/Gauss)
       state          XX          YY          ZZ    R(velocity)    E-M Angle
         1        -1.3904     -1.3582     -0.3701     -1.0396       96.22
         2         3.5730     -0.3049      2.2515      1.8399       74.65
         3        -2.3588      0.1126     -1.9478     -1.3980      143.86
         4         1.8997     -0.2069     -1.0580      0.2116       89.86
         5        -1.8847     -1.1102     -0.9826     -1.3258      131.41
         6        -5.6319     -3.3907      0.9695     -2.6844      111.34
         7         5.1349     13.7969      6.5692      8.5003       35.16
         8        -0.1608      3.7803      1.2447      1.6214       76.58
         9        -4.6395      0.8138     -2.9309     -2.2522      131.23
        10         8.5639     -1.0405      0.7568      2.7601       36.45
        11        -0.7438     -0.0514     -0.7168     -0.5040       95.47
        12         0.3041     -0.7957      0.5810      0.0298       90.00
        13         0.5031     -0.3702      0.4599      0.1976       86.01
        14        -0.3277      0.1061      1.1618      0.3134       76.92
        15        10.3194      1.4165      6.7315      6.1558       68.19
 1/2[<0|r|b>*<b|rxdel|0> + (<0|rxdel|b>*<b|r|0>)*]
 Rotatory Strengths (R) in cgs (10**-40 erg-esu-cm/Gauss)
       state          XX          YY          ZZ     R(length)
         1       -18.4079     -1.5264      5.6192     -4.7717
         2         4.7307     -0.6036     -0.4796      1.2158
         3        10.6272     25.3781     -0.3492     11.8854
         4        19.8164    -14.4973      1.9362      2.4184
         5        -4.0023     -0.1237     -2.4088     -2.1783
         6        -0.6141    -14.0269      8.0224     -2.2062
         7        33.5430     14.0995      4.6221     17.4215
         8         4.3370     -6.3190      1.1546     -0.2758
         9       -17.8877    -32.5237     -2.6145    -17.6753
        10        10.1237     25.4437     -0.6284     11.6463
        11        -1.9082     -7.1725      0.0546     -3.0087
        12        -1.0656      1.6257     -0.1909      0.1231
        13        -1.3187    -21.5637      0.6064     -7.4253
        14         4.9125     15.4010      6.5458      8.9531
        15         2.2639     45.4731      1.6650     16.4674
  1/2[<0|del|b>*<b|r|0> + (<0|r|b>*<b|del|0>)*] (Au)
       state          X           Y           Z        Dip. S.   Osc.(frdel)
         1        -0.0139      0.0037      0.0000      0.0101      0.0067
         2         0.0041      0.0012      0.0000     -0.0053     -0.0036
         3         0.0000      0.0003      0.0000     -0.0003     -0.0002
         4         0.0000     -0.0001     -0.0113      0.0114      0.0076
         5        -0.0004      0.0001     -0.0017      0.0020      0.0013
         6        -0.0182     -0.0060      0.0007      0.0235      0.0156
         7        -0.0157     -0.0173     -0.0006      0.0336      0.0224
         8        -0.0003     -0.0011     -0.0044      0.0057      0.0038
         9        -0.0150     -0.0029     -0.0003      0.0182      0.0121
        10        -0.0127     -0.0141      0.0001      0.0267      0.0178
        11        -0.0005     -0.0002     -0.0001      0.0008      0.0005
        12        -0.0003     -0.0011      0.0023     -0.0009     -0.0006
        13        -0.0008      0.0001      0.0000      0.0007      0.0005
        14        -0.0007     -0.0003      0.0018     -0.0008     -0.0005
        15        -0.0003     -0.0006     -0.0013      0.0021      0.0014

 Excitation energies and oscillator strengths:
 
 Excited State   1:      Singlet-A      7.2483 eV  171.05 nm  f=0.1891  <S**2>=0.000
      17 -> 19         0.15952
      18 -> 19         0.65895
 This state for optimization and/or second-order correction.
 Total Energy, E(CIS) =  -228.477427582    
 Copying the excited state density for this state as the 1-particle RhoCI density.
 
 Excited State   2:      Singlet-A      7.4001 eV  167.54 nm  f=0.0145  <S**2>=0.000
      17 -> 19         0.49774
      18 -> 19        -0.18071
      18 -> 20         0.45559
 
 Excited State   3:      Singlet-A      8.3620 eV  148.27 nm  f=0.0017  <S**2>=0.000
      18 -> 21         0.69474
 
 Excited State   4:      Singlet-A      8.9836 eV  138.01 nm  f=0.0058  <S**2>=0.000
      16 -> 19         0.69543
 
 Excited State   5:      Singlet-A      9.2261 eV  134.38 nm  f=0.0021  <S**2>=0.000
      17 -> 21         0.10963
      18 -> 22         0.67061
      18 -> 23        -0.13569
 
 Excited State   6:      Singlet-A      9.5320 eV  130.07 nm  f=0.0549  <S**2>=0.000
      17 -> 20         0.47812
      17 -> 21         0.46814
      18 -> 22        -0.11660
 
 Excited State   7:      Singlet-A      9.6573 eV  128.38 nm  f=0.1316  <S**2>=0.000
      17 -> 19        -0.19376
      17 -> 20        -0.39061
      17 -> 21         0.42623
      18 -> 20         0.21398
      18 -> 23        -0.18279
 
 Excited State   8:      Singlet-A      9.7503 eV  127.16 nm  f=0.0077  <S**2>=0.000
      15 -> 19         0.66008
      18 -> 23        -0.19167
 
 Excited State   9:      Singlet-A      9.9318 eV  124.84 nm  f=0.1762  <S**2>=0.000
      15 -> 19         0.14624
      17 -> 19         0.21985
      17 -> 20        -0.21318
      17 -> 21         0.25467
      18 -> 20        -0.26026
      18 -> 23         0.44487
 
 Excited State  10:      Singlet-A      9.9532 eV  124.57 nm  f=0.2777  <S**2>=0.000
      15 -> 19         0.16210
      17 -> 19        -0.28498
      17 -> 20         0.18152
      18 -> 20         0.33566
      18 -> 23         0.42788
 
 Excited State  11:      Singlet-A     10.3009 eV  120.36 nm  f=0.0010  <S**2>=0.000
      14 -> 19         0.11701
      17 -> 22         0.10579
      18 -> 24         0.66555
      18 -> 25        -0.11402
 
 Excited State  12:      Singlet-A     10.4048 eV  119.16 nm  f=0.0038  <S**2>=0.000
      14 -> 19         0.13893
      17 -> 22         0.65494
      18 -> 24        -0.14432
 
 Excited State  13:      Singlet-A     10.5015 eV  118.06 nm  f=0.0029  <S**2>=0.000
      13 -> 19        -0.10622
      14 -> 19         0.59124
      16 -> 20         0.26521
      17 -> 22        -0.16882
      18 -> 24        -0.10649
 
 Excited State  14:      Singlet-A     10.7914 eV  114.89 nm  f=0.0161  <S**2>=0.000
      14 -> 19         0.11605
      18 -> 25         0.66683
 
 Excited State  15:      Singlet-A     10.9053 eV  113.69 nm  f=0.0021  <S**2>=0.000
      13 -> 19         0.53858
      14 -> 19        -0.10265
      16 -> 20         0.43114
 SavETr:  write IOETrn=   770 NScale= 10 NData=  16 NLR=1 NState=   15 LETran=     280.
 The selected state is a singlet
 CISAX will form     1 AO SS matrices at one time.
 NMat=     1 NSing=     1 JSym2X= 0.
 CISAX will form     1 AO SS matrices at one time.
 NMat=     1 NSing=     1 JSym2X= 0.
 Leave Link  914 at Fri Dec 11 13:18:42 2015, MaxMem=    33554432 cpu:        25.0
 (Enter /home/Applications/g09/g09/l1002.exe)
 Minotr:  Closed shell wavefunction.
          Computing CIS/TD-HF/TD-KS derivatives.
          Using Z-Vector for PSCF gradient.
          Skipping F1 and S1 gradient terms here.
          IDoAtm=111111111
          Frozen-core window.
          Direct CPHF calculation.
          Differentiating once with respect to electric field.
                with respect to dipole field.
          Differentiating once with respect to nuclear coordinates.
          Requested convergence is 1.0D-10 RMS, and 1.0D-09 maximum.
          NewPWx=F KeepS1=T KeepF1=T KeepIn=T MapXYZ=F SortEE=F KeepMc=T.
          MDV=      33554290 using IRadAn=       0.
 Using stored XC quadrature information.
 Keep R1 ints in memory in canonical form, NReq=1898913.
 FoFCou: FMM=F IPFlag=           0 FMFlag=           0 FMFlg1=           0
         NFxFlg=           0 DoJE=F BraDBF=F KetDBF=F FulRan=T
         wScrn=  0.000000 ICntrl=     600 IOpCl=  0 I1Cent=           0 NGrid=           0
         NMat0=    1 NMatS0=   1431 NMatT0=    0 NMatD0=    1 NMtDS0=    0 NMtDT0=    0
 Symmetry not used in FoFCou.
          Solving linear equations separately, MaxMat=       0.
          There are     1 degrees of freedom in the 1st order CPHF.  IDoFFX=0 NUNeed=     1.
 LinEq1:  Iter=  0 NonCon=     1 RMS=3.21D-02 Max=3.69D-01 NDo=     1
 AX will form     1 AO Fock derivatives at one time.
 LinEq1:  Iter=  1 NonCon=     1 RMS=2.42D-02 Max=4.83D-01 NDo=     1
 LinEq1:  Iter=  2 NonCon=     1 RMS=1.75D-02 Max=2.90D-01 NDo=     1
 LinEq1:  Iter=  3 NonCon=     1 RMS=4.71D-03 Max=4.00D-02 NDo=     1
 LinEq1:  Iter=  4 NonCon=     1 RMS=3.29D-03 Max=3.91D-02 NDo=     1
 LinEq1:  Iter=  5 NonCon=     1 RMS=1.07D-03 Max=1.45D-02 NDo=     1
 LinEq1:  Iter=  6 NonCon=     1 RMS=5.28D-04 Max=4.21D-03 NDo=     1
 LinEq1:  Iter=  7 NonCon=     1 RMS=2.70D-04 Max=2.61D-03 NDo=     1
 LinEq1:  Iter=  8 NonCon=     1 RMS=1.01D-04 Max=6.79D-04 NDo=     1
 LinEq1:  Iter=  9 NonCon=     1 RMS=1.67D-05 Max=1.26D-04 NDo=     1
 LinEq1:  Iter= 10 NonCon=     1 RMS=1.54D-06 Max=9.66D-06 NDo=     1
 LinEq1:  Iter= 11 NonCon=     1 RMS=1.89D-07 Max=1.11D-06 NDo=     1
 LinEq1:  Iter= 12 NonCon=     1 RMS=2.62D-08 Max=1.87D-07 NDo=     1
 LinEq1:  Iter= 13 NonCon=     1 RMS=4.48D-09 Max=3.58D-08 NDo=     1
 LinEq1:  Iter= 14 NonCon=     1 RMS=4.07D-10 Max=2.23D-09 NDo=     1
 LinEq1:  Iter= 15 NonCon=     0 RMS=3.92D-11 Max=2.81D-10 NDo=     1
 Linear equations converged to 1.000D-10 1.000D-09 after    15 iterations.
 End of Minotr F.D. properties file   721 does not exist.
 End of Minotr F.D. properties file   722 does not exist.
 End of Minotr F.D. properties file   788 does not exist.
 Leave Link 1002 at Fri Dec 11 13:18:53 2015, MaxMem=    33554432 cpu:        11.1
 (Enter /home/Applications/g09/g09/l601.exe)
 Copying SCF densities to generalized density rwf, IOpCl= 0 IROHF=0.

 **********************************************************************

            Population analysis using the SCF density.

 **********************************************************************

 Orbital symmetries:
       Occupied  (A) (A) (A) (A) (A) (A) (A) (A) (A) (A) (A) (A)
                 (A) (A) (A) (A) (A) (A)
       Virtual   (A) (A) (A) (A) (A) (A) (A) (A) (A) (A) (A) (A)
                 (A) (A) (A) (A) (A) (A) (A) (A) (A) (A) (A) (A)
                 (A) (A) (A) (A) (A) (A) (A) (A) (A) (A) (A)
 The electronic state is 1-A.
 Alpha  occ. eigenvalues --  -19.11081 -10.17532 -10.17221 -10.13255 -10.12300
 Alpha  occ. eigenvalues --   -1.11388  -0.81443  -0.74498  -0.59663  -0.57271
 Alpha  occ. eigenvalues --   -0.54120  -0.44221  -0.43769  -0.42302  -0.39358
 Alpha  occ. eigenvalues --   -0.36858  -0.28126  -0.23616
 Alpha virt. eigenvalues --    0.01987   0.08426   0.11962   0.14678   0.17547
 Alpha virt. eigenvalues --    0.18096   0.20414   0.23244   0.35810   0.42676
 Alpha virt. eigenvalues --    0.46384   0.67672   0.69846   0.70370   0.75693
 Alpha virt. eigenvalues --    0.76691   0.79047   0.80269   0.82402   0.83834
 Alpha virt. eigenvalues --    0.94012   0.97331   1.00228   1.03257   1.18978
 Alpha virt. eigenvalues --    1.21369   1.33556   1.37261   1.50280   1.56563
 Alpha virt. eigenvalues --    1.63347   1.73413   1.94247   2.13655   3.16240
     Molecular Orbital Coefficients:
                           1         2         3         4         5
                           O         O         O         O         O
     Eigenvalues --   -19.11081 -10.17532 -10.17221 -10.13255 -10.12300
   1 1   C  1S          0.00015  -0.00889  -0.00090  -0.06149   0.98409
   2        2S          0.00071  -0.00578  -0.00023  -0.01060   0.11011
   3        2PX         0.00098   0.00035  -0.00025  -0.00120   0.00163
   4        2PY         0.00088   0.00330   0.00068   0.00022  -0.00146
   5        2PZ        -0.00005   0.00003  -0.00002   0.00001   0.00008
   6        3S         -0.00350   0.04032  -0.01676   0.04053  -0.10501
   7        3PX        -0.00823   0.00309  -0.00769   0.02271  -0.02535
   8        3PY         0.00450  -0.02148   0.00977  -0.00427   0.02273
   9        3PZ         0.00027  -0.00013   0.00025   0.00001  -0.00029
  10 2   C  1S         -0.00042   0.98313   0.06743  -0.00026   0.00854
  11        2S         -0.00046   0.10682   0.00392  -0.00061  -0.00433
  12        2PX         0.00232   0.00261  -0.00077   0.00032  -0.00014
  13        2PY        -0.00108   0.00081  -0.00070  -0.00084  -0.00282
  14        2PZ         0.00005   0.00010   0.00007  -0.00003   0.00002
  15        3S          0.01795  -0.07812   0.01470  -0.00935   0.04540
  16        3PX         0.01515  -0.00446   0.01308  -0.00204   0.00922
  17        3PY         0.00145  -0.02116   0.01460  -0.00203   0.02504
  18        3PZ         0.00035  -0.00026  -0.00023   0.00016   0.00021
  19 3   O  1S          0.98276   0.00026   0.00018   0.00008   0.00009
  20        2S          0.10749   0.00181   0.00169   0.00040   0.00045
  21        2PX        -0.00138  -0.00072   0.00045   0.00002   0.00004
  22        2PY         0.00409   0.00040   0.00111  -0.00008  -0.00001
  23        2PZ        -0.00017  -0.00004  -0.00007  -0.00002   0.00000
  24        3S         -0.05957  -0.00082   0.00061  -0.00370  -0.00393
  25        3PX         0.00481   0.00188   0.00116  -0.00135   0.00238
  26        3PY        -0.01304  -0.00272  -0.00310  -0.00218  -0.00186
  27        3PZ         0.00050   0.00020   0.00029   0.00008   0.00007
  28 4   C  1S         -0.00053  -0.06860   0.98305   0.01344   0.00119
  29        2S         -0.00101  -0.01074   0.10633  -0.00328  -0.00054
  30        2PX        -0.00116   0.00140  -0.00198   0.00163   0.00044
  31        2PY        -0.00194  -0.00022  -0.00076  -0.00175  -0.00117
  32        2PZ         0.00002   0.00001   0.00010  -0.00006   0.00000
  33        3S          0.01631   0.02111  -0.07576   0.03948  -0.00575
  34        3PX        -0.01401  -0.02087   0.01478  -0.02176   0.00396
  35        3PY        -0.00394   0.00694  -0.01263   0.01401   0.00081
  36        3PZ         0.00051   0.00019  -0.00052   0.00048  -0.00011
  37 5   C  1S          0.00018   0.00054  -0.01386   0.98409   0.06100
  38        2S          0.00081   0.00015  -0.00602   0.10983   0.00305
  39        2PX        -0.00133   0.00003  -0.00206  -0.00077   0.00078
  40        2PY         0.00030   0.00035   0.00214  -0.00212   0.00047
  41        2PZ         0.00002   0.00000   0.00003  -0.00015  -0.00002
  42        3S         -0.00547  -0.01916   0.03885  -0.10419   0.03164
  43        3PX         0.00227  -0.00221   0.00827   0.00964  -0.01653
  44        3PY         0.00869   0.01108  -0.01793   0.03027  -0.01248
  45        3PZ        -0.00016   0.00032  -0.00042   0.00111  -0.00026
  46 6   H  1S         -0.00098  -0.00027  -0.00099  -0.00277  -0.00041
  47        2S         -0.00288  -0.00097   0.00193   0.00427   0.00402
  48 7   H  1S          0.00026   0.00176  -0.00408  -0.00021  -0.00026
  49        2S          0.00387   0.00765   0.00912   0.00605  -0.00027
  50 8   H  1S         -0.00004  -0.00312   0.00113   0.00013  -0.00031
  51        2S          0.00285   0.00770   0.00766   0.00068   0.00510
  52 9   H  1S         -0.00110  -0.00101  -0.00074  -0.00004  -0.00386
  53        2S         -0.00361   0.00221  -0.00247   0.00395   0.00410
                           6         7         8         9        10
                           O         O         O         O         O
     Eigenvalues --    -1.11388  -0.81443  -0.74498  -0.59663  -0.57271
   1 1   C  1S         -0.02895   0.15066   0.07406   0.09688   0.05284
   2        2S          0.02904  -0.16210  -0.08093  -0.09795  -0.05129
   3        2PX         0.01960  -0.07568   0.03813   0.10627  -0.08905
   4        2PY        -0.03013   0.05365   0.08904   0.04935  -0.16123
   5        2PZ         0.00043  -0.00193  -0.00084  -0.00260  -0.00513
   6        3S          0.03949  -0.30161  -0.14521  -0.34910  -0.18672
   7        3PX         0.03813  -0.03217  -0.00884   0.01280  -0.04119
   8        3PY        -0.02238   0.02825  -0.01169   0.04787  -0.04741
   9        3PZ        -0.00088  -0.00176  -0.00147  -0.00182  -0.00315
  10 2   C  1S         -0.08103   0.06223   0.13980  -0.01810  -0.11080
  11        2S          0.08973  -0.07320  -0.15095   0.01458   0.12233
  12        2PX         0.09239   0.02664  -0.01045   0.10349  -0.11687
  13        2PY        -0.01155  -0.14023  -0.01592  -0.19464  -0.03522
  14        2PZ         0.00251  -0.00018  -0.00349   0.00269  -0.00071
  15        3S          0.07000  -0.09214  -0.34985   0.11070   0.35355
  16        3PX        -0.03344  -0.00368  -0.00803   0.05134  -0.07315
  17        3PY        -0.01065  -0.03673  -0.04040  -0.03984  -0.00426
  18        3PZ        -0.00014   0.00005  -0.00126   0.00123   0.00041
  19 3   O  1S         -0.20918  -0.09226   0.00028   0.00741   0.05350
  20        2S          0.19047   0.08874  -0.00070  -0.00570  -0.05361
  21        2PX        -0.03952  -0.00003   0.17721  -0.25812  -0.03902
  22        2PY         0.10572  -0.01789   0.04852  -0.05521  -0.00782
  23        2PZ        -0.00405  -0.00126   0.00049  -0.00068  -0.00188
  24        3S          0.66569   0.33250  -0.00221  -0.02869  -0.22630
  25        3PX        -0.04712  -0.00389   0.14535  -0.22397  -0.03409
  26        3PY         0.13527   0.00057   0.04142  -0.05101  -0.01254
  27        3PZ        -0.00535  -0.00124   0.00025  -0.00046  -0.00206
  28 4   C  1S         -0.06900   0.05301  -0.15214   0.03023  -0.10397
  29        2S          0.07793  -0.06249   0.16307  -0.02635   0.11509
  30        2PX        -0.06494   0.04670  -0.02082  -0.05669   0.14035
  31        2PY        -0.04574  -0.10478   0.01435   0.21429   0.05883
  32        2PZ         0.00185  -0.00060   0.00334  -0.00085  -0.00164
  33        3S          0.06064  -0.07272   0.38040  -0.14990   0.31998
  34        3PX         0.03511   0.01851  -0.03748   0.00396   0.07276
  35        3PY        -0.00278  -0.02449   0.02903   0.07359   0.04198
  36        3PZ        -0.00088  -0.00064   0.00194  -0.00111  -0.00106
  37 5   C  1S         -0.02887   0.13940  -0.08053  -0.10796   0.04765
  38        2S          0.02777  -0.14963   0.08735   0.11010  -0.04708
  39        2PX        -0.00067   0.04528   0.08719   0.08853   0.16751
  40        2PY        -0.03458   0.07508  -0.05814   0.00633  -0.06707
  41        2PZ        -0.00062   0.00394  -0.00242  -0.00455  -0.00014
  42        3S          0.05080  -0.27756   0.16081   0.37778  -0.15940
  43        3PX        -0.01080   0.01031  -0.01377   0.02450   0.06567
  44        3PY        -0.04407   0.03928   0.00132  -0.03523  -0.01722
  45        3PZ         0.00018   0.00285  -0.00101  -0.00384   0.00046
  46 6   H  1S          0.00680  -0.04648   0.03756   0.09458  -0.03834
  47        2S          0.01397  -0.01181   0.00974   0.05748  -0.02452
  48 7   H  1S          0.01352  -0.01570   0.09355  -0.06749   0.15968
  49        2S         -0.02061  -0.00384   0.03509  -0.04527   0.07901
  50 8   H  1S          0.01485  -0.01458  -0.07741   0.03884   0.14275
  51        2S         -0.01622  -0.00321  -0.02948   0.03184   0.07314
  52 9   H  1S          0.00798  -0.05704  -0.03804  -0.10189  -0.05714
  53        2S          0.01580  -0.01176  -0.00726  -0.05963  -0.03566
                          11        12        13        14        15
                           O         O         O         O         O
     Eigenvalues --    -0.54120  -0.44221  -0.43769  -0.42302  -0.39358
   1 1   C  1S         -0.04380   0.00564   0.03814   0.00930   0.01043
   2        2S          0.03876  -0.00654  -0.04226  -0.00531  -0.00966
   3        2PX        -0.11952  -0.03098  -0.03529   0.22381  -0.25540
   4        2PY         0.18979   0.00725  -0.05130  -0.19414  -0.16090
   5        2PZ         0.00718   0.12681  -0.02416   0.00377  -0.00348
   6        3S          0.21610  -0.02126  -0.11358  -0.02886  -0.07710
   7        3PX        -0.07634  -0.02561  -0.01601   0.17115  -0.16056
   8        3PY         0.08225   0.00429  -0.04774  -0.11613  -0.05576
   9        3PZ         0.00531   0.08869  -0.01735   0.00283  -0.00083
  10 2   C  1S          0.01142   0.00216  -0.02142  -0.03383  -0.01360
  11        2S         -0.01423  -0.00352   0.01984   0.04080   0.02017
  12        2PX        -0.10545  -0.04383  -0.26372  -0.00294   0.09918
  13        2PY        -0.14815  -0.01670  -0.03416   0.15082   0.20130
  14        2PZ         0.00239   0.20147  -0.03556   0.02250   0.00063
  15        3S         -0.02250  -0.00139   0.07647   0.10376   0.06274
  16        3PX        -0.07075  -0.02945  -0.17205   0.00843   0.06725
  17        3PY        -0.14158  -0.01189  -0.04933   0.06481   0.18394
  18        3PZ         0.00132   0.18903  -0.03090   0.02387   0.00033
  19 3   O  1S         -0.04806  -0.00299  -0.01201  -0.00977  -0.00713
  20        2S          0.04710   0.00262   0.01051   0.01100   0.00208
  21        2PX         0.01135   0.02655   0.26890   0.08354  -0.04950
  22        2PY        -0.17177   0.01052   0.02015  -0.06111   0.12370
  23        2PZ         0.00342   0.36067  -0.04962   0.05066   0.00048
  24        3S          0.18566   0.01292   0.04666   0.02954   0.06172
  25        3PX         0.01009   0.02492   0.25452   0.08799  -0.05092
  26        3PY        -0.15597   0.01055   0.01760  -0.06240   0.13073
  27        3PZ         0.00360   0.36231  -0.05024   0.05183  -0.00028
  28 4   C  1S          0.00207  -0.00092   0.02058   0.04293   0.01369
  29        2S         -0.00455   0.00185  -0.02308  -0.05227  -0.01454
  30        2PX         0.17244  -0.05358  -0.25231   0.17820  -0.02076
  31        2PY        -0.01857   0.02096  -0.03547  -0.16166   0.03266
  32        2PZ        -0.00175   0.17829  -0.01806   0.01785   0.00151
  33        3S          0.01860   0.00149  -0.05189  -0.14842  -0.03397
  34        3PX         0.12428  -0.03153  -0.17449   0.12834  -0.02887
  35        3PY        -0.04819   0.01171  -0.03884  -0.12299   0.05578
  36        3PZ        -0.00033   0.17037  -0.01911   0.02002   0.00155
  37 5   C  1S         -0.04403  -0.00436  -0.04042  -0.02368   0.01638
  38        2S          0.04153   0.00467   0.04343   0.01979  -0.02075
  39        2PX         0.00632   0.02965   0.07635  -0.13146   0.27934
  40        2PY         0.19286  -0.02863   0.02868   0.22042   0.18624
  41        2PZ         0.00047   0.11934  -0.01881   0.01137  -0.00089
  42        3S          0.18513   0.01538   0.13960   0.11484  -0.06868
  43        3PX         0.02947   0.00835   0.04844  -0.02972   0.18491
  44        3PY         0.11822  -0.02129   0.04793   0.13092   0.15100
  45        3PZ        -0.00166   0.08871  -0.01463   0.00804  -0.00076
  46 6   H  1S          0.12338  -0.00772   0.07753   0.13278   0.17617
  47        2S          0.07030  -0.00425   0.05250   0.11741   0.17252
  48 7   H  1S          0.08736  -0.03800  -0.19423   0.08527  -0.04496
  49        2S          0.03759  -0.03160  -0.14954   0.07445  -0.03433
  50 8   H  1S          0.07650   0.02665   0.16539  -0.02297  -0.14220
  51        2S          0.03246   0.02094   0.13220  -0.02821  -0.13250
  52 9   H  1S          0.14515   0.01598  -0.04978  -0.21451   0.06528
  53        2S          0.08548   0.01126  -0.03143  -0.18279   0.05779
                          16        17        18        19        20
                           O         O         O         V         V
     Eigenvalues --    -0.36858  -0.28126  -0.23616   0.01987   0.08426
   1 1   C  1S          0.02692  -0.00228  -0.00198  -0.00540   0.00849
   2        2S         -0.02687   0.00293   0.00143   0.00663  -0.00578
   3        2PX         0.01870  -0.00295  -0.00138   0.00229   0.02489
   4        2PY         0.15707   0.01766   0.00889   0.00346  -0.01560
   5        2PZ         0.01358  -0.28133  -0.19961  -0.14316   0.34618
   6        3S         -0.18955  -0.00366   0.01309   0.02584  -0.06936
   7        3PX         0.04123  -0.00485   0.00140  -0.01596   0.07613
   8        3PY         0.13559   0.01536   0.00847   0.02235  -0.05760
   9        3PZ         0.01020  -0.29459  -0.21038  -0.24998   0.70274
  10 2   C  1S         -0.02636   0.00105  -0.00228   0.00309  -0.00562
  11        2S          0.02889  -0.00190   0.00259  -0.00142   0.00704
  12        2PX         0.04894   0.00017   0.00787  -0.00121   0.02379
  13        2PY        -0.17559  -0.00860  -0.00550   0.00128  -0.00258
  14        2PZ         0.01016  -0.06773  -0.31297   0.30997  -0.24256
  15        3S          0.12886   0.00198   0.01060  -0.01562   0.00775
  16        3PX        -0.02114  -0.00191   0.00353   0.00239   0.03554
  17        3PY         0.01628   0.00210  -0.00452   0.01081  -0.02929
  18        3PZ         0.00713  -0.01944  -0.32395   0.46602  -0.47758
  19 3   O  1S          0.07328  -0.00016   0.00058  -0.00065   0.00570
  20        2S         -0.07412  -0.00009  -0.00056   0.00092  -0.00436
  21        2PX        -0.05964  -0.00712  -0.00407   0.00006   0.01568
  22        2PY         0.40552   0.01792   0.00357   0.00073  -0.01294
  23        2PZ        -0.00594   0.32836   0.00668  -0.28155   0.03170
  24        3S         -0.27846   0.00321  -0.00224   0.00452  -0.04348
  25        3PX        -0.06750  -0.00788  -0.00611   0.00121   0.02665
  26        3PY         0.43382   0.01961   0.00361   0.00154  -0.01906
  27        3PZ        -0.00744   0.36916   0.01045  -0.38770   0.04686
  28 4   C  1S         -0.01464  -0.00177   0.00194   0.00181   0.00271
  29        2S          0.01669   0.00175  -0.00273   0.00151  -0.00111
  30        2PX         0.00316  -0.00187   0.00928   0.00545  -0.00378
  31        2PY        -0.21501  -0.00024   0.00013   0.00236   0.00067
  32        2PZ         0.00344  -0.07236   0.33295   0.32827   0.19670
  33        3S          0.07203   0.00920  -0.00287  -0.03252  -0.04508
  34        3PX        -0.03044  -0.00206   0.00391   0.02376  -0.00448
  35        3PY        -0.03074   0.00652   0.00389  -0.00485  -0.00732
  36        3PZ         0.00285  -0.02773   0.35526   0.50249   0.39673
  37 5   C  1S          0.01491   0.00464  -0.00146   0.00204   0.00964
  38        2S         -0.01681  -0.00573   0.00191  -0.00172  -0.00421
  39        2PX        -0.10601  -0.00288   0.00125   0.00339  -0.00572
  40        2PY         0.15420   0.00182  -0.00035  -0.00463  -0.02111
  41        2PZ         0.00962  -0.27933   0.19818  -0.20846  -0.32006
  42        3S         -0.10482  -0.01769  -0.00042   0.00255  -0.11054
  43        3PX        -0.11442  -0.01142   0.00048   0.00623  -0.00152
  44        3PY         0.09930  -0.00123   0.00502  -0.02112  -0.05041
  45        3PZ         0.01049  -0.28713   0.20962  -0.35904  -0.64479
  46 6   H  1S          0.06709  -0.00050  -0.00373   0.00224   0.01927
  47        2S          0.09010   0.00094  -0.00587   0.00871   0.11430
  48 7   H  1S          0.04990   0.00202   0.00293   0.00117   0.00364
  49        2S          0.05509   0.00199   0.00520  -0.00303   0.03620
  50 8   H  1S          0.09854   0.00322  -0.00297   0.00440   0.00077
  51        2S          0.10078   0.00535  -0.00510   0.01506   0.01417
  52 9   H  1S          0.03001   0.00320  -0.00034  -0.00603   0.02439
  53        2S          0.05046   0.00634   0.00112  -0.03062   0.13603
                          21        22        23        24        25
                           V         V         V         V         V
     Eigenvalues --     0.11962   0.14678   0.17547   0.18096   0.20414
   1 1   C  1S          0.04444  -0.01940   0.01323   0.11030  -0.01565
   2        2S         -0.02470   0.02457  -0.01425  -0.09384  -0.00393
   3        2PX         0.09599   0.07684  -0.12692   0.09339   0.16530
   4        2PY        -0.10540  -0.02167   0.02513  -0.11741   0.13210
   5        2PZ        -0.04782   0.00079   0.00645  -0.02244  -0.01297
   6        3S         -0.54461   0.00036  -0.01002  -1.01421   0.28700
   7        3PX         0.27638   0.13301  -0.39407   0.71098   0.86760
   8        3PY        -0.31397   0.04855  -0.03150  -0.63722   0.57877
   9        3PZ        -0.12138   0.01110   0.01454  -0.06479  -0.03068
  10 2   C  1S          0.01509   0.09470   0.01242  -0.05753  -0.10951
  11        2S         -0.00894  -0.06381  -0.01449   0.05936   0.07273
  12        2PX         0.15100   0.08286  -0.22357   0.04182  -0.01398
  13        2PY         0.02131   0.18041  -0.07369  -0.00432  -0.11505
  14        2PZ         0.02824  -0.00923  -0.00515   0.01341   0.01424
  15        3S         -0.32727  -0.97959   0.04643   0.26831   1.40340
  16        3PX         0.33856   0.34709  -0.63019  -0.19401  -0.22703
  17        3PY        -0.03520   0.65542  -0.22155  -0.16411  -0.19409
  18        3PZ         0.06704  -0.02132  -0.01058   0.03943   0.03873
  19 3   O  1S          0.05403  -0.08233  -0.02929   0.01575  -0.01956
  20        2S         -0.03709   0.05945   0.02146  -0.00954   0.00824
  21        2PX         0.00543   0.05771  -0.08339   0.08340   0.28147
  22        2PY        -0.15011   0.15089   0.02794  -0.00508   0.08560
  23        2PZ        -0.00039  -0.00316  -0.00313  -0.00275  -0.00207
  24        3S         -0.44597   0.66974   0.24301  -0.14147   0.20321
  25        3PX         0.02044   0.10003  -0.16224   0.09112   0.52768
  26        3PY        -0.26173   0.23861   0.03963  -0.03131   0.19776
  27        3PZ         0.00073  -0.00667  -0.00597  -0.00622  -0.00498
  28 4   C  1S         -0.00473   0.10376   0.07394   0.05172   0.06217
  29        2S          0.00951  -0.07948  -0.04590  -0.05633  -0.05211
  30        2PX        -0.13448   0.05784  -0.26804   0.00008   0.07495
  31        2PY        -0.09799   0.19581   0.01900  -0.03070   0.21647
  32        2PZ        -0.01496  -0.00775   0.00288   0.00030  -0.01235
  33        3S         -0.19279  -0.93129  -1.03858  -0.35968  -0.60620
  34        3PX        -0.21696  -0.07084  -0.99704  -0.33164   0.14596
  35        3PY        -0.23474   0.49494   0.11876  -0.16438   0.51783
  36        3PZ        -0.04081  -0.01167   0.01147   0.00810  -0.03782
  37 5   C  1S          0.06368  -0.00111  -0.03383  -0.10167   0.07772
  38        2S         -0.04269   0.01382   0.03628   0.08244  -0.02409
  39        2PX        -0.03683   0.04144  -0.08414   0.03842   0.06843
  40        2PY        -0.19541   0.00991  -0.11521   0.12767  -0.09858
  41        2PZ         0.04019   0.00331  -0.00485  -0.00538   0.01659
  42        3S         -0.66435  -0.13909   0.12614   0.87711  -1.29733
  43        3PX        -0.14499   0.21573  -0.27504   0.27590   0.53342
  44        3PY        -0.56100   0.12957  -0.15297   0.74250  -0.21402
  45        3PZ         0.09573   0.00906  -0.00913  -0.00411   0.05660
  46 6   H  1S          0.11722  -0.03646   0.01641  -0.05313  -0.03817
  47        2S          1.13712  -0.20666   0.25865  -1.22576   0.51158
  48 7   H  1S          0.02096   0.05202   0.08669   0.02307  -0.03080
  49        2S          0.34394   0.71921   1.74028   0.49346   0.24216
  50 8   H  1S          0.03059   0.10959  -0.03767  -0.02504   0.02240
  51        2S          0.46109   1.37467  -0.72952  -0.39958  -0.93460
  52 9   H  1S          0.09179   0.00021  -0.03208   0.07148   0.02349
  53        2S          0.90490   0.09983  -0.39772   1.55794   0.25360
                          26        27        28        29        30
                           V         V         V         V         V
     Eigenvalues --     0.23244   0.35810   0.42676   0.46384   0.67672
   1 1   C  1S         -0.07901  -0.06557  -0.03142  -0.12732   0.00664
   2        2S          0.02307   0.02269   0.02900   0.01419  -0.10651
   3        2PX        -0.11741   0.08593   0.23213   0.13353   0.25204
   4        2PY         0.07296  -0.07025   0.14129  -0.19860   0.46255
   5        2PZ         0.00635  -0.00637   0.00791  -0.01448   0.00788
   6        3S          1.53608   1.36293   0.20274   3.59356  -0.26149
   7        3PX        -0.18589   0.03786   1.46367   1.86230  -0.23994
   8        3PY         0.22707  -1.37323   1.30655  -2.05985  -0.28335
   9        3PZ         0.03652  -0.02361   0.04182  -0.01754  -0.00464
  10 2   C  1S         -0.02695   0.07089   0.00594   0.09880  -0.04471
  11        2S          0.02317  -0.00585   0.00515  -0.01769  -0.04300
  12        2PX         0.26344  -0.04495  -0.18803  -0.24117   0.38430
  13        2PY        -0.09115  -0.25701   0.14794   0.02040  -0.30490
  14        2PZ         0.00446  -0.00322  -0.00639   0.00187  -0.00076
  15        3S          0.03998  -1.57685   0.56542  -2.54153   0.10526
  16        3PX         0.84815  -0.36934  -1.00791  -0.57405  -0.30134
  17        3PY        -0.43098  -1.28446   1.10195  -2.30102   0.74091
  18        3PZ         0.00270  -0.01324  -0.02543  -0.00439   0.00575
  19 3   O  1S          0.08728  -0.03992  -0.01942  -0.00148   0.02060
  20        2S         -0.04324   0.01977   0.00831   0.00067  -0.08708
  21        2PX         0.13173  -0.00621  -0.27921  -0.10760   0.06300
  22        2PY        -0.04921   0.16295  -0.05258   0.00287  -0.22200
  23        2PZ         0.01012   0.00052   0.00231   0.00033   0.00187
  24        3S         -0.90285   0.48306   0.25936   0.00011   0.29589
  25        3PX         0.30026  -0.03551  -0.66090  -0.09661   0.01571
  26        3PY        -0.18979   0.44956  -0.09364   0.05318  -0.07625
  27        3PZ         0.02239  -0.00009  -0.00074  -0.00289  -0.00569
  28 4   C  1S          0.05119   0.08854   0.00961  -0.08618  -0.04394
  29        2S         -0.03024  -0.01112   0.01047   0.02190  -0.03926
  30        2PX        -0.13039   0.22261  -0.05895  -0.20112  -0.16572
  31        2PY        -0.11719  -0.13974  -0.21263  -0.17639  -0.32591
[...]
     1  C    5.278877   0.432596  -0.077602  -0.135883   0.428450  -0.025652
     2  C    0.432596   5.099231   0.303623  -0.157811  -0.146018   0.005590
     3  O   -0.077602   0.303623   8.087771   0.278444  -0.072190   0.001728
     4  C   -0.135883  -0.157811   0.278444   5.114990   0.477457  -0.028015
     5  C    0.428450  -0.146018  -0.072190   0.477457   5.243327   0.371824
     6  H   -0.025652   0.005590   0.001728  -0.028015   0.371824   0.491168
     7  H    0.002893   0.003634  -0.023430   0.390488  -0.038602  -0.000495
     8  H   -0.042717   0.384050  -0.030385   0.004733   0.003993  -0.000036
     9  H    0.385274  -0.026754   0.001649   0.004377  -0.024721  -0.001135
               7          8          9
     1  C    0.002893  -0.042717   0.385274
     2  C    0.003634   0.384050  -0.026754
     3  O   -0.023430  -0.030385   0.001649
     4  C    0.390488   0.004733   0.004377
     5  C   -0.038602   0.003993  -0.024721
     6  H   -0.000495  -0.000036  -0.001135
     7  H    0.447630  -0.000065  -0.000027
     8  H   -0.000065   0.471766  -0.000782
     9  H   -0.000027  -0.000782   0.468270
 Mulliken charges:
               1
     1  C   -0.246237
     2  C    0.101858
     3  O   -0.469608
     4  C    0.051219
     5  C   -0.243520
     6  H    0.185024
     7  H    0.217973
     8  H    0.209442
     9  H    0.193849
 Sum of Mulliken charges =   0.00000
 Mulliken charges with hydrogens summed into heavy atoms:
               1
     1  C   -0.052388
     2  C    0.311300
     3  O   -0.469608
     4  C    0.269193
     5  C   -0.058496
 Electronic spatial extent (au):  <R**2>=            291.4514
 Charge=              0.0000 electrons
 Dipole moment (field-independent basis, Debye):
    X=             -0.2145    Y=              0.8767    Z=             -0.0035  Tot=              0.9026
 Quadrupole moment (field-independent basis, Debye-Ang):
   XX=            -23.9496   YY=            -27.8970   ZZ=            -31.7817
   XY=              0.9903   XZ=             -0.1938   YZ=              0.0573
 Traceless Quadrupole moment (field-independent basis, Debye-Ang):
   XX=              3.9265   YY=             -0.0209   ZZ=             -3.9056
   XY=              0.9903   XZ=             -0.1938   YZ=              0.0573
 Octapole moment (field-independent basis, Debye-Ang**2):
  XXX=              3.4537  YYY=              1.3724  ZZZ=              0.1736  XYY=             -2.6392
  XXY=             -2.5814  XXZ=              0.1395  XZZ=              0.7962  YZZ=             -3.3827
  YYZ=              0.0205  XYZ=             -0.1847
 Hexadecapole moment (field-independent basis, Debye-Ang**3):
 XXXX=           -153.4822 YYYY=           -156.1288 ZZZZ=            -30.8059 XXXY=             -4.6540
 XXXZ=             -0.7400 YYYX=              5.0026 YYYZ=             -0.1452 ZZZX=             -0.1639
 ZZZY=             -0.1223 XXYY=            -48.7622 XXZZ=            -38.8234 YYZZ=            -35.0688
 XXYZ=              0.1943 YYXZ=             -0.4295 ZZXY=             -1.0721
 N-N= 1.605069442102D+02 E-N=-8.536124749117D+02  KE= 2.268814419550D+02
 Orbital energies and kinetic energies (alpha):
                                 1                 2
   1         O               -19.110815         28.829887
   2         O               -10.175317         15.800230
   3         O               -10.172208         15.800036
   4         O               -10.132549         15.806759
   5         O               -10.123003         15.804642
   6         O                -1.113879          2.487851
   7         O                -0.814428          1.830229
   8         O                -0.744976          1.774013
   9         O                -0.596634          1.674714
  10         O                -0.572711          1.459993
  11         O                -0.541197          1.233890
  12         O                -0.442207          1.537563
  13         O                -0.437693          1.549222
  14         O                -0.423024          1.376548
  15         O                -0.393580          1.374068
  16         O                -0.368583          2.270813
  17         O                -0.281256          1.606285
  18         O                -0.236164          1.223978
  19         V                 0.019869          1.809118
  20         V                 0.084259          1.498752
  21         V                 0.119621          1.312278
  22         V                 0.146783          1.729095
  23         V                 0.175474          1.262515
  24         V                 0.180963          1.371298
  25         V                 0.204141          2.021892
  26         V                 0.232437          1.771230
  27         V                 0.358105          1.921200
  28         V                 0.426761          2.081611
  29         V                 0.463837          2.271820
  30         V                 0.676724          2.535923
  31         V                 0.698458          2.527076
  32         V                 0.703702          2.691307
  33         V                 0.756931          2.567329
  34         V                 0.766912          2.491770
  35         V                 0.790467          2.602193
  36         V                 0.802685          2.592056
  37         V                 0.824021          2.665680
  38         V                 0.838338          2.600525
  39         V                 0.940121          2.823485
  40         V                 0.973306          3.061249
  41         V                 1.002285          3.341722
  42         V                 1.032566          3.204186
  43         V                 1.189777          2.748191
  44         V                 1.213695          2.896270
  45         V                 1.335556          2.567371
  46         V                 1.372608          2.875347
  47         V                 1.502797          4.935760
  48         V                 1.565634          3.333836
  49         V                 1.633473          3.841342
  50         V                 1.734126          4.323509
  51         V                 1.942467          4.168391
  52         V                 2.136552          4.161979
  53         V                 3.162401          6.824303
 Total kinetic energy from orbitals= 2.268814419550D+02
 No NMR shielding tensors so no spin-rotation constants.
 Leave Link  601 at Fri Dec 11 13:18:53 2015, MaxMem=    33554432 cpu:         0.1
 (Enter /home/Applications/g09/g09/l701.exe)
 Compute integral first derivatives.
 ... and contract with generalized density number  6.
 Leave Link  701 at Fri Dec 11 13:18:53 2015, MaxMem=    33554432 cpu:         0.1
 (Enter /home/Applications/g09/g09/l702.exe)
 L702 exits ... SP integral derivatives will be done elsewhere.
 Leave Link  702 at Fri Dec 11 13:18:53 2015, MaxMem=    33554432 cpu:         0.0
 (Enter /home/Applications/g09/g09/l703.exe)
 Compute integral first derivatives, UseDBF=F ICtDFT=           0.
 Integral derivatives from FoFJK, PRISM(SPDF).
 Calling FoFJK, ICntrl=  10005127 FMM=F ISym2X=0 I1Cent= 0 IOpClX= 0 NMat=1 NMatS=1 NMatT=0.
 FoFJK:  IHMeth= 1 ICntrl=10005127 DoSepK=F KAlg= 0 I1Cent=   0 FoldK=F
 IRaf=         0 NMat=   1 IRICut=       1 DoRegI=T DoRafI=F ISym2E= 0.
 FoFCou: FMM=F IPFlag=           0 FMFlag=      100000 FMFlg1=         800
         NFxFlg=           0 DoJE=F BraDBF=F KetDBF=F FulRan=T
         wScrn=  0.000000 ICntrl=10005127 IOpCl=  0 I1Cent=           0 NGrid=           0
         NMat0=    1 NMatS0=      1 NMatT0=    0 NMatD0=    1 NMtDS0=    0 NMtDT0=    0
 Symmetry not used in FoFCou.
 Leave Link  703 at Fri Dec 11 13:18:55 2015, MaxMem=    33554432 cpu:         1.6
 (Enter /home/Applications/g09/g09/l716.exe)
 Dipole        =-5.07677948D-01 2.45202436D-01 6.78047118D-03
 ***** Axes restored to original set *****
 -------------------------------------------------------------------
 Center     Atomic                   Forces (Hartrees/Bohr)
 Number     Number              X              Y              Z
 -------------------------------------------------------------------
      1        6           0.096324191    0.057649014   -0.004767624
      2        6          -0.104725500   -0.099733668    0.004253610
      3        8          -0.073738330   -0.017663211   -0.002601758
      4        6          -0.019873949    0.044354381    0.001831193
      5        6           0.128996264    0.006282035   -0.000080986
      6        1          -0.027458612   -0.021983765   -0.001469693
      7        1          -0.009872206    0.019405869    0.000800309
      8        1           0.011209979    0.013473715    0.000208977
      9        1          -0.000861837   -0.001784370    0.001825972
 -------------------------------------------------------------------
 Cartesian Forces:  Max     0.128996264 RMS     0.047292111
 Z-matrix is all fixed cartesians, so copy forces.
 Force constants in Cartesian coordinates: 
                1             2             3             4             5 
      1  0.101168D+01
      2 -0.253399D-01  0.793017D+00
      3 -0.192434D-01 -0.954721D-02  0.226247D+00
      4 -0.597222D+00 -0.112157D+00  0.845692D-02  0.103432D+01
      5 -0.885500D-01 -0.223240D+00  0.407347D-02  0.124006D-01  0.844364D+00
      6  0.320126D-02  0.327419D-02 -0.118570D+00  0.542859D-02 -0.200000D-01
      7 -0.729805D-02  0.290124D-01 -0.184291D-02 -0.308053D+00  0.171594D+00
      8 -0.606400D-02  0.241595D-01 -0.798271D-03  0.214509D+00 -0.351359D+00
      9 -0.385975D-04  0.169237D-03  0.783484D-02 -0.143072D-01  0.144429D-01
     10  0.112179D-01  0.780898D-04 -0.231615D-03  0.221637D-01  0.184607D-01
     11  0.342595D-01  0.208097D-03 -0.132835D-02 -0.168149D-01 -0.140111D-01
     12 -0.210555D-02 -0.127105D-03 -0.141152D-02  0.130292D-02  0.104273D-02
     13 -0.165135D+00  0.146411D-01  0.148431D-02  0.901032D-02 -0.358475D-01
     14 -0.101388D-01 -0.402527D+00  0.140968D-01  0.612856D-04 -0.241816D-03
     15  0.176285D-02  0.136034D-01 -0.810035D-01 -0.459755D-04  0.683435D-03
     16  0.163442D-01  0.129683D-03  0.194684D-03  0.000000D+00 -0.630650D-05
     17 -0.220716D-01 -0.189963D-03 -0.675278D-03  0.000000D+00  0.497787D-05
     18  0.197631D-02  0.604493D-03  0.163898D-01  0.196511D-04  0.139677D-03
     19  0.574612D-05  0.685408D-05  0.189313D-03  0.141754D-05  0.000000D+00
     20  0.460561D-05  0.549366D-05  0.151737D-03  0.000000D+00  0.000000D+00
     21  0.229339D-03  0.273561D-03  0.755586D-02 -0.121126D-03  0.688294D-04
     22  0.662064D-02 -0.264150D-01  0.623921D-04 -0.155662D+00 -0.963392D-01
     23 -0.347037D-02  0.138554D-01  0.133623D-03 -0.918312D-01 -0.280148D+00
     24  0.593975D-03 -0.513880D-03  0.330097D-01 -0.129868D-02  0.140990D-03
     25 -0.276214D+00  0.120043D+00  0.109303D-01 -0.455672D-02  0.182883D-01
     26  0.121371D+00 -0.205288D+00 -0.610652D-02 -0.616840D-02  0.246310D-01
     27  0.136238D-01 -0.773672D-02 -0.900511D-01  0.564927D-03 -0.592022D-03
                6             7             8             9            10 
      6  0.210259D+00
      7 -0.121012D-01  0.532271D+00
      8  0.150924D-01 -0.445947D-01  0.627986D+00
      9 -0.484790D-01  0.161895D-01 -0.131254D-01  0.526958D-01
     10  0.359292D-03 -0.249623D+00 -0.171225D+00 -0.324576D-02  0.910606D+00
     11 -0.443147D-03 -0.128411D+00 -0.304810D+00 -0.189179D-02 -0.865375D-01
     12 -0.186247D-02 -0.321335D-02 -0.220293D-02 -0.421933D-01 -0.498519D-02
     13  0.179274D-02 -0.910125D-02  0.689559D-02  0.510427D-03 -0.513155D+00
     14  0.179838D-03 -0.276756D-01  0.209666D-01  0.904159D-03  0.118758D+00
     15  0.107291D-02 -0.441026D-03 -0.665802D-05  0.450407D-02  0.883062D-02
     16 -0.175106D-03  0.000000D+00  0.000000D+00  0.436290D-04 -0.545444D-02
     17  0.138215D-03 -0.277726D-05  0.360258D-05 -0.214606D-03  0.732777D-02
     18  0.387827D-02  0.800313D-04 -0.103814D-03  0.618424D-02  0.850667D-03
     19 -0.386098D-04  0.215853D-01 -0.163687D-01  0.335011D-03 -0.175771D+00
     20  0.626410D-05  0.106807D-01 -0.809974D-02  0.211912D-03  0.113137D+00
     21  0.329913D-02  0.383817D-03 -0.332922D-03  0.600820D-02 -0.154404D-02
     22 -0.343283D-03  0.202190D-01  0.168380D-01  0.300057D-03  0.544190D-05
     23  0.144773D-02 -0.106027D-01 -0.882847D-02 -0.133270D-03 -0.365733D-05
     24 -0.791561D-01  0.936497D-03  0.102552D-02  0.479156D-02 -0.159211D-03
     25  0.187635D-02  0.000000D+00  0.111246D-04  0.212942D-03  0.103994D-04
     26  0.304459D-03  0.000000D+00 -0.189683D-04 -0.363082D-03  0.458354D-05
     27  0.295588D-01  0.865647D-05  0.452084D-03  0.865357D-02  0.125231D-03
               11            12            13            14            15 
     11  0.866476D+00
     12  0.110171D-02  0.194673D+00
     13  0.964847D-01  0.104831D-01  0.883181D+00
     14 -0.223851D+00 -0.213471D-02 -0.130501D-01  0.766782D+00
     15 -0.228230D-02 -0.103512D+00 -0.648520D-02 -0.910716D-02  0.198031D+00
     16 -0.165688D-01 -0.569297D-03 -0.230827D+00 -0.950562D-01 -0.325910D-02
     17  0.222955D-01  0.120975D-03 -0.967410D-01 -0.174577D+00 -0.137569D-02
     18  0.114863D-02  0.256418D-01 -0.575290D-02 -0.318147D-02 -0.738551D-01
     19  0.117579D+00 -0.110700D-02  0.886018D-02  0.269778D-01 -0.206276D-03
     20 -0.346315D+00  0.194871D-02  0.438311D-02  0.133328D-01  0.130470D-03
     21  0.345540D-02 -0.797987D-01  0.245628D-04 -0.162413D-02  0.302435D-01
     22 -0.309234D-05 -0.148222D-03  0.000000D+00  0.409580D-05  0.113724D-03
     23  0.207826D-05  0.996150D-04  0.000000D+00  0.000000D+00 -0.208642D-04
     24  0.904713D-04  0.433646D-02  0.390091D-04  0.277271D-03  0.769871D-02
     25  0.124046D-04  0.342620D-03  0.171653D-01  0.119142D-03 -0.269621D-03
     26  0.546733D-05  0.151010D-03  0.232342D-01  0.115944D-03 -0.162465D-02
     27  0.149378D-03  0.412589D-02 -0.209601D-02  0.589409D-03  0.168201D-01
               16            17            18            19            20 
     16  0.219918D+00
     17  0.111494D+00  0.152462D+00
     18  0.358323D-02  0.182650D-02  0.386310D-01
     19 -0.196286D-05  0.965510D-05 -0.278228D-03  0.145320D+00
     20 -0.157327D-05  0.773873D-05 -0.223004D-03 -0.128204D+00  0.341068D+00
     21 -0.783419D-04  0.385355D-03 -0.111047D-01  0.110579D-02 -0.222609D-02
     22  0.000000D+00  0.000000D+00  0.000000D+00  0.000000D+00  0.000000D+00
     23  0.000000D+00  0.000000D+00  0.000000D+00  0.000000D+00  0.000000D+00
     24  0.000000D+00  0.000000D+00  0.000000D+00  0.000000D+00  0.000000D+00
     25  0.216164D-04 -0.170623D-04 -0.478762D-03  0.000000D+00  0.000000D+00
     26  0.952743D-05 -0.752023D-05 -0.211015D-03  0.000000D+00  0.000000D+00
     27  0.260308D-03 -0.205467D-03 -0.576534D-02  0.000000D+00  0.000000D+00
               21            22            23            24            25 
     21  0.437967D-01
     22  0.000000D+00  0.128821D+00
     23  0.000000D+00  0.105907D+00  0.275121D+00
     24  0.000000D+00  0.205952D-03 -0.156180D-02  0.422240D-01
     25  0.000000D+00 -0.469068D-05  0.000000D+00 -0.317543D-03  0.263578D+00
     26  0.000000D+00  0.799795D-05 -0.146733D-05  0.541433D-03 -0.138458D+00
     27  0.000000D+00 -0.190620D-03  0.349719D-04 -0.129043D-01 -0.122963D-01
               26            27 
     26  0.180563D+00
     27  0.730836D-02  0.495624D-01
 Leave Link  716 at Fri Dec 11 13:18:55 2015, MaxMem=    33554432 cpu:         0.0
 (Enter /home/Applications/g09/g09/l103.exe)

 GradGradGradGradGradGradGradGradGradGradGradGradGradGradGradGradGradGrad
 Berny optimization.
 Search for a local minimum.
 Step number   1 out of a maximum of    2
 All quantities printed in internal units (Hartrees-Bohrs-Radians)
 Second derivative matrix not updated -- first step.
 ITU=  0
     Eigenvalues ---    0.01966   0.02772   0.06782   0.07344   0.07713
     Eigenvalues ---    0.08213   0.12916   0.13306   0.15725   0.22231
     Eigenvalues ---    0.25638   0.31622   0.40912   0.41358   0.62537
     Eigenvalues ---    0.77990   1.05199   1.29209   1.34444   1.58066
     Eigenvalues ---    1.75257
 Quadratic step=3.727D-01 exceeds max=3.000D-01 adjusted using Lamda=-5.602D-02.
 Angle between NR and scaled steps=  12.25 degrees.
 Angle between quadratic step and forces=  34.77 degrees.
 Linear search not attempted -- first point.
 TrRot= -0.006994 -0.000839 -0.002169  0.813422 -0.000464 -0.813366
 Variable       Old X    -DE/DX   Delta X   Delta X   Delta X     New X
                                 (Linear)    (Quad)   (Total)
    X1        1.80840   0.09632   0.00000   0.05676   0.04983   1.85823
    Y1       -1.43447   0.05765   0.00000   0.05965   0.05891  -1.37556
    Z1        0.04780  -0.00477   0.00000  -0.00711  -0.00914   0.03866
    X2       -0.60863  -0.10473   0.00000  -0.09462  -0.10152  -0.71015
    Y2       -2.04019  -0.09973   0.00000  -0.09693  -0.09783  -2.13803
    Z2        0.08186   0.00425   0.00000   0.00226  -0.00085   0.08101
    X3       -2.25422  -0.07374   0.00000  -0.13573  -0.14271  -2.39692
    Y3       -0.06236  -0.01766   0.00000  -0.04072  -0.04168  -0.10404
    Z3       -0.01982  -0.00260   0.00000  -0.00564  -0.00861  -0.02843
    X4       -0.63624  -0.01987   0.00000   0.01026   0.00315  -0.63309
    Y4        2.07155   0.04435   0.00000   0.03732   0.03645   2.10800
    Z4       -0.00494   0.00183   0.00000   0.00256   0.00090  -0.00404
    X5        1.78806   0.12900   0.00000   0.15538   0.14832   1.93639
    Y5        1.27501   0.00628   0.00000   0.04624   0.04553   1.32054
    Z5       -0.04968  -0.00008   0.00000  -0.00326  -0.00437  -0.05405
    X6        3.50727  -0.02746   0.00000   0.05532   0.04819   3.55546
    Y6        2.55098  -0.02198   0.00000  -0.02239  -0.02302   2.52796
    Z6       -0.01753  -0.00147   0.00000  -0.00710  -0.00728  -0.02481
    X7       -1.51257  -0.00987   0.00000  -0.01621  -0.02342  -1.53599
    Y7        3.84307   0.01941   0.00000   0.07294   0.07202   3.91509
    Z7       -0.01856   0.00080   0.00000   0.01292   0.01158  -0.00697
    X8       -1.57926   0.01121   0.00000  -0.00061  -0.00741  -1.58667
    Y8       -3.89032   0.01347   0.00000  -0.07458  -0.07554  -3.96586
    Z8        0.09118   0.00021   0.00000   0.00913   0.00512   0.09630
    X9        3.43528  -0.00086   0.00000   0.03240   0.02557   3.46084
    Y9       -2.64459  -0.00178   0.00000   0.02580   0.02517  -2.61942
    Z9       -0.04301   0.00183   0.00000   0.01459   0.01265  -0.03036
         Item               Value     Threshold  Converged?
 Maximum Force            0.128996     0.000450     NO 
 RMS     Force            0.047292     0.000300     NO 
 Maximum Displacement     0.148324     0.001800     NO 
 RMS     Displacement     0.057584     0.001200     NO 
 Predicted change in Energy=-3.280638D-02
 GradGradGradGradGradGradGradGradGradGradGradGradGradGradGradGradGradGrad

 Leave Link  103 at Fri Dec 11 13:18:55 2015, MaxMem=    33554432 cpu:         0.0
 (Enter /home/Applications/g09/g09/l9999.exe)
 1\1\GINC-DUSTIN-DESKTOP\Force\RB3LYP-FC\3-21G\C4H4O1\DUSTIN\11-Dec-201
 5\0\\#P B3LYP/3-21G CIS(Singlets,NStates=15) pop(full) force\\FuranDFT
 \\0,1\C,0.956964,-0.759088,0.025294\C,-0.322072,-1.079623,0.043319\O,-
 1.19288,-0.033001,-0.010488\C,-0.336686,1.096219,-0.002612\C,0.946202,
 0.674706,-0.02629\H,1.855969,1.349918,-0.009277\H,-0.800417,2.033663,-
 0.009819\H,-0.835706,-2.05867,0.048253\H,1.81787,-1.399457,-0.022759\\
 Version=ES64L-G09RevD.01\State=1-A\HF=-228.743797\RMSD=3.668e-09\RMSF=
 4.729e-02\Dipole=0.3763296,-0.4198608,0.0002072\PG=C01 [X(C4H4O1)]\\@


 THE FIRST AND LAST THING REQUIRED OF GENIUS IS THE LOVE OF TRUTH.

                          -- GOETHE
 Job cpu time:       0 days  0 hours  0 minutes 41.7 seconds.
 File lengths (MBytes):  RWF=     14 Int=      0 D2E=      0 Chk=      3 Scr=      1
 Normal termination of Gaussian 09 at Fri Dec 11 13:18:55 2015.
