 Entering Gaussian System, Link 0=g09
 Input=FuranAM1_71.com
 Output=FuranAM1_71.log
 Initial command:
 /home/Applications/g09/g09/l1.exe "/home/Applications/g09/scratch/Gau-6172.inp" -scrdir="/home/Applications/g09/scratch/"
 Entering Link 1 = /home/Applications/g09/g09/l1.exe PID=      6174.
  
 Copyright (c) 1988,1990,1992,1993,1995,1998,2003,2009,2013,
            Gaussian, Inc.  All Rights Reserved.
  
 This is part of the Gaussian(R) 09 program.  It is based on
 the Gaussian(R) 03 system (copyright 2003, Gaussian, Inc.),
 the Gaussian(R) 98 system (copyright 1998, Gaussian, Inc.),
 the Gaussian(R) 94 system (copyright 1995, Gaussian, Inc.),
 the Gaussian 92(TM) system (copyright 1992, Gaussian, Inc.),
 the Gaussian 90(TM) system (copyright 1990, Gaussian, Inc.),
 the Gaussian 88(TM) system (copyright 1988, Gaussian, Inc.),
 the Gaussian 86(TM) system (copyright 1986, Carnegie Mellon
 University), and the Gaussian 82(TM) system (copyright 1983,
 Carnegie Mellon University). Gaussian is a federally registered
 trademark of Gaussian, Inc.
  
 This software contains proprietary and confidential information,
 including trade secrets, belonging to Gaussian, Inc.
  
 This software is provided under written license and may be
 used, copied, transmitted, or stored only in accord with that
 written license.
  
 The following legend is applicable only to US Government
 contracts under FAR:
  
                    RESTRICTED RIGHTS LEGEND
  
 Use, reproduction and disclosure by the US Government is
 subject to restrictions as set forth in subparagraphs (a)
 and (c) of the Commercial Computer Software - Restricted
 Rights clause in FAR 52.227-19.
  
 Gaussian, Inc.
 340 Quinnipiac St., Bldg. 40, Wallingford CT 06492
  
  
 ---------------------------------------------------------------
 Warning -- This program may not be used in any manner that
 competes with the business of Gaussian, Inc. or will provide
 assistance to any competitor of Gaussian, Inc.  The licensee
 of this program is prohibited from giving any competitor of
 Gaussian, Inc. access to this program.  By using this program,
 the user acknowledges that Gaussian, Inc. is engaged in the
 business of creating and licensing software in the field of
 computational chemistry and represents and warrants to the
 licensee that it is not a competitor of Gaussian, Inc. and that
 it will not use this program in any manner prohibited above.
 ---------------------------------------------------------------
  

 Cite this work as:
 Gaussian 09, Revision D.01,
 M. J. Frisch, G. W. Trucks, H. B. Schlegel, G. E. Scuseria, 
 M. A. Robb, J. R. Cheeseman, G. Scalmani, V. Barone, B. Mennucci, 
 G. A. Petersson, H. Nakatsuji, M. Caricato, X. Li, H. P. Hratchian, 
 A. F. Izmaylov, J. Bloino, G. Zheng, J. L. Sonnenberg, M. Hada, 
 M. Ehara, K. Toyota, R. Fukuda, J. Hasegawa, M. Ishida, T. Nakajima, 
 Y. Honda, O. Kitao, H. Nakai, T. Vreven, J. A. Montgomery, Jr., 
 J. E. Peralta, F. Ogliaro, M. Bearpark, J. J. Heyd, E. Brothers, 
 K. N. Kudin, V. N. Staroverov, T. Keith, R. Kobayashi, J. Normand, 
 K. Raghavachari, A. Rendell, J. C. Burant, S. S. Iyengar, J. Tomasi, 
 M. Cossi, N. Rega, J. M. Millam, M. Klene, J. E. Knox, J. B. Cross, 
 V. Bakken, C. Adamo, J. Jaramillo, R. Gomperts, R. E. Stratmann, 
 O. Yazyev, A. J. Austin, R. Cammi, C. Pomelli, J. W. Ochterski, 
 R. L. Martin, K. Morokuma, V. G. Zakrzewski, G. A. Voth, 
 P. Salvador, J. J. Dannenberg, S. Dapprich, A. D. Daniels, 
 O. Farkas, J. B. Foresman, J. V. Ortiz, J. Cioslowski, 
 and D. J. Fox, Gaussian, Inc., Wallingford CT, 2013.
 
 ******************************************
 Gaussian 09:  ES64L-G09RevD.01 24-Apr-2013
                15-Dec-2015 
 ******************************************
 ------------------------------------------------------------
 #P AM1(Input,print) CIS(Singlets,NStates=15) pop(full) force
 ------------------------------------------------------------
 1/10=7,30=1,38=1/1,3;
 2/12=2,17=6,18=5,40=1/2;
 3/5=2,16=1,25=1,41=700000,71=1,135=100,136=1/1,2,8,3;
 4/35=1/1;
 5/5=2,35=1,38=5/2;
 8/6=1,10=1,108=15/1;
 9/15=2,41=15,42=1,48=1,49=10/14;
 10/5=4/2;
 6/7=3,18=1/1;
 7/12=6,13=5,29=1/1,2,3,16;
 1/10=7,30=1/3;
 99//99;
 Leave Link    1 at Tue Dec 15 16:24:49 2015, MaxMem=           0 cpu:         0.0
 (Enter /home/Applications/g09/g09/l101.exe)
 -----------------
 AM1-Reparam Input
 -----------------
 Symbolic Z-matrix:
 Charge =  0 Multiplicity = 1
 6                     0.97025  -0.67191   0.01071 
 6                    -0.30749  -1.13293   0.04843 
 8                    -1.2003    0.04902   0.02194 
 6                    -0.39127   1.11928   0.02752 
 6                     0.93065   0.71084   0.02005 
 1                     1.80688   1.40564   0.03406 
 1                    -0.88385   2.06422  -0.01528 
 1                    -0.82021  -2.0706    0.03492 
 1                     1.83574  -1.38373   0.00481 
 
 NAtoms=      9 NQM=        9 NQMF=       0 NMMI=      0 NMMIF=      0
                NMic=       0 NMicF=      0.
                    Isotopes and Nuclear Properties:
 (Nuclear quadrupole moments (NQMom) in fm**2, nuclear magnetic moments (NMagM)
  in nuclear magnetons)

  Atom         1           2           3           4           5           6           7           8           9
 IAtWgt=          12          12          16          12          12           1           1           1           1
 AtmWgt=  12.0000000  12.0000000  15.9949146  12.0000000  12.0000000   1.0078250   1.0078250   1.0078250   1.0078250
 NucSpn=           0           0           0           0           0           1           1           1           1
 AtZEff=   0.0000000   0.0000000   0.0000000   0.0000000   0.0000000   0.0000000   0.0000000   0.0000000   0.0000000
 NQMom=    0.0000000   0.0000000   0.0000000   0.0000000   0.0000000   0.0000000   0.0000000   0.0000000   0.0000000
 NMagM=    0.0000000   0.0000000   0.0000000   0.0000000   0.0000000   2.7928460   2.7928460   2.7928460   2.7928460
 AtZNuc=   6.0000000   6.0000000   8.0000000   6.0000000   6.0000000   1.0000000   1.0000000   1.0000000   1.0000000
 Leave Link  101 at Tue Dec 15 16:24:49 2015, MaxMem=    33554432 cpu:         0.0
 (Enter /home/Applications/g09/g09/l103.exe)

 GradGradGradGradGradGradGradGradGradGradGradGradGradGradGradGradGradGrad
 Berny optimization.
 Initialization pass.
 Trust Radius=3.00D-01 FncErr=1.00D-07 GrdErr=1.00D-07
 Number of steps in this run=      2 maximum allowed number of steps=      2.
 GradGradGradGradGradGradGradGradGradGradGradGradGradGradGradGradGradGrad

 Leave Link  103 at Tue Dec 15 16:24:49 2015, MaxMem=    33554432 cpu:         0.0
 (Enter /home/Applications/g09/g09/l202.exe)
                          Input orientation:                          
 ---------------------------------------------------------------------
 Center     Atomic      Atomic             Coordinates (Angstroms)
 Number     Number       Type             X           Y           Z
 ---------------------------------------------------------------------
      1          6           0        0.970251   -0.671909    0.010708
      2          6           0       -0.307486   -1.132931    0.048433
      3          8           0       -1.200297    0.049015    0.021937
      4          6           0       -0.391270    1.119277    0.027521
      5          6           0        0.930653    0.710840    0.020048
      6          1           0        1.806884    1.405644    0.034064
      7          1           0       -0.883853    2.064222   -0.015275
      8          1           0       -0.820213   -2.070597    0.034916
      9          1           0        1.835736   -1.383728    0.004806
 ---------------------------------------------------------------------
                    Distance matrix (angstroms):
                    1          2          3          4          5
     1  C    0.000000
     2  C    1.358888   0.000000
     3  O    2.287168   1.481489   0.000000
     4  C    2.249971   2.253863   1.341647   0.000000
     5  C    1.383347   2.221100   2.231359   1.383603   0.000000
     6  H    2.239805   3.303805   3.299049   2.216739   1.118360
     7  H    3.305267   3.249315   2.040240   1.066485   2.263918
     8  H    2.272152   1.068779   2.153459   3.218593   3.286662
     9  H    1.120618   2.158287   3.357163   3.350389   2.281803
                    6          7          8          9
     6  H    0.000000
     7  H    2.770600   0.000000
     8  H    4.357280   4.135613   0.000000
     9  H    2.789675   4.391461   2.743494   0.000000
 Stoichiometry    C4H4O
 Framework group  C1[X(C4H4O)]
 Deg. of freedom    21
 Full point group                 C1      NOp   1
 Largest Abelian subgroup         C1      NOp   1
 Largest concise Abelian subgroup C1      NOp   1
                         Standard orientation:                         
 ---------------------------------------------------------------------
 Center     Atomic      Atomic             Coordinates (Angstroms)
 Number     Number       Type             X           Y           Z
 ---------------------------------------------------------------------
      1          6           0       -1.066028    0.549571    0.013166
      2          6           0       -0.878971   -0.796044   -0.016967
      3          8           0        0.582850   -1.035453    0.006998
      4          6           0        1.153102    0.178886   -0.007447
      5          6           0        0.175993    1.158476   -0.003216
      6          1           0        0.382676    2.257368   -0.024410
      7          1           0        2.218832    0.183356    0.032427
      8          1           0       -1.469872   -1.686384    0.003517
      9          1           0       -2.099014    0.983952    0.019260
 ---------------------------------------------------------------------
 Rotational constants (GHZ):      9.5286189      8.8356892      4.5852987
 Leave Link  202 at Tue Dec 15 16:24:49 2015, MaxMem=    33554432 cpu:         0.0
 (Enter /home/Applications/g09/g09/l301.exe)

 Semi-emprical parameters in input format:
 Method=8 CoreType=1 PeptideFC=0.0114510000 RIJScale=0.5291770000
 ****
 H       
 PQN=1 NValence=1 F0ss=0.4721550000 ZetaOverlap=1.1880780000 U=-0.4188110000
 Beta=-0.2268830000 CoreKO=1.0589200000 KON=0,0,0,1.0589200000 KON=1,0,1,1.0589200000
 KON=0,1,1,1.0589200000 KON=2,1,1,1.0589200000 EISol=-0.4188110042 EHeat=0.0830298228
 Alpha=1.5252600000
 GCore=0.0085280000,1.4001430000,2.2676710000
 GCore=0.0003530000,1.4001430000,3.4015070000
 GCore=-0.0012730000,0.5600570000,3.9684250000
 ****
 C       
 PQN=2,2 NValence=4 F0ss=0.4494440000 F0sp=0.4215150000 F0pp=0.3768030000 F2pp=0.1898720000
 G1sp=0.2679030000
 ZetaOverlap=1.8086650000,1.6851160000
 U=-1.9120180000,-1.4557970000
 Beta=-0.5775440000,-0.2836780000 DDN=0,1,0.8236740000 DDN=1,1,0.7268010000
 CoreKO=1.1124280000 KON=0,0,0,1.1124280000 KON=1,0,1,0.8219700000 KON=0,1,1,1.1124280000
 KON=2,1,1,0.7783930000 EISol=-4.4398989268 EHeat=0.2723305520 Alpha=1.4014060000
 DipHyp=1.6472532266
 GCore=0.0007890000,1.4001430000,3.0235620000
 GCore=0.0031890000,1.4001430000,3.4959930000
 GCore=-0.0013930000,1.4001430000,3.8739390000
 GCore=-0.0000880000,1.4001430000,5.0077740000
 ****
 O       
 PQN=2,2 NValence=6 F0ss=0.5666750000 F0sp=0.5321300000 F0pp=0.4958710000 F2pp=0.2358080000
 G1sp=0.4343770000
 ZetaOverlap=3.1080320000,2.5240390000
 U=-3.5951870000,-2.8760900000
 Beta=-1.0757550000,-1.0757550000 DDN=0,1,0.4988900000 DDN=1,1,0.4852320000
 CoreKO=0.8822960000 KON=0,0,0,0.8822960000 KON=1,0,1,0.5019540000 KON=0,1,1,0.8822960000
 KON=2,1,1,0.5515580000 EISol=-11.6164441184 EHeat=0.0949133088 Alpha=2.3576810000
 DipHyp=0.9977225968
 GCore=0.0195120000,1.4001430000,1.6023330000
 GCore=0.0056550000,1.9602000000,2.7307880000
 ****
 
 Standard basis: VSTO-6G (5D, 7F)
 Ernie: Thresh=  0.10000D-02 Tol=  0.10000D-05 Strict=F.
  NNHCO=     0 NNPyr=     0 NCTC=     0               EPep=         0.000000000
    EC=        68.139261922  ECS=         1.749251832   EG=         0.331578793
   EHC=         0.000000000  EAt=       -31.051283842  AtH=         1.516354808
 EPDDG=         0.000000000  ECC=        70.220092547 EAtT=        32.567638650
 There are    24 symmetry adapted cartesian basis functions of A   symmetry.
 There are    24 symmetry adapted basis functions of A   symmetry.
    24 basis functions,   144 primitive gaussians,    24 cartesian basis functions
    13 alpha electrons       13 beta electrons
       nuclear repulsion energy       102.7877311969 Hartrees.
 IExCor=    0 DFT=F Ex=HF Corr=None ExCW=0 ScaHFX=  1.000000
 ScaDFX=  1.000000  1.000000  1.000000  1.000000 ScalE2=  1.000000  1.000000
 IRadAn=      0 IRanWt=     -1 IRanGd=            0 ICorTp=0 IEmpDi=  4
 Integral buffers will be    131072 words long.
 Regular integral format.
 Two-electron integral symmetry is turned off.
 Leave Link  301 at Tue Dec 15 16:24:49 2015, MaxMem=    33554432 cpu:         0.0
 (Enter /home/Applications/g09/g09/l302.exe)
 Do NDO integrals.
 NPDir=0 NMtPBC=     1 NCelOv=     1 NCel=       1 NClECP=     1 NCelD=      1
         NCelK=      1 NCelE2=     1 NClLst=     1 CellRange=     0.0.
 One-electron integrals computed using PRISM.
 NBasis=    24 RedAO= F EigKep=  0.00D+00  NBF=    24
 NBsUse=    24 1.00D-04 EigRej=  0.00D+00 NBFU=    24
 Leave Link  302 at Tue Dec 15 16:24:49 2015, MaxMem=    33554432 cpu:         0.0
 (Enter /home/Applications/g09/g09/l308.exe)
 Leave Link  308 at Tue Dec 15 16:24:49 2015, MaxMem=    33554432 cpu:         0.0
 (Enter /home/Applications/g09/g09/l303.exe)
 DipDrv:  MaxL=1.
 Leave Link  303 at Tue Dec 15 16:24:49 2015, MaxMem=    33554432 cpu:         0.0
 (Enter /home/Applications/g09/g09/l401.exe)
 Simple Huckel Guess.
 JPrj=0 DoOrth=F DoCkMO=F.
 Leave Link  401 at Tue Dec 15 16:24:49 2015, MaxMem=    33554432 cpu:         0.0
 (Enter /home/Applications/g09/g09/l502.exe)
 Closed shell SCF:
 Using DIIS extrapolation, IDIIS=  1040.
 Overlap will be assumed to be unity.
 Two-electron integral symmetry not used.
 Keep J ints in memory in canonical form, NReq=888082.
 IVT=       79475 IEndB=       79475 NGot=    33554432 MDV=    33473473
 LenX=    33473473 LenY=    33472456
 Requested convergence on RMS density matrix=1.00D-08 within 128 cycles.
 Requested convergence on MAX density matrix=1.00D-06.
 Requested convergence on             energy=1.00D-06.
 No special actions if energy rises.
 FoFCou: FMM=F IPFlag=           0 FMFlag=           0 FMFlg1=           0
         NFxFlg=           0 DoJE=F BraDBF=F KetDBF=F FulRan=T
         wScrn=  0.000000 ICntrl=     600 IOpCl=  2 I1Cent=           0 NGrid=           0
         NMat0=    1 NMatS0=     54 NMatT0=    0 NMatD0=    1 NMtDS0=    0 NMtDT0=    0
 Symmetry not used in FoFCou.

 Cycle   1  Pass 1  IDiag  1:
 E= 0.330119465043637    
 DIIS: error= 6.67D-02 at cycle   1 NSaved=   1.
 NSaved= 1 IEnMin= 1 EnMin= 0.330119465043637     IErMin= 1 ErrMin= 6.67D-02
 ErrMax= 6.67D-02  0.00D+00 EMaxC= 1.00D-01 BMatC= 1.10D-01 BMatP= 1.10D-01
 IDIUse=3 WtCom= 3.33D-01 WtEn= 6.67D-01
 Coeff-Com:  0.100D+01
 Coeff-En:   0.100D+01
 Coeff:      0.100D+01
 GapD=    2.000 DampG=2.000 DampE=0.500 DampFc=1.0000 IDamp=-1.
 RMSDP=1.95D-02 MaxDP=1.59D-01              OVMax= 0.00D+00

 Cycle   2  Pass 1  IDiag  1:
 E= 0.508067114094644E-01 Delta-E=       -0.279312753634 Rises=F Damp=F
 DIIS: error= 1.90D-02 at cycle   2 NSaved=   2.
 NSaved= 2 IEnMin= 2 EnMin= 0.508067114094644E-01 IErMin= 2 ErrMin= 1.90D-02
 ErrMax= 1.90D-02  0.00D+00 EMaxC= 1.00D-01 BMatC= 9.42D-03 BMatP= 1.10D-01
 IDIUse=3 WtCom= 8.10D-01 WtEn= 1.90D-01
 Coeff-Com: -0.361D+00 0.136D+01
 Coeff-En:   0.000D+00 0.100D+01
 Coeff:     -0.293D+00 0.129D+01
 RMSDP=8.15D-03 MaxDP=6.82D-02 DE=-2.79D-01 OVMax= 0.00D+00

 Cycle   3  Pass 1  IDiag  3:
 E= 0.209187313920296E-01 Delta-E=       -0.029887980017 Rises=F Damp=F
 DIIS: error= 3.96D-03 at cycle   3 NSaved=   3.
 NSaved= 3 IEnMin= 3 EnMin= 0.209187313920296E-01 IErMin= 3 ErrMin= 3.96D-03
 ErrMax= 3.96D-03  0.00D+00 EMaxC= 1.00D-01 BMatC= 3.37D-04 BMatP= 9.42D-03
 IDIUse=3 WtCom= 9.60D-01 WtEn= 3.96D-02
 Coeff-Com:  0.144D+00-0.623D+00 0.148D+01
 Coeff-En:   0.000D+00 0.000D+00 0.100D+01
 Coeff:      0.138D+00-0.598D+00 0.146D+01
 Gap=     0.360 Goal=   None    Shift=    0.000
 RMSDP=2.46D-03 MaxDP=2.34D-02 DE=-2.99D-02 OVMax= 2.31D-02

 Cycle   4  Pass 1  IDiag  3:
 E= 0.190516269339298E-01 Delta-E=       -0.001867104458 Rises=F Damp=F
 DIIS: error= 1.08D-03 at cycle   4 NSaved=   4.
 NSaved= 4 IEnMin= 4 EnMin= 0.190516269339298E-01 IErMin= 4 ErrMin= 1.08D-03
 ErrMax= 1.08D-03  0.00D+00 EMaxC= 1.00D-01 BMatC= 2.52D-05 BMatP= 3.37D-04
 IDIUse=3 WtCom= 9.89D-01 WtEn= 1.08D-02
 Coeff-Com:  0.177D-01-0.676D-01-0.142D+00 0.119D+01
 Coeff-En:   0.000D+00 0.000D+00 0.000D+00 0.100D+01
 Coeff:      0.175D-01-0.668D-01-0.140D+00 0.119D+01
 Gap=     0.361 Goal=   None    Shift=    0.000
 RMSDP=7.75D-04 MaxDP=7.92D-03 DE=-1.87D-03 OVMax= 7.67D-03

 Cycle   5  Pass 1  IDiag  3:
 E= 0.188946727929959E-01 Delta-E=       -0.000156954141 Rises=F Damp=F
 DIIS: error= 2.29D-04 at cycle   5 NSaved=   5.
 NSaved= 5 IEnMin= 5 EnMin= 0.188946727929959E-01 IErMin= 5 ErrMin= 2.29D-04
 ErrMax= 2.29D-04  0.00D+00 EMaxC= 1.00D-01 BMatC= 1.95D-06 BMatP= 2.52D-05
 IDIUse=3 WtCom= 9.98D-01 WtEn= 2.29D-03
 Coeff-Com: -0.955D-02 0.395D-01 0.193D-02-0.485D+00 0.145D+01
 Coeff-En:   0.000D+00 0.000D+00 0.000D+00 0.000D+00 0.100D+01
 Coeff:     -0.953D-02 0.394D-01 0.192D-02-0.484D+00 0.145D+01
 Gap=     0.361 Goal=   None    Shift=    0.000
 RMSDP=2.69D-04 MaxDP=1.88D-03 DE=-1.57D-04 OVMax= 2.60D-03

 Cycle   6  Pass 1  IDiag  3:
 E= 0.188790664444696E-01 Delta-E=       -0.000015606349 Rises=F Damp=F
 DIIS: error= 1.01D-04 at cycle   6 NSaved=   6.
 NSaved= 6 IEnMin= 6 EnMin= 0.188790664444696E-01 IErMin= 6 ErrMin= 1.01D-04
 ErrMax= 1.01D-04  0.00D+00 EMaxC= 1.00D-01 BMatC= 2.22D-07 BMatP= 1.95D-06
 IDIUse=3 WtCom= 9.99D-01 WtEn= 1.01D-03
 Coeff-Com:  0.335D-02-0.134D-01 0.114D-01 0.136D+00-0.691D+00 0.155D+01
 Coeff-En:   0.000D+00 0.000D+00 0.000D+00 0.000D+00 0.000D+00 0.100D+01
 Coeff:      0.335D-02-0.134D-01 0.114D-01 0.136D+00-0.690D+00 0.155D+01
 Gap=     0.361 Goal=   None    Shift=    0.000
 RMSDP=1.10D-04 MaxDP=8.61D-04 DE=-1.56D-05 OVMax= 1.23D-03

 Cycle   7  Pass 1  IDiag  3:
 E= 0.188769069353185E-01 Delta-E=       -0.000002159509 Rises=F Damp=F
 DIIS: error= 3.76D-05 at cycle   7 NSaved=   7.
 NSaved= 7 IEnMin= 7 EnMin= 0.188769069353185E-01 IErMin= 7 ErrMin= 3.76D-05
 ErrMax= 3.76D-05  0.00D+00 EMaxC= 1.00D-01 BMatC= 2.29D-08 BMatP= 2.22D-07
 IDIUse=1 WtCom= 1.00D+00 WtEn= 0.00D+00
 Coeff-Com: -0.284D-03 0.463D-03 0.162D-03-0.259D-01 0.170D+00-0.716D+00
 Coeff-Com:  0.157D+01
 Coeff:     -0.284D-03 0.463D-03 0.162D-03-0.259D-01 0.170D+00-0.716D+00
 Coeff:      0.157D+01
 Gap=     0.361 Goal=   None    Shift=    0.000
 RMSDP=4.33D-05 MaxDP=3.68D-04 DE=-2.16D-06 OVMax= 4.24D-04

 Cycle   8  Pass 1  IDiag  3:
 E= 0.188766712206245E-01 Delta-E=       -0.000000235715 Rises=F Damp=F
 DIIS: error= 6.71D-06 at cycle   8 NSaved=   8.
 NSaved= 8 IEnMin= 8 EnMin= 0.188766712206245E-01 IErMin= 8 ErrMin= 6.71D-06
 ErrMax= 6.71D-06  0.00D+00 EMaxC= 1.00D-01 BMatC= 9.83D-10 BMatP= 2.29D-08
 IDIUse=1 WtCom= 1.00D+00 WtEn= 0.00D+00
 Coeff-Com:  0.121D-04 0.373D-03-0.134D-02 0.113D-01-0.621D-01 0.301D+00
 Coeff-Com: -0.827D+00 0.158D+01
 Coeff:      0.121D-04 0.373D-03-0.134D-02 0.113D-01-0.621D-01 0.301D+00
 Coeff:     -0.827D+00 0.158D+01
 Gap=     0.361 Goal=   None    Shift=    0.000
 RMSDP=7.67D-06 MaxDP=6.46D-05 DE=-2.36D-07 OVMax= 7.38D-05

 Cycle   9  Pass 1  IDiag  3:
 E= 0.188766631433737E-01 Delta-E=       -0.000000008077 Rises=F Damp=F
 DIIS: error= 9.51D-07 at cycle   9 NSaved=   9.
 NSaved= 9 IEnMin= 9 EnMin= 0.188766631433737E-01 IErMin= 9 ErrMin= 9.51D-07
 ErrMax= 9.51D-07  0.00D+00 EMaxC= 1.00D-01 BMatC= 3.58D-11 BMatP= 9.83D-10
 IDIUse=1 WtCom= 1.00D+00 WtEn= 0.00D+00
 Coeff-Com:  0.377D-04-0.332D-03 0.721D-03-0.337D-02 0.188D-01-0.107D+00
 Coeff-Com:  0.320D+00-0.723D+00 0.149D+01
 Coeff:      0.377D-04-0.332D-03 0.721D-03-0.337D-02 0.188D-01-0.107D+00
 Coeff:      0.320D+00-0.723D+00 0.149D+01
 Gap=     0.361 Goal=   None    Shift=    0.000
 RMSDP=1.11D-06 MaxDP=1.05D-05 DE=-8.08D-09 OVMax= 1.06D-05

 Cycle  10  Pass 1  IDiag  3:
 E= 0.188766629154316E-01 Delta-E=       -0.000000000228 Rises=F Damp=F
 DIIS: error= 2.13D-07 at cycle  10 NSaved=  10.
 NSaved=10 IEnMin=10 EnMin= 0.188766629154316E-01 IErMin=10 ErrMin= 2.13D-07
 ErrMax= 2.13D-07  0.00D+00 EMaxC= 1.00D-01 BMatC= 1.59D-12 BMatP= 3.58D-11
 IDIUse=1 WtCom= 1.00D+00 WtEn= 0.00D+00
 Coeff-Com: -0.199D-04 0.152D-03-0.314D-03 0.123D-02-0.647D-02 0.387D-01
 Coeff-Com: -0.119D+00 0.279D+00-0.709D+00 0.152D+01
 Coeff:     -0.199D-04 0.152D-03-0.314D-03 0.123D-02-0.647D-02 0.387D-01
 Coeff:     -0.119D+00 0.279D+00-0.709D+00 0.152D+01
 Gap=     0.361 Goal=   None    Shift=    0.000
 RMSDP=2.40D-07 MaxDP=2.32D-06 DE=-2.28D-10 OVMax= 2.49D-06

 Cycle  11  Pass 1  IDiag  3:
 E= 0.188766629044181E-01 Delta-E=       -0.000000000011 Rises=F Damp=F
 DIIS: error= 4.67D-08 at cycle  11 NSaved=  11.
 NSaved=11 IEnMin=11 EnMin= 0.188766629044181E-01 IErMin=11 ErrMin= 4.67D-08
 ErrMax= 4.67D-08  0.00D+00 EMaxC= 1.00D-01 BMatC= 8.53D-14 BMatP= 1.59D-12
 IDIUse=1 WtCom= 1.00D+00 WtEn= 0.00D+00
 Coeff-Com:  0.659D-05-0.526D-04 0.110D-03-0.456D-03 0.235D-02-0.139D-01
 Coeff-Com:  0.424D-01-0.979D-01 0.254D+00-0.663D+00 0.148D+01
 Coeff:      0.659D-05-0.526D-04 0.110D-03-0.456D-03 0.235D-02-0.139D-01
 Coeff:      0.424D-01-0.979D-01 0.254D+00-0.663D+00 0.148D+01
 Gap=     0.361 Goal=   None    Shift=    0.000
 RMSDP=5.86D-08 MaxDP=4.91D-07 DE=-1.10D-11 OVMax= 5.98D-07

 Cycle  12  Pass 1  IDiag  3:
 E= 0.188766629037076E-01 Delta-E=       -0.000000000001 Rises=F Damp=F
 DIIS: error= 1.60D-08 at cycle  12 NSaved=  12.
 NSaved=12 IEnMin=12 EnMin= 0.188766629037076E-01 IErMin=12 ErrMin= 1.60D-08
 ErrMax= 1.60D-08  0.00D+00 EMaxC= 1.00D-01 BMatC= 7.37D-15 BMatP= 8.53D-14
 IDIUse=1 WtCom= 1.00D+00 WtEn= 0.00D+00
 Coeff-Com: -0.904D-06 0.811D-05-0.157D-04 0.727D-04-0.376D-03 0.228D-02
 Coeff-Com: -0.685D-02 0.153D-01-0.397D-01 0.125D+00-0.550D+00 0.145D+01
 Coeff:     -0.904D-06 0.811D-05-0.157D-04 0.727D-04-0.376D-03 0.228D-02
 Coeff:     -0.685D-02 0.153D-01-0.397D-01 0.125D+00-0.550D+00 0.145D+01
 Gap=     0.361 Goal=   None    Shift=    0.000
 RMSDP=2.06D-08 MaxDP=1.79D-07 DE=-7.11D-13 OVMax= 1.83D-07

 Cycle  13  Pass 1  IDiag  3:
 E= 0.188766629038355E-01 Delta-E=        0.000000000000 Rises=F Damp=F
 DIIS: error= 3.80D-09 at cycle  13 NSaved=  13.
 NSaved=13 IEnMin=12 EnMin= 0.188766629037076E-01 IErMin=13 ErrMin= 3.80D-09
 ErrMax= 3.80D-09  0.00D+00 EMaxC= 1.00D-01 BMatC= 4.87D-16 BMatP= 7.37D-15
 IDIUse=1 WtCom= 1.00D+00 WtEn= 0.00D+00
 Coeff-Com:  0.111D-07-0.289D-06 0.348D-06-0.351D-05 0.123D-04-0.847D-04
 Coeff-Com:  0.197D-03-0.237D-03-0.443D-04-0.457D-02 0.902D-01-0.498D+00
 Coeff-Com:  0.141D+01
 Coeff:      0.111D-07-0.289D-06 0.348D-06-0.351D-05 0.123D-04-0.847D-04
 Coeff:      0.197D-03-0.237D-03-0.443D-04-0.457D-02 0.902D-01-0.498D+00
 Coeff:      0.141D+01
 Gap=     0.361 Goal=   None    Shift=    0.000
 RMSDP=5.02D-09 MaxDP=4.88D-08 DE= 1.28D-13 OVMax= 5.18D-08

 Cycle  14  Pass 2  IDiag  1:
 SCF Done:  E(RAM1) =  0.188766629038E-01 A.U. after   14 cycles
            NFock= 13  Conv=0.50D-08     -V/T= 1.0011
 KE=-1.645784909673D+01 PE=-1.700014847956D+02 EE= 8.369047935832D+01
 Leave Link  502 at Tue Dec 15 16:24:49 2015, MaxMem=    33554432 cpu:         0.0
 (Enter /home/Applications/g09/g09/l801.exe)
 Range of M.O.s used for correlation:     1    24
 NBasis=    24 NAE=    13 NBE=    13 NFC=     0 NFV=     0
 NROrb=     24 NOA=    13 NOB=    13 NVA=    11 NVB=    11
 Leave Link  801 at Tue Dec 15 16:24:49 2015, MaxMem=    33554432 cpu:         0.0
 (Enter /home/Applications/g09/g09/l914.exe)
 RHF ground state
 MDV=    33554432 DFT=F DoStab=F Mixed=F DoRPA=F DoScal=F NonHer=F
 Making orbital integer symmetry assigments:
 Orbital symmetries:
       Occupied  (A) (A) (A) (A) (A) (A) (A) (A) (A) (A) (A) (A)
                 (A)
       Virtual   (A) (A) (A) (A) (A) (A) (A) (A) (A) (A) (A)
    60 initial guesses have been made.
 Convergence on wavefunction:    0.000001000000000
 Davidson Disk Diagonalization:  ConvIn= 1.00D-06 SkipCon=T Conv= 1.00D-06.
 Max sub-space:   240 roots to seek:    60 dimension of matrix:          286
 Iteration     1 Dimension    60 NMult     0 NNew     60
 CISAX will form    60 AO SS matrices at one time.
 NMat=    60 NSing=    60 JSym2X= 0.
 FoFJK:  IHMeth= 8 ICntrl=       0 DoSepK=F KAlg= 0 I1Cent=   0 FoldK=F
 IRaf=         1 NMat= 120 IRICut=       1 DoRegI=T DoRafI=F ISym2E= 0.
 FoFCou: FMM=F IPFlag=           0 FMFlag=      100000 FMFlg1=           0
         NFxFlg=           0 DoJE=F BraDBF=F KetDBF=F FulRan=T
         wScrn=  0.000000 ICntrl=       0 IOpCl=  0 I1Cent=           0 NGrid=           0
         NMat0=  120 NMatS0=     60 NMatT0=    0 NMatD0=  120 NMtDS0=    0 NMtDT0=    0
 Symmetry not used in FoFCou.
 New state      2 was old state      4
 New state      3 was old state      2
 New state      4 was old state      6
 New state      5 was old state      9
 New state      6 was old state      7
 New state      7 was old state      3
 New state      9 was old state      5
 New state     10 was old state     11
 New state     11 was old state     13
 New state     12 was old state     20
 New state     13 was old state     14
 New state     14 was old state     17
 New state     15 was old state     10
 Excitation Energies [eV] at current iteration:
 Root      1 :     4.219569779023366
 Root      2 :     4.567303800979110
 Root      3 :     5.013924188213417
 Root      4 :     5.808758612404439
 Root      5 :     6.028201483193062
 Root      6 :     6.112484342512231
 Root      7 :     6.364699485292776
 Root      8 :     6.480594054074686
 Root      9 :     6.737076586083687
 Root     10 :     6.866077722713958
 Root     11 :     7.344429799740913
 Root     12 :     7.346359367086507
 Root     13 :     7.407514362544406
 Root     14 :     7.599724500597276
 Root     15 :     7.619924698102746
 Root     16 :     7.837833061636200
 Root     17 :     7.918118216567609
 Root     18 :     7.971447203714469
 Root     19 :     8.193618963111284
 Root     20 :     8.331846323633213
 Root     21 :     8.562219940988562
 Root     22 :     8.583626053905819
 Root     23 :     8.620712059560555
 Root     24 :     9.181054792887361
 Root     25 :     9.317578870016352
 Root     26 :     9.358880453404540
 Root     27 :     9.471997915400790
 Root     28 :     9.603691946134941
 Root     29 :     9.649522282080978
 Root     30 :     9.895331268763902
 Root     31 :     9.955623403605685
 Root     32 :    10.072559173024560
 Root     33 :    10.118026436489630
 Root     34 :    10.184229433827160
 Root     35 :    10.216732773716800
 Root     36 :    10.414376347918130
 Root     37 :    10.575226023822440
 Root     38 :    10.621152896860850
 Root     39 :    10.659693128510220
 Root     40 :    10.774250237641680
 Root     41 :    10.845229544681510
 Root     42 :    11.005486468827440
 Root     43 :    11.051767013212160
 Root     44 :    11.350699993225030
 Root     45 :    11.427602720980290
 Root     46 :    11.545615278355990
 Root     47 :    11.620556103240710
 Root     48 :    11.836382486263300
 Root     49 :    11.930613229602830
 Root     50 :    12.103408817405610
 Root     51 :    12.315451816860740
 Root     52 :    12.510044917584060
 Root     53 :    12.662742382850070
 Root     54 :    12.700834158846010
 Root     55 :    12.911853149568960
 Root     56 :    13.057852390817900
 Root     57 :    13.183920695056410
 Root     58 :    13.342581535809100
 Root     59 :    13.544943401577610
 Root     60 :    13.742486419547060
 Iteration     2 Dimension   120 NMult    60 NNew     60
 CISAX will form    60 AO SS matrices at one time.
 NMat=    60 NSing=    60 JSym2X= 0.
 Root      1 not converged, maximum delta is    0.034220741495496
 Root      2 not converged, maximum delta is    0.032138820187946
 Root      3 not converged, maximum delta is    0.013443104971864
 Root      4 not converged, maximum delta is    0.053005203368529
 Root      5 not converged, maximum delta is    0.094575720001221
 Root      6 not converged, maximum delta is    0.116988526167540
 Root      7 not converged, maximum delta is    0.054271774874008
 Root      8 not converged, maximum delta is    0.051082720569626
 Root      9 not converged, maximum delta is    0.034927528878848
 Root     10 not converged, maximum delta is    0.030584390410169
 New state     11 was old state     12
 Root     11 not converged, maximum delta is    0.162750697620979
 New state     12 was old state     11
 Root     12 not converged, maximum delta is    0.265357083207043
 Root     13 not converged, maximum delta is    0.193186663633838
 Root     14 not converged, maximum delta is    0.244584341932923
 Root     15 not converged, maximum delta is    0.248635954380655
 Excitation Energies [eV] at current iteration:
 Root      1 :     4.130330006466906   Change is   -0.089239772556460
 Root      2 :     4.531783432735300   Change is   -0.035520368243810
 Root      3 :     4.999460510722104   Change is   -0.014463677491313
 Root      4 :     5.695196151066116   Change is   -0.113562461338323
 Root      5 :     5.940654646764410   Change is   -0.087546836428652
 Root      6 :     5.999694172754015   Change is   -0.112790169758216
 Root      7 :     6.192150289802393   Change is   -0.172549195490383
 Root      8 :     6.416061422059360   Change is   -0.064532632015326
 Root      9 :     6.692065098344450   Change is   -0.045011487739237
 Root     10 :     6.818183236146122   Change is   -0.047894486567836
 Root     11 :     7.195815548777848   Change is   -0.150543818308659
 Root     12 :     7.265273416420825   Change is   -0.079156383320089
 Root     13 :     7.289131578738641   Change is   -0.118382783805765
 Root     14 :     7.505779370942655   Change is   -0.093945129654621
 Root     15 :     7.526507777143068   Change is   -0.093416920959678
 Root     16 :     7.732811713698471   Change is   -0.105021347937729
 Root     17 :     7.797372721439001   Change is   -0.120745495128608
 Root     18 :     7.849302858668048   Change is   -0.122144345046421
 Root     19 :     8.033113733207061   Change is   -0.160505229904222
 Root     20 :     8.187327860379895   Change is   -0.144518463253318
 Root     21 :     8.324651258759417   Change is   -0.258974795146402
 Root     22 :     8.536254785343189   Change is   -0.025965155645374
 Root     23 :     8.552600861195222   Change is   -0.068111198365333
 Root     24 :     9.016555345356368   Change is   -0.301023524659984
 Root     25 :     9.030118860378485   Change is   -0.150935932508877
 Root     26 :     9.162541182570752   Change is   -0.441150763564188
 Root     27 :     9.273892986754992   Change is   -0.084987466649547
 Root     28 :     9.316314421412338   Change is   -0.900418352304463
 Root     29 :     9.328211782863507   Change is   -0.143786132537282
 Root     30 :     9.458602339542610   Change is   -0.190919942538368
 Root     31 :     9.510961293628231   Change is   -0.561597879396334
 Root     32 :     9.685004550642116   Change is   -0.210326718121787
 Root     33 :     9.794406077344490   Change is   -0.780819946477952
 Root     34 :     9.822908546718599   Change is   -0.295117889771030
 Root     35 :     9.923661939888991   Change is   -0.031961463716693
 Root     36 :    10.013104992791500   Change is   -0.401271355126625
 Root     37 :    10.031946743828760   Change is   -0.152282689998402
 Root     38 :    10.179230843809110   Change is   -0.441922053051739
 Root     39 :    10.204651396705460   Change is   -0.569598840936224
 Root     40 :    10.340782598788620   Change is   -0.504446945892890
 Root     41 :    10.403103112886400   Change is   -0.256590015623816
 Root     42 :    10.569075046611150   Change is   -0.482691966601017
 Root     43 :    10.866075578664860   Change is   -0.754480524575853
 Root     44 :    10.921323864832020   Change is   -0.429376128393010
 Root     45 :    10.944738615394560   Change is   -0.060747853432882
 Root     46 :    11.228579607573250   Change is   -0.199023113407042
 Root     47 :    11.394305418673540   Change is   -0.151309859682451
 Root     48 :    11.462111822765340   Change is   -0.374270663497965
 Root     49 :    11.591867493094500   Change is   -0.338745736508333
 Root     50 :    11.716749376280320   Change is   -0.793295541303742
 Root     51 :    11.818070400530390   Change is   -0.285338416875221
 Root     52 :    11.879487023149250   Change is   -0.435964793711492
 Root     53 :    12.235727833694210   Change is   -0.676125315874747
 Root     54 :    12.330880874064290   Change is   -0.853039820992124
 Root     55 :    12.427259384225690   Change is   -0.273574774620317
 Root     56 :    12.467399129966720
 Root     57 :    12.611049599006890   Change is   -0.051692783843182
 Root     58 :    12.805590940560900   Change is   -0.252261450256999
 Root     59 :    12.986190150870200   Change is   -0.558753250707411
 Root     60 :    13.082864421208910   Change is   -0.259717114600192
 Iteration     3 Dimension   135 NMult   120 NNew     15
 CISAX will form    15 AO SS matrices at one time.
 NMat=    15 NSing=    15 JSym2X= 0.
 Root      1 not converged, maximum delta is    0.001190608937512
 Root      2 not converged, maximum delta is    0.000053501447697
 Root      3 not converged, maximum delta is    0.000402548855236
 Root      4 not converged, maximum delta is    0.000100636070721
 Root      5 not converged, maximum delta is    0.000190297623160
 Root      6 not converged, maximum delta is    0.000071676508352
 Root      7 not converged, maximum delta is    0.001405899256511
 Root      8 not converged, maximum delta is    0.000247176836576
 Root      9 not converged, maximum delta is    0.002380146646604
 Root     10 not converged, maximum delta is    0.000282432883723
 Root     11 not converged, maximum delta is    0.000090274895754
 Root     12 not converged, maximum delta is    0.000345283431826
 Root     13 not converged, maximum delta is    0.000381378203380
 Root     14 not converged, maximum delta is    0.000249192320904
 Root     15 not converged, maximum delta is    0.000250152058665
 Excitation Energies [eV] at current iteration:
 Root      1 :     4.130087044555706   Change is   -0.000242961911200
 Root      2 :     4.531782774831365   Change is   -0.000000657903934
 Root      3 :     4.999423788635285   Change is   -0.000036722086819
 Root      4 :     5.695194876775460   Change is   -0.000001274290656
 Root      5 :     5.940651332089916   Change is   -0.000003314674494
 Root      6 :     5.999692485992781   Change is   -0.000001686761235
 Root      7 :     6.191528651346187   Change is   -0.000621638456205
 Root      8 :     6.416053587542239   Change is   -0.000007834517122
 Root      9 :     6.691698669528941   Change is   -0.000366428815509
 Root     10 :     6.818177246688739   Change is   -0.000005989457382
 Root     11 :     7.195813568138060   Change is   -0.000001980639788
 Root     12 :     7.265264374394051   Change is   -0.000009042026773
 Root     13 :     7.289116179548105   Change is   -0.000015399190536
 Root     14 :     7.505774952317356   Change is   -0.000004418625299
 Root     15 :     7.526503614992823   Change is   -0.000004162150245
 Iteration     4 Dimension   143 NMult   135 NNew      8
 CISAX will form     8 AO SS matrices at one time.
 NMat=     8 NSing=     8 JSym2X= 0.
 Root      1 not converged, maximum delta is    0.000035276783430
 Root      2 not converged, maximum delta is    0.000002755934559
 Root      3 not converged, maximum delta is    0.000007433913561
 Root      4 not converged, maximum delta is    0.000004715667320
 Root      5 not converged, maximum delta is    0.000006752251424
 Root      6 not converged, maximum delta is    0.000005375198573
 Root      7 not converged, maximum delta is    0.000074820953313
 Root      8 not converged, maximum delta is    0.000008807072374
 Root      9 not converged, maximum delta is    0.000069667099509
 Root     10 not converged, maximum delta is    0.000011396721259
 Root     11 not converged, maximum delta is    0.000003131181975
 Root     12 not converged, maximum delta is    0.000012860496019
 Root     13 not converged, maximum delta is    0.000015338949639
 Root     14 not converged, maximum delta is    0.000008853774068
 Root     15 not converged, maximum delta is    0.000007910256191
 Excitation Energies [eV] at current iteration:
 Root      1 :     4.130086512628780   Change is   -0.000000531926926
 Root      2 :     4.531782772255836   Change is   -0.000000002575529
 Root      3 :     4.999423765438570   Change is   -0.000000023196716
 Root      4 :     5.695194869607071   Change is   -0.000000007168390
 Root      5 :     5.940651317601509   Change is   -0.000000014488408
 Root      6 :     5.999692479018392   Change is   -0.000000006974389
 Root      7 :     6.191527213125340   Change is   -0.000001438220847
 Root      8 :     6.416053559408332   Change is   -0.000000028133906
 Root      9 :     6.691697303505582   Change is   -0.000001366023359
 Root     10 :     6.818177206919223   Change is   -0.000000039769517
 Root     11 :     7.195813564054454   Change is   -0.000000004083605
 Root     12 :     7.265264337496515   Change is   -0.000000036897536
 Root     13 :     7.289116117323255   Change is   -0.000000062224850
 Root     14 :     7.505774919253069   Change is   -0.000000033064287
 Root     15 :     7.526503598941024   Change is   -0.000000016051799
 Convergence achieved on expansion vectors.
 ***********************************************************************
 Excited states from <AA,BB:AA,BB> singles matrix:
 ***********************************************************************
 
 1PDM for each excited state written to RWF  633
 Ground to excited state transition densities written to RWF  633
 Ground to excited state transition electric dipole moments (Au):
       state          X           Y           Z        Dip. S.      Osc.
         1         0.9653      0.3089      0.0244      1.0278      0.1040
         2         0.0415     -0.0104     -0.0549      0.0048      0.0005
         3        -0.1640      0.3106      0.0181      0.1237      0.0152
         4        -0.0001     -0.0215     -0.0370      0.0018      0.0003
         5         0.0307     -0.0895     -0.1256      0.0247      0.0036
         6         0.0363     -0.0772      0.0624      0.0112      0.0016
         7        -0.3861      1.4952      0.0314      2.3855      0.3619
         8        -0.0261      0.1144      0.0673      0.0183      0.0029
         9        -0.7470     -0.2600      0.0214      0.6260      0.1026
        10        -0.0831      0.0486     -0.0881      0.0170      0.0028
        11        -0.0030      0.0260      0.0012      0.0007      0.0001
        12         0.0301     -0.0133     -0.0205      0.0015      0.0003
        13        -0.0064      0.0560     -0.0473      0.0054      0.0010
        14         0.0078     -0.0012     -0.2795      0.0782      0.0144
        15        -0.0362     -0.0055      0.0371      0.0027      0.0005
 Ground to excited state transition velocity dipole moments (Au):
       state          X           Y           Z        Dip. S.      Osc.
         1        -0.0537     -0.0083     -0.0063      0.0030      0.0131
         2        -0.0050      0.0003      0.0180      0.0003      0.0014
         3         0.0008     -0.0306      0.0010      0.0009      0.0034
         4        -0.0031      0.0054      0.0113      0.0002      0.0005
         5        -0.0086      0.0161      0.0856      0.0077      0.0234
         6        -0.0080      0.0142      0.0090      0.0003      0.0010
         7         0.1029     -0.2940      0.0129      0.0972      0.2847
         8         0.0050     -0.0254     -0.1768      0.0319      0.0903
         9         0.1432      0.0470     -0.0118      0.0229      0.0620
        10         0.0169     -0.0116      0.0188      0.0008      0.0021
        11         0.0006     -0.0024      0.0231      0.0005      0.0014
        12        -0.0094      0.0065     -0.0287      0.0010      0.0024
        13         0.0046     -0.0132     -0.0196      0.0006      0.0014
        14         0.0025      0.0009      0.0473      0.0022      0.0054
        15         0.0067      0.0024      0.0054      0.0001      0.0002
 Ground to excited state transition magnetic dipole moments (Au):
       state          X           Y           Z
         1        -0.0020     -0.0490      0.6929
         2        -0.1266      0.6375      0.0330
         3        -0.0187      0.0306     -0.0457
         4        -0.1896     -0.2282     -0.0061
         5        -0.2358      0.0845      0.0097
         6         0.0539      0.1196     -0.0055
         7         0.0947      0.0429      0.0616
         8        -0.3450      0.0911     -0.0088
         9         0.0740      0.0211     -0.0867
        10        -1.1279     -0.9604     -0.0032
        11        -0.3256      0.4983      0.0059
        12         0.2874     -0.5343      0.0122
        13        -1.1504     -0.2340      0.0211
        14         0.1407      0.1467     -0.0071
        15         0.1101      0.0153      0.0096
 Ground to excited state transition velocity quadrupole moments (Au):
       state          XX          YY          ZZ          XY          XZ          YZ
         1        -0.3498      0.2906      0.0251      0.2181      0.0010      0.0015
         2        -0.0276      0.0219     -0.0003      0.0141      0.1380      0.0875
         3         0.2149     -0.2511      0.0633     -0.0114     -0.0004      0.0023
         4        -0.0008     -0.0111     -0.0036     -0.0111      0.1571     -0.1410
         5        -0.0263      0.0042      0.0010     -0.0110      0.0476     -0.1913
         6        -0.0059     -0.0242      0.0209     -0.0265      0.0718      0.1294
         7         0.2890     -0.0606     -0.0536      0.3379      0.0369     -0.0125
         8         0.0455     -0.0257     -0.0061      0.0022     -0.0520      0.0222
         9        -0.4079      0.4149      0.0158      0.4047      0.0162     -0.0179
        10         0.0032      0.0166      0.0000      0.0379     -0.0766      0.0300
        11         0.0029      0.0043     -0.0029     -0.0011     -0.0700     -0.1976
        12         0.0058     -0.0145      0.0005     -0.0290      0.2655     -0.1764
        13        -0.0065      0.0193     -0.0011      0.0196      0.1648     -0.1025
        14         0.0114      0.0012     -0.0086      0.0028      0.0260      0.3369
        15        -0.0283      0.0092      0.0077      0.0268      0.0477      0.2783
 <0|del|b> * <b|rxdel|0> + <0|del|b> * <b|delr+rdel|0>
 Rotatory Strengths (R) in cgs (10**-40 erg-esu-cm/Gauss)
       state          XX          YY          ZZ    R(velocity)    E-M Angle
         1       -12.3012     -6.8399      1.3632     -5.9260       95.76
         2         2.1108      1.1371      2.7670      2.0050       83.30
         3        -1.9374     -0.0930     -1.8147     -1.2817      124.14
         4        -3.8247      1.8274     -0.3895     -0.7956      100.66
         5         0.7755      8.8087      4.0548      4.5463       78.93
         6         0.6277     -2.0366      5.3139      1.3017       60.03
         7         5.3007      7.6037    -19.3033     -2.1330       93.13
         8        -3.7169      0.4866     -4.2571     -2.4958       92.24
         9        -5.0561     19.8735     21.4399     12.0858       43.98
        10        15.3458    -27.2215    -10.6370     -7.5042      101.17
        11        -1.7128     -0.2067     -1.5048     -1.1414       95.31
        12        -6.2267     -2.9481     -8.0921     -5.7557      110.35
        13         5.8735     -7.5689     -5.0955     -2.2636       95.22
        14        -0.1168      0.9355     -0.4261      0.1309       89.09
        15         0.1479      3.2325     -1.2540      0.7088       33.68
 1/2[<0|r|b>*<b|rxdel|0> + (<0|rxdel|b>*<b|r|0>)*]
 Rotatory Strengths (R) in cgs (10**-40 erg-esu-cm/Gauss)
       state          XX          YY          ZZ     R(length)
         1         1.3923     10.6927    -11.9408      0.0481
         2         3.7175      4.7033      1.2824      3.2344
         3        -2.1675     -6.7303      0.5861     -2.7705
         4        -0.0168     -3.4767     -0.1605     -1.2180
         5         5.1254      5.3482      0.8626      3.7787
         6        -1.3822      6.5249      0.2435      1.7954
         7        25.8592    -45.3321     -1.3696     -6.9475
         8        -6.3578     -7.3739      0.4181     -4.4379
         9        39.0824      3.8723      1.3123     14.7557
        10       -66.3145     32.9778     -0.1988    -11.1785
        11        -0.6803     -9.1567     -0.0051     -3.2807
        12        -6.1079     -5.0389      0.1768     -3.6566
        13        -5.2473      9.2677      0.7069      1.5758
        14        -0.7730      0.1286     -1.3968     -0.6804
        15         2.8216      0.0597     -0.2515      0.8766
  1/2[<0|del|b>*<b|r|0> + (<0|r|b>*<b|del|0>)*] (Au)
       state          X           Y           Z        Dip. S.   Osc.(frdel)
         1        -0.0518     -0.0026     -0.0002      0.0545      0.0364
         2        -0.0002      0.0000     -0.0010      0.0012      0.0008
         3        -0.0001     -0.0095      0.0000      0.0096      0.0064
         4         0.0000     -0.0001     -0.0004      0.0005      0.0004
         5        -0.0003     -0.0014     -0.0107      0.0124      0.0083
         6        -0.0003     -0.0011      0.0006      0.0008      0.0005
         7        -0.0397     -0.4395      0.0004      0.4789      0.3192
         8        -0.0001     -0.0029     -0.0119      0.0149      0.0100
         9        -0.1070     -0.0122     -0.0003      0.1195      0.0796
        10        -0.0014     -0.0006     -0.0017      0.0036      0.0024
        11         0.0000     -0.0001      0.0000      0.0000      0.0000
        12        -0.0003     -0.0001      0.0006     -0.0002     -0.0001
        13         0.0000     -0.0007      0.0009     -0.0002     -0.0001
        14         0.0000      0.0000     -0.0132      0.0132      0.0088
        15        -0.0002      0.0000      0.0002      0.0001      0.0000

 Excitation energies and oscillator strengths:
 
 Excited State   1:      Singlet-A      4.1301 eV  300.20 nm  f=0.1040  <S**2>=0.000
      12 -> 15         0.15259
      13 -> 14         0.67646
 This state for optimization and/or second-order correction.
 Total Energy, E(CIS) =  0.170654556075    
 Copying the excited state density for this state as the 1-particle RhoCI density.
 
 Excited State   2:      Singlet-A      4.5318 eV  273.59 nm  f=0.0005  <S**2>=0.000
      13 -> 16         0.68771
 
 Excited State   3:      Singlet-A      4.9994 eV  248.00 nm  f=0.0152  <S**2>=0.000
      12 -> 14        -0.38654
      13 -> 15         0.58369
 
 Excited State   4:      Singlet-A      5.6952 eV  217.70 nm  f=0.0003  <S**2>=0.000
      12 -> 17        -0.13192
      13 -> 17         0.47447
      13 -> 18         0.20816
      13 -> 19        -0.15809
      13 -> 20        -0.16229
      13 -> 22         0.30237
      13 -> 23        -0.17345
 
 Excited State   5:      Singlet-A      5.9407 eV  208.70 nm  f=0.0036  <S**2>=0.000
       7 -> 16        -0.16185
      12 -> 16         0.59184
      12 -> 22        -0.13280
      13 -> 18        -0.18848
      13 -> 19        -0.10541
 
 Excited State   6:      Singlet-A      5.9997 eV  206.65 nm  f=0.0016  <S**2>=0.000
       7 -> 16        -0.10034
      12 -> 16         0.27845
      12 -> 18         0.16912
      12 -> 21        -0.11660
      13 -> 17        -0.17160
      13 -> 18         0.43687
      13 -> 19         0.13417
      13 -> 21        -0.15347
      13 -> 22         0.14251
      13 -> 23         0.21403
 
 Excited State   7:      Singlet-A      6.1915 eV  200.25 nm  f=0.3619  <S**2>=0.000
      12 -> 14         0.54830
      13 -> 15         0.36791
 
 Excited State   8:      Singlet-A      6.4161 eV  193.24 nm  f=0.0029  <S**2>=0.000
      13 -> 17         0.23054
      13 -> 19         0.60808
      13 -> 21        -0.14203
      13 -> 23        -0.10332
 
 Excited State   9:      Singlet-A      6.6917 eV  185.28 nm  f=0.1026  <S**2>=0.000
      12 -> 15         0.67710
      13 -> 14        -0.13721
 
 Excited State  10:      Singlet-A      6.8182 eV  181.84 nm  f=0.0028  <S**2>=0.000
       9 -> 15        -0.11082
      10 -> 14         0.29011
      11 -> 14         0.56630
      11 -> 15        -0.21884
 
 Excited State  11:      Singlet-A      7.1958 eV  172.30 nm  f=0.0001  <S**2>=0.000
      10 -> 14        -0.12410
      12 -> 19        -0.37885
      13 -> 18         0.38435
      13 -> 21         0.19206
      13 -> 22        -0.26905
      13 -> 23        -0.14568
 
 Excited State  12:      Singlet-A      7.2653 eV  170.65 nm  f=0.0003  <S**2>=0.000
      10 -> 14        -0.27257
      10 -> 15        -0.12444
      12 -> 17         0.12415
      12 -> 18        -0.27581
      12 -> 22        -0.10341
      13 -> 17        -0.21170
      13 -> 19         0.11517
      13 -> 20         0.12096
      13 -> 21         0.17352
      13 -> 22         0.36223
      13 -> 24        -0.15312
 
 Excited State  13:      Singlet-A      7.2891 eV  170.09 nm  f=0.0010  <S**2>=0.000
      10 -> 14         0.41110
      10 -> 15         0.24694
      11 -> 14        -0.27320
      12 -> 18        -0.20705
      12 -> 22        -0.11928
      13 -> 17        -0.15369
      13 -> 21         0.12185
      13 -> 23        -0.11930
      13 -> 24        -0.18301
 
 Excited State  14:      Singlet-A      7.5058 eV  165.19 nm  f=0.0144  <S**2>=0.000
      12 -> 17         0.11958
      12 -> 18        -0.12121
      12 -> 19         0.18595
      12 -> 20         0.14957
      12 -> 21        -0.17934
      12 -> 23        -0.15137
      13 -> 17         0.17933
      13 -> 20        -0.24698
      13 -> 21         0.26857
      13 -> 22        -0.18882
      13 -> 23         0.32706
 
 Excited State  15:      Singlet-A      7.5265 eV  164.73 nm  f=0.0005  <S**2>=0.000
      10 -> 14         0.17598
      12 -> 17         0.34550
      12 -> 20         0.11406
      12 -> 22         0.10827
      13 -> 17         0.18784
      13 -> 20         0.41768
      13 -> 22         0.16306
      13 -> 24         0.14171
 SavETr:  write IOETrn=   770 NScale= 10 NData=  16 NLR=1 NState=   15 LETran=     280.
 The selected state is a singlet
 CISAX will form     1 AO SS matrices at one time.
 NMat=     1 NSing=     1 JSym2X= 0.
 Leave Link  914 at Tue Dec 15 16:24:49 2015, MaxMem=    33554432 cpu:         0.1
 (Enter /home/Applications/g09/g09/l1002.exe)
 Minotr:  Closed shell wavefunction.
          Computing CIS/TD-HF/TD-KS derivatives.
          Using Z-Vector for PSCF gradient.
          Skipping F1 and S1 gradient terms here.
          IDoAtm=111111111
          Direct CPHF calculation.
          Differentiating once with respect to electric field.
                with respect to dipole field.
          Differentiating once with respect to nuclear coordinates.
          Electric field/nuclear overlap derivatives assumed to be zero.
          Requested convergence is 1.0D-10 RMS, and 1.0D-09 maximum.
          NewPWx=T KeepS1=F KeepF1=F KeepIn=T MapXYZ=F SortEE=F KeepMc=T.
          MDV=      33495423 using IRadAn=       0.
 Keep J ints in memory in canonical form, NReq=871704.
 FoFCou: FMM=F IPFlag=           0 FMFlag=           0 FMFlg1=           0
         NFxFlg=           0 DoJE=F BraDBF=F KetDBF=F FulRan=T
         wScrn=  0.000000 ICntrl=     600 IOpCl=  2 I1Cent=           0 NGrid=           0
         NMat0=    1 NMatS0=     54 NMatT0=    0 NMatD0=    1 NMtDS0=    0 NMtDT0=    0
 Symmetry not used in FoFCou.
          Solving linear equations separately, MaxMat=       0.
          There are     1 degrees of freedom in the 1st order CPHF.  IDoFFX=0 NUNeed=     1.
 LinEq1:  Iter=  0 NonCon=     1 RMS=1.29D-02 Max=1.06D-01 NDo=     1
 AX will form     1 AO Fock derivatives at one time.
 LinEq1:  Iter=  1 NonCon=     1 RMS=3.30D-03 Max=2.81D-02 NDo=     1
 LinEq1:  Iter=  2 NonCon=     1 RMS=4.88D-04 Max=2.71D-03 NDo=     1
 LinEq1:  Iter=  3 NonCon=     1 RMS=6.07D-05 Max=2.66D-04 NDo=     1
 LinEq1:  Iter=  4 NonCon=     1 RMS=7.56D-06 Max=3.77D-05 NDo=     1
 LinEq1:  Iter=  5 NonCon=     1 RMS=1.27D-06 Max=7.57D-06 NDo=     1
 LinEq1:  Iter=  6 NonCon=     1 RMS=1.81D-07 Max=6.23D-07 NDo=     1
 LinEq1:  Iter=  7 NonCon=     1 RMS=2.51D-08 Max=1.12D-07 NDo=     1
 LinEq1:  Iter=  8 NonCon=     1 RMS=2.92D-09 Max=1.14D-08 NDo=     1
 LinEq1:  Iter=  9 NonCon=     1 RMS=3.45D-10 Max=1.02D-09 NDo=     1
 LinEq1:  Iter= 10 NonCon=     0 RMS=4.09D-11 Max=2.12D-10 NDo=     1
 Linear equations converged to 1.000D-10 1.000D-09 after    10 iterations.
 End of Minotr F.D. properties file   721 does not exist.
 End of Minotr F.D. properties file   722 does not exist.
 End of Minotr F.D. properties file   788 does not exist.
 Leave Link 1002 at Tue Dec 15 16:24:49 2015, MaxMem=    33554432 cpu:         0.0
 (Enter /home/Applications/g09/g09/l601.exe)
 Copying SCF densities to generalized density rwf, IOpCl= 0 IROHF=0.

 **********************************************************************

            Population analysis using the SCF density.

 **********************************************************************

 Orbital symmetries:
       Occupied  (A) (A) (A) (A) (A) (A) (A) (A) (A) (A) (A) (A)
                 (A)
       Virtual   (A) (A) (A) (A) (A) (A) (A) (A) (A) (A) (A)
 The electronic state is 1-A.
 Alpha  occ. eigenvalues --   -1.53230  -1.23662  -1.08218  -0.82364  -0.80052
 Alpha  occ. eigenvalues --   -0.67469  -0.58417  -0.56010  -0.50978  -0.50489
 Alpha  occ. eigenvalues --   -0.48997  -0.40301  -0.33731
 Alpha virt. eigenvalues --    0.02345   0.06803   0.08990   0.13733   0.14485
 Alpha virt. eigenvalues --    0.15275   0.17248   0.18185   0.19057   0.20871
 Alpha virt. eigenvalues --    0.21727
     Molecular Orbital Coefficients:
                           1         2         3         4         5
                           O         O         O         O         O
     Eigenvalues --    -1.53230  -1.23662  -1.08218  -0.82364  -0.80052
   1 1   C  1S          0.30255  -0.49527   0.23776  -0.17938   0.38529
   2        1PX         0.11272  -0.09025  -0.10304  -0.10552  -0.19552
   3        1PY        -0.06464   0.00864  -0.19248  -0.33640   0.00934
   4        1PZ        -0.00250   0.00367  -0.00177  -0.00116   0.00039
   5 2   C  1S          0.33130  -0.19455   0.50874   0.38570  -0.19986
   6        1PX         0.13766   0.12004  -0.00225  -0.14968  -0.21318
   7        1PY         0.08275  -0.17508   0.01212  -0.03103   0.29102
   8        1PZ         0.00390  -0.00160   0.00565   0.00171  -0.00046
   9 3   O  1S          0.62342   0.60340   0.13116  -0.30171   0.00612
  10        1PX        -0.05595   0.06253  -0.25475   0.01200   0.45676
  11        1PY         0.18697   0.01838  -0.14797   0.19702   0.18206
  12        1PZ        -0.00282  -0.00133  -0.00098  -0.00204   0.00401
  13 4   C  1S          0.39542  -0.01804  -0.50845   0.41287   0.06191
  14        1PX        -0.15956   0.05232   0.00095   0.14046   0.11832
  15        1PY        -0.10244  -0.23814  -0.07930   0.00079  -0.34872
  16        1PZ         0.00261   0.00140  -0.00336   0.00319   0.00571
  17 5   C  1S          0.31083  -0.42550  -0.34834  -0.29200  -0.28306
  18        1PX        -0.01003   0.09867  -0.18534   0.27459  -0.21319
  19        1PY        -0.13550   0.06001   0.03461  -0.15507  -0.05915
  20        1PZ         0.00048  -0.00045   0.00042  -0.00101   0.00402
  21 6   H  1S          0.06522  -0.12758  -0.13354  -0.17741  -0.17279
  22 7   H  1S          0.09030   0.00828  -0.20619   0.26561   0.08913
  23 8   H  1S          0.07327  -0.04782   0.20261   0.23486  -0.16126
  24 9   H  1S          0.06393  -0.14973   0.09845  -0.09645   0.26261
                           6         7         8         9        10
                           O         O         O         O         O
     Eigenvalues --    -0.67469  -0.58417  -0.56010  -0.50978  -0.50489
   1 1   C  1S         -0.06660   0.00828  -0.15432   0.00365   0.04492
   2        1PX         0.25769   0.00657   0.08137   0.55378  -0.17202
   3        1PY        -0.13518  -0.00748   0.03602   0.09965   0.51002
   4        1PZ        -0.00463   0.23337   0.00955  -0.00572   0.02020
   5 2   C  1S         -0.08933  -0.01333   0.12925   0.06895  -0.03947
   6        1PX         0.25853   0.01368  -0.34643   0.02747   0.20561
   7        1PY         0.24315   0.01117  -0.22504  -0.09875  -0.44484
   8        1PZ        -0.00275   0.33333   0.01375  -0.00656   0.00332
   9 3   O  1S         -0.18495   0.00578  -0.06806  -0.04504  -0.15375
  10        1PX        -0.19361  -0.02703   0.36279   0.07589  -0.32309
  11        1PY         0.42341  -0.00783   0.31634  -0.11516   0.31706
  12        1PZ        -0.01169   0.76777   0.04328  -0.00848  -0.01229
  13 4   C  1S         -0.06855  -0.00084  -0.11537  -0.01364   0.11730
  14        1PX        -0.38006   0.01076  -0.30928   0.35189  -0.00515
  15        1PY        -0.10853   0.02328  -0.31504  -0.17143  -0.12327
  16        1PZ        -0.00691   0.42225   0.02181   0.00668   0.00526
  17 5   C  1S         -0.10760  -0.00783   0.16120   0.01336  -0.08176
  18        1PX        -0.06229   0.00363  -0.05774  -0.49447  -0.18128
  19        1PY        -0.31785  -0.01657   0.17752  -0.08759  -0.06889
  20        1PZ        -0.00059   0.25165   0.01035   0.00967   0.01480
  21 6   H  1S         -0.24989  -0.01796   0.20859  -0.12836  -0.12894
  22 7   H  1S         -0.27137   0.01664  -0.29802   0.27992   0.07949
  23 8   H  1S         -0.25956  -0.01590   0.35226   0.10705   0.18628
  24 9   H  1S         -0.21188  -0.00081  -0.12798  -0.36708   0.32599
                          11        12        13        14        15
                           O         O         O         V         V
     Eigenvalues --    -0.48997  -0.40301  -0.33731   0.02345   0.06803
   1 1   C  1S         -0.04291   0.00527   0.00539  -0.00105  -0.00174
   2        1PX        -0.04092   0.00711   0.00753  -0.00614  -0.00561
   3        1PY        -0.13012  -0.02071  -0.00490  -0.00495   0.00809
   4        1PZ        -0.00427   0.62869   0.25791  -0.35675  -0.59575
   5 2   C  1S          0.09327  -0.00284  -0.01212  -0.01760  -0.01420
   6        1PX         0.24724  -0.00086  -0.00173  -0.00544  -0.01847
   7        1PY         0.20503   0.00543  -0.00597  -0.00127   0.01145
   8        1PZ         0.00369   0.29407   0.59488   0.56275   0.36081
   9 3   O  1S         -0.10820  -0.00062  -0.00133   0.00149   0.00641
  10        1PX        -0.22157   0.01118  -0.00337  -0.00305  -0.01746
  11        1PY         0.35113  -0.00779   0.00051   0.00154   0.00995
  12        1PZ         0.00548  -0.50592   0.13586  -0.36298   0.04293
  13 4   C  1S         -0.04595  -0.00374   0.00999  -0.01312   0.00895
  14        1PX         0.24442  -0.00139   0.00859  -0.01087   0.00998
  15        1PY        -0.25676  -0.00318  -0.00656   0.00410   0.00574
  16        1PZ         0.00871   0.03732  -0.57049   0.58348  -0.39086
  17 5   C  1S         -0.01762   0.00351  -0.00317   0.00383   0.00137
  18        1PX        -0.04660   0.01278  -0.01189  -0.00241   0.00004
  19        1PY         0.54862   0.01083  -0.00238  -0.00710   0.01362
  20        1PZ        -0.00562   0.50964  -0.48469  -0.28752   0.59857
  21 6   H  1S          0.42736   0.00748   0.00187  -0.00067  -0.00936
  22 7   H  1S          0.17554  -0.00424  -0.00141   0.01469  -0.00851
  23 8   H  1S         -0.19183  -0.00278   0.00712   0.01249   0.01309
  24 9   H  1S         -0.04380  -0.00737  -0.00463  -0.00006  -0.00652
                          16        17        18        19        20
                           V         V         V         V         V
     Eigenvalues --     0.08990   0.13733   0.14485   0.15275   0.17248
   1 1   C  1S         -0.08052  -0.33332   0.15690  -0.02937  -0.35438
   2        1PX         0.07406   0.06951   0.20459  -0.24319   0.29702
   3        1PY         0.00587  -0.12010  -0.32703  -0.22967  -0.17972
   4        1PZ        -0.02480  -0.00220  -0.00859  -0.00500   0.00497
   5 2   C  1S          0.29897   0.14235  -0.42499  -0.03945  -0.03277
   6        1PX         0.50505  -0.02378   0.27638  -0.21898  -0.25843
   7        1PY        -0.16014  -0.01236  -0.01823  -0.24575   0.11385
   8        1PZ         0.02803   0.00683  -0.01690  -0.00197  -0.00249
   9 3   O  1S         -0.21365   0.01436  -0.02268  -0.05546   0.06000
  10        1PX         0.35467   0.10512  -0.00156  -0.20822  -0.16390
  11        1PY        -0.36296   0.10618  -0.02111  -0.24183   0.03044
  12        1PZ         0.00970   0.00327   0.00555   0.00321  -0.00674
  13 4   C  1S          0.18174  -0.45069  -0.13532   0.10477   0.25108
  14        1PX         0.00929  -0.06532   0.02305  -0.34614   0.18745
  15        1PY        -0.31343  -0.11397  -0.12700  -0.20581   0.14790
  16        1PZ         0.00473  -0.02189  -0.00843  -0.00673   0.01276
  17 5   C  1S         -0.01606   0.35246  -0.12193  -0.08012  -0.06886
  18        1PX         0.08246   0.08095   0.17983  -0.34817  -0.32778
  19        1PY        -0.04839  -0.15388  -0.25225  -0.27090  -0.00411
  20        1PZ         0.01133   0.00780   0.00808   0.01498  -0.00240
  21 6   H  1S          0.07973  -0.18281   0.33309   0.39468   0.10644
  22 7   H  1S         -0.27045   0.47359   0.09880   0.23358  -0.33295
  23 8   H  1S         -0.21677  -0.15241   0.51636  -0.27946  -0.01296
  24 9   H  1S          0.21409   0.41200   0.18604  -0.09753   0.53556
                          21        22        23        24
                           V         V         V         V
     Eigenvalues --     0.18185   0.19057   0.20871   0.21727
   1 1   C  1S          0.02483   0.21086   0.28236  -0.01753
   2        1PX         0.27603   0.01561   0.41170  -0.25003
   3        1PY         0.42297  -0.16708  -0.23051  -0.26814
   4        1PZ        -0.00380  -0.00732  -0.01247  -0.00457
   5 2   C  1S          0.24875  -0.03875  -0.08395   0.03176
   6        1PX        -0.10487  -0.20521  -0.06595   0.32091
   7        1PY         0.06109  -0.41894  -0.42563  -0.23884
   8        1PZ         0.01375  -0.00177  -0.00294   0.00254
   9 3   O  1S          0.05555   0.05883   0.00042   0.05569
  10        1PX         0.14336  -0.11229   0.03231   0.38536
  11        1PY         0.14995   0.19923   0.01399   0.29825
  12        1PZ        -0.00337  -0.00416   0.00063   0.00022
  13 4   C  1S         -0.14458  -0.12412   0.06715  -0.08227
  14        1PX        -0.03174   0.50890  -0.29630   0.07972
  15        1PY         0.25237  -0.13971   0.14597   0.53536
  16        1PZ        -0.00613   0.00557  -0.00355  -0.00679
  17 5   C  1S         -0.40237   0.17219  -0.22063   0.00469
  18        1PX         0.19940   0.26754   0.11729  -0.38528
  19        1PY        -0.25979  -0.26144   0.44689  -0.06405
  20        1PZ         0.00424  -0.00278  -0.00189   0.00871
  21 6   H  1S          0.46566   0.04246  -0.18674   0.08246
  22 7   H  1S          0.12201  -0.28355   0.15509  -0.01706
  23 8   H  1S         -0.18163  -0.31676  -0.21491  -0.02143
  24 9   H  1S          0.04268  -0.07980   0.15100  -0.06072
     Density Matrix:
                           1         2         3         4         5
   1 1   C  1S          1.21245
   2        1PX        -0.07128   0.98389
   3        1PY         0.05288  -0.02785   0.92322
   4        1PZ         0.00780   0.00135  -0.00769   1.03365
   5 2   C  1S          0.30329   0.05862  -0.52217  -0.02187   1.27033
   6        1PX        -0.07711   0.14124   0.13773   0.00167  -0.09042
   7        1PY         0.44362   0.05622  -0.60115  -0.01762  -0.04702
   8        1PZ         0.01674   0.00945  -0.02402   0.83259  -0.01096
   9 3   O  1S         -0.00428  -0.02860  -0.01014  -0.00157   0.07764
  10        1PX         0.03472   0.01981  -0.07148  -0.00163  -0.37017
  11        1PY        -0.06255  -0.03931   0.02179  -0.00053   0.07635
  12        1PZ        -0.00163  -0.00099   0.00094  -0.20721  -0.01232
  13 4   C  1S         -0.02588  -0.01988   0.00687   0.00257   0.00794
  14        1PX         0.02033   0.00403   0.01044  -0.00007   0.01793
  15        1PY        -0.01112  -0.06105  -0.05398  -0.00358  -0.04020
  16        1PZ        -0.00295   0.00047   0.00454  -0.04971   0.00931
  17 5   C  1S          0.28927   0.40603   0.24228  -0.00309  -0.02886
  18        1PX        -0.44444  -0.47938  -0.37350   0.01048  -0.00283
  19        1PY        -0.18147  -0.24589  -0.02350   0.00584   0.02492
  20        1PZ         0.00748   0.00948  -0.00021   0.50899   0.00257
  21 6   H  1S         -0.04765  -0.05746  -0.02889   0.00039   0.06035
  22 7   H  1S          0.04423   0.05053   0.03384  -0.00317   0.05220
  23 8   H  1S         -0.06087  -0.00952   0.10778   0.00772   0.62090
  24 9   H  1S          0.56872  -0.70653   0.34023   0.00389  -0.05816
                           6         7         8         9        10
   6        1PX         0.78484
   7        1PY         0.06090   0.96587
   8        1PZ        -0.00121  -0.00316   1.10358
   9 3   O  1S          0.23612  -0.04050   0.00319   1.87452
  10        1PX        -0.78806   0.15149  -0.01308   0.09960   1.21983
  11        1PY         0.21719   0.06257   0.00362  -0.26305  -0.08433
  12        1PZ        -0.01963   0.00217   0.37722   0.00684  -0.00932
  13 4   C  1S          0.02604  -0.03225   0.00571   0.10565   0.16424
  14        1PX         0.03225   0.00526   0.00628  -0.11908   0.00588
  15        1PY         0.03917  -0.01070  -0.00329  -0.24843  -0.31689
  16        1PZ        -0.00071   0.00404  -0.37467   0.00405   0.00099
  17 5   C  1S         -0.01605  -0.01674  -0.00364   0.00094   0.04572
  18        1PX        -0.08639   0.05407  -0.00186   0.03097  -0.03513
  19        1PY        -0.00108   0.00147   0.00254   0.00897  -0.01158
  20        1PZ         0.00267  -0.00272  -0.10895  -0.00100   0.00651
  21 6   H  1S         -0.00829   0.06224   0.00471   0.01980   0.00638
  22 7   H  1S          0.11178  -0.00907  -0.00246  -0.03718  -0.01503
  23 8   H  1S         -0.38488  -0.62543   0.00973  -0.03445   0.07866
  24 9   H  1S         -0.03054  -0.05673  -0.00456   0.02437  -0.09630
                          11        12        13        14        15
  11        1PY         1.29140
  12        1PZ         0.01133   1.73236
  13 4   C  1S          0.39719  -0.00871   1.24736
  14        1PX        -0.38992   0.00035   0.09197   0.97163
  15        1PY        -0.66080   0.01415   0.05245  -0.04181   0.83447
  16        1PZ         0.01344   0.45752  -0.00745   0.00141   0.00196
  17 5   C  1S         -0.07081   0.00060   0.29878  -0.30991   0.33725
  18        1PX        -0.03805  -0.00447   0.37408  -0.24615   0.42187
  19        1PY         0.06366  -0.00435  -0.34156   0.33064  -0.24369
  20        1PZ        -0.00202  -0.26061  -0.01287  -0.00591   0.00161
  21 6   H  1S          0.09483  -0.00114  -0.05579   0.05531  -0.03294
  22 7   H  1S         -0.07714   0.00473   0.61198   0.74033  -0.00970
  23 8   H  1S         -0.03838   0.00546   0.04050  -0.04135  -0.06207
  24 9   H  1S          0.04711  -0.00108   0.05779  -0.04380   0.05397
                          16        17        18        19        20
  16        1PZ         1.01175
  17 5   C  1S          0.00246   1.21844
  18        1PX         0.00739   0.01222   0.90421
  19        1PY         0.00690   0.08021   0.02156   0.99411
  20        1PZ         0.80426   0.00291   0.00833  -0.00116   1.11690
  21 6   H  1S         -0.00205   0.56752   0.14018   0.77607  -0.01069
  22 7   H  1S          0.01833  -0.06251  -0.06961   0.06802   0.00546
  23 8   H  1S         -0.00421   0.04799  -0.05250  -0.02974  -0.00189
  24 9   H  1S          0.00080  -0.05102   0.05774   0.03083  -0.00020
                          21        22        23        24
  21 6   H  1S          0.84355
  22 7   H  1S          0.00800   0.81494
  23 8   H  1S         -0.02221  -0.02252   0.80919
  24 9   H  1S         -0.01115  -0.01369   0.01307   0.83750
    Full Mulliken population analysis:
                           1         2         3         4         5
   1 1   C  1S          1.21245
   2        1PX         0.00000   0.98389
   3        1PY         0.00000   0.00000   0.92322
   4        1PZ         0.00000   0.00000   0.00000   1.03365
   5 2   C  1S          0.00000   0.00000   0.00000   0.00000   1.27033
   6        1PX         0.00000   0.00000   0.00000   0.00000   0.00000
   7        1PY         0.00000   0.00000   0.00000   0.00000   0.00000
   8        1PZ         0.00000   0.00000   0.00000   0.00000   0.00000
   9 3   O  1S          0.00000   0.00000   0.00000   0.00000   0.00000
  10        1PX         0.00000   0.00000   0.00000   0.00000   0.00000
  11        1PY         0.00000   0.00000   0.00000   0.00000   0.00000
  12        1PZ         0.00000   0.00000   0.00000   0.00000   0.00000
  13 4   C  1S          0.00000   0.00000   0.00000   0.00000   0.00000
  14        1PX         0.00000   0.00000   0.00000   0.00000   0.00000
  15        1PY         0.00000   0.00000   0.00000   0.00000   0.00000
  16        1PZ         0.00000   0.00000   0.00000   0.00000   0.00000
  17 5   C  1S          0.00000   0.00000   0.00000   0.00000   0.00000
  18        1PX         0.00000   0.00000   0.00000   0.00000   0.00000
  19        1PY         0.00000   0.00000   0.00000   0.00000   0.00000
  20        1PZ         0.00000   0.00000   0.00000   0.00000   0.00000
  21 6   H  1S          0.00000   0.00000   0.00000   0.00000   0.00000
  22 7   H  1S          0.00000   0.00000   0.00000   0.00000   0.00000
  23 8   H  1S          0.00000   0.00000   0.00000   0.00000   0.00000
  24 9   H  1S          0.00000   0.00000   0.00000   0.00000   0.00000
                           6         7         8         9        10
   6        1PX         0.78484
   7        1PY         0.00000   0.96587
   8        1PZ         0.00000   0.00000   1.10358
   9 3   O  1S          0.00000   0.00000   0.00000   1.87452
  10        1PX         0.00000   0.00000   0.00000   0.00000   1.21983
  11        1PY         0.00000   0.00000   0.00000   0.00000   0.00000
  12        1PZ         0.00000   0.00000   0.00000   0.00000   0.00000
  13 4   C  1S          0.00000   0.00000   0.00000   0.00000   0.00000
  14        1PX         0.00000   0.00000   0.00000   0.00000   0.00000
  15        1PY         0.00000   0.00000   0.00000   0.00000   0.00000
  16        1PZ         0.00000   0.00000   0.00000   0.00000   0.00000
  17 5   C  1S          0.00000   0.00000   0.00000   0.00000   0.00000
  18        1PX         0.00000   0.00000   0.00000   0.00000   0.00000
  19        1PY         0.00000   0.00000   0.00000   0.00000   0.00000
  20        1PZ         0.00000   0.00000   0.00000   0.00000   0.00000
  21 6   H  1S          0.00000   0.00000   0.00000   0.00000   0.00000
  22 7   H  1S          0.00000   0.00000   0.00000   0.00000   0.00000
  23 8   H  1S          0.00000   0.00000   0.00000   0.00000   0.00000
  24 9   H  1S          0.00000   0.00000   0.00000   0.00000   0.00000
                          11        12        13        14        15
  11        1PY         1.29140
  12        1PZ         0.00000   1.73236
  13 4   C  1S          0.00000   0.00000   1.24736
  14        1PX         0.00000   0.00000   0.00000   0.97163
  15        1PY         0.00000   0.00000   0.00000   0.00000   0.83447
  16        1PZ         0.00000   0.00000   0.00000   0.00000   0.00000
  17 5   C  1S          0.00000   0.00000   0.00000   0.00000   0.00000
  18        1PX         0.00000   0.00000   0.00000   0.00000   0.00000
  19        1PY         0.00000   0.00000   0.00000   0.00000   0.00000
  20        1PZ         0.00000   0.00000   0.00000   0.00000   0.00000
  21 6   H  1S          0.00000   0.00000   0.00000   0.00000   0.00000
  22 7   H  1S          0.00000   0.00000   0.00000   0.00000   0.00000
  23 8   H  1S          0.00000   0.00000   0.00000   0.00000   0.00000
  24 9   H  1S          0.00000   0.00000   0.00000   0.00000   0.00000
                          16        17        18        19        20
  16        1PZ         1.01175
  17 5   C  1S          0.00000   1.21844
  18        1PX         0.00000   0.00000   0.90421
  19        1PY         0.00000   0.00000   0.00000   0.99411
  20        1PZ         0.00000   0.00000   0.00000   0.00000   1.11690
  21 6   H  1S          0.00000   0.00000   0.00000   0.00000   0.00000
  22 7   H  1S          0.00000   0.00000   0.00000   0.00000   0.00000
  23 8   H  1S          0.00000   0.00000   0.00000   0.00000   0.00000
  24 9   H  1S          0.00000   0.00000   0.00000   0.00000   0.00000
                          21        22        23        24
  21 6   H  1S          0.84355
  22 7   H  1S          0.00000   0.81494
  23 8   H  1S          0.00000   0.00000   0.80919
  24 9   H  1S          0.00000   0.00000   0.00000   0.83750
     Gross orbital populations:
                           1
   1 1   C  1S          1.21245
   2        1PX         0.98389
   3        1PY         0.92322
   4        1PZ         1.03365
   5 2   C  1S          1.27033
   6        1PX         0.78484
   7        1PY         0.96587
   8        1PZ         1.10358
   9 3   O  1S          1.87452
  10        1PX         1.21983
  11        1PY         1.29140
  12        1PZ         1.73236
  13 4   C  1S          1.24736
  14        1PX         0.97163
  15        1PY         0.83447
  16        1PZ         1.01175
  17 5   C  1S          1.21844
  18        1PX         0.90421
  19        1PY         0.99411
  20        1PZ         1.11690
  21 6   H  1S          0.84355
  22 7   H  1S          0.81494
  23 8   H  1S          0.80919
  24 9   H  1S          0.83750
          Condensed to atoms (all electrons):
               1          2          3          4          5          6
     1  C    4.153222   0.000000   0.000000   0.000000   0.000000   0.000000
     2  C    0.000000   4.124615   0.000000   0.000000   0.000000   0.000000
     3  O    0.000000   0.000000   6.118119   0.000000   0.000000   0.000000
     4  C    0.000000   0.000000   0.000000   4.065199   0.000000   0.000000
     5  C    0.000000   0.000000   0.000000   0.000000   4.233661   0.000000
     6  H    0.000000   0.000000   0.000000   0.000000   0.000000   0.843549
     7  H    0.000000   0.000000   0.000000   0.000000   0.000000   0.000000
     8  H    0.000000   0.000000   0.000000   0.000000   0.000000   0.000000
     9  H    0.000000   0.000000   0.000000   0.000000   0.000000   0.000000
               7          8          9
     1  C    0.000000   0.000000   0.000000
     2  C    0.000000   0.000000   0.000000
     3  O    0.000000   0.000000   0.000000
     4  C    0.000000   0.000000   0.000000
     5  C    0.000000   0.000000   0.000000
     6  H    0.000000   0.000000   0.000000
     7  H    0.814943   0.000000   0.000000
     8  H    0.000000   0.809192   0.000000
     9  H    0.000000   0.000000   0.837501
 Mulliken charges:
               1
     1  C   -0.153222
     2  C   -0.124615
     3  O   -0.118119
     4  C   -0.065199
     5  C   -0.233661
     6  H    0.156451
     7  H    0.185057
     8  H    0.190808
     9  H    0.162499
 Sum of Mulliken charges =   0.00000
 Mulliken charges with hydrogens summed into heavy atoms:
               1
     1  C    0.009278
     2  C    0.066193
     3  O   -0.118119
     4  C    0.119858
     5  C   -0.077210
 Charge=              0.0000 electrons
 Dipole moment (field-independent basis, Debye):
    X=             -0.3161    Y=              0.4721    Z=              0.0461  Tot=              0.5700
 N-N= 1.027877311969D+02 E-N=-1.700014848036D+02  KE=-1.645784909673D+01
 Orbital energies and kinetic energies (alpha):
                                 1                 2
   1         O                -1.532297         -1.294297
   2         O                -1.236624         -1.048464
   3         O                -1.082184         -0.950148
   4         O                -0.823642         -0.731711
   5         O                -0.800523         -0.692905
   6         O                -0.674693         -0.598370
   7         O                -0.584174         -0.477639
   8         O                -0.560103         -0.495942
   9         O                -0.509777         -0.435732
  10         O                -0.504887         -0.422954
  11         O                -0.489968         -0.422547
  12         O                -0.403010         -0.350071
  13         O                -0.337307         -0.308145
  14         V                 0.023452         -0.201299
  15         V                 0.068025         -0.188047
  16         V                 0.089896         -0.191502
  17         V                 0.137327         -0.252030
  18         V                 0.144851         -0.218484
  19         V                 0.152749         -0.165868
  20         V                 0.172476         -0.198347
  21         V                 0.181855         -0.168287
  22         V                 0.190568         -0.128987
  23         V                 0.208712         -0.118062
  24         V                 0.217269         -0.056315
 Total kinetic energy from orbitals=-1.645784909673D+01
 Leave Link  601 at Tue Dec 15 16:24:49 2015, MaxMem=    33554432 cpu:         0.0
 (Enter /home/Applications/g09/g09/l701.exe)
 Compute integral first derivatives.
 ... and contract with generalized density number  6.
 Leave Link  701 at Tue Dec 15 16:24:49 2015, MaxMem=    33554432 cpu:         0.0
 (Enter /home/Applications/g09/g09/l702.exe)
 L702 exits ... SP integral derivatives will be done elsewhere.
 Leave Link  702 at Tue Dec 15 16:24:49 2015, MaxMem=    33554432 cpu:         0.0
 (Enter /home/Applications/g09/g09/l703.exe)
 Compute integral first derivatives, UseDBF=F ICtDFT=           0.
 Integral derivatives from FoFJK, PRISM(SPDF).
 Calling FoFJK, ICntrl=  10005127 FMM=F ISym2X=0 I1Cent= 0 IOpClX= 0 NMat=1 NMatS=1 NMatT=0.
 FoFJK:  IHMeth= 8 ICntrl=10005127 DoSepK=F KAlg= 0 I1Cent=   0 FoldK=F
 IRaf=         0 NMat=   1 IRICut=       1 DoRegI=T DoRafI=F ISym2E= 0.
 FoFCou: FMM=F IPFlag=           0 FMFlag=      100000 FMFlg1=         800
         NFxFlg=           0 DoJE=F BraDBF=F KetDBF=F FulRan=T
         wScrn=  0.000000 ICntrl=10005127 IOpCl=  0 I1Cent=           0 NGrid=           0
         NMat0=    1 NMatS0=      1 NMatT0=    0 NMatD0=    1 NMtDS0=    0 NMtDT0=    0
 Symmetry not used in FoFCou.
 Leave Link  703 at Tue Dec 15 16:24:49 2015, MaxMem=    33554432 cpu:         0.0
 (Enter /home/Applications/g09/g09/l716.exe)
 Dipole        = 9.19139939D-04 3.60852269D-01 3.91939389D-02
 ***** Axes restored to original set *****
 -------------------------------------------------------------------
 Center     Atomic                   Forces (Hartrees/Bohr)
 Number     Number              X              Y              Z
 -------------------------------------------------------------------
      1        6           0.077201821   -0.033288007    0.001805013
      2        6          -0.060927840   -0.002451726   -0.003710125
      3        8          -0.043817570   -0.040587537    0.002949554
      4        6          -0.029952756    0.023396589   -0.001747550
      5        6           0.091705715    0.034278652    0.001226514
      6        1          -0.012999348   -0.012110697   -0.001104355
      7        1          -0.005831773    0.017156042    0.000062891
      8        1          -0.006077974   -0.005256240    0.001038772
      9        1          -0.009300274    0.018862924   -0.000520715
 -------------------------------------------------------------------
 Cartesian Forces:  Max     0.091705715 RMS     0.031368187
 Z-matrix is all fixed cartesians, so copy forces.
 Force constants in Cartesian coordinates: 
                1             2             3             4             5 
      1  0.870685D+00
      2 -0.195600D-02  0.867438D+00
      3 -0.141407D-01 -0.894213D-03  0.217383D+00
      4 -0.490471D+00 -0.123269D+00  0.134107D-01  0.848407D+00
      5 -0.100401D+00 -0.225069D+00  0.495879D-02  0.122039D+00  0.777260D+00
      6  0.120650D-01  0.439404D-02 -0.103103D+00 -0.630852D-02 -0.599826D-02
      7 -0.943269D-02  0.260782D-01 -0.804918D-03 -0.211292D+00  0.927311D-01
      8 -0.711119D-02  0.196741D-01 -0.395887D-03  0.134008D+00 -0.248220D+00
      9  0.604951D-03 -0.106037D-02  0.378114D-02 -0.510814D-02  0.559176D-02
     10  0.107939D-01  0.311358D-03 -0.218508D-03  0.224040D-01  0.169352D-01
     11  0.349276D-01  0.100544D-02 -0.825721D-03 -0.169383D-01 -0.128041D-01
     12  0.311629D-03 -0.447004D-04  0.165527D-02  0.490949D-03  0.493485D-03
     13 -0.180016D+00  0.222932D-01  0.971607D-03  0.126088D-01 -0.349803D-01
     14 -0.269889D-02 -0.484620D+00 -0.192987D-02  0.364641D-03 -0.101352D-02
     15  0.875939D-03 -0.408353D-02 -0.951216D-01 -0.537730D-03  0.174856D-02
     16  0.179884D-01  0.515092D-03  0.640418D-05 -0.183892D-05  0.000000D+00
     17 -0.226798D-01 -0.646469D-03 -0.446429D-03 -0.124662D-05  0.000000D+00
     18 -0.281853D-03 -0.154851D-03  0.217301D-01  0.176760D-03 -0.326796D-04
     19  0.000000D+00 -0.101011D-05  0.151860D-03  0.362704D-05 -0.170683D-05
     20  0.134151D-05 -0.248007D-05  0.372851D-03 -0.226320D-05  0.106503D-05
     21  0.233318D-04 -0.431340D-04  0.648473D-02 -0.917192D-04  0.431616D-04
     22  0.916059D-02 -0.254244D-01 -0.433969D-03 -0.175334D+00 -0.113872D+00
     23 -0.501472D-02  0.138815D-01 -0.206632D-03 -0.108502D+00 -0.311506D+00
     24  0.388321D-03  0.144370D-02  0.307952D-01 -0.332592D-02 -0.525905D-02
     25 -0.228708D+00  0.101452D+00  0.105751D-02 -0.632351D-02  0.175496D-01
     26  0.104933D+00 -0.191662D+00 -0.632892D-03 -0.769934D-02  0.213510D-01
     27  0.153367D-03  0.443063D-03 -0.836049D-01  0.129360D-02 -0.154577D-02
                6             7             8             9            10 
      6  0.189845D+00
      7 -0.350182D-02  0.495310D+00
      8  0.470718D-02  0.991229D-01  0.622937D+00
      9 -0.381755D-01  0.683215D-02 -0.356309D-02  0.432883D-01
     10  0.494450D-03 -0.307599D+00 -0.230977D+00 -0.439183D-02  0.909286D+00
     11 -0.360818D-03 -0.189907D+00 -0.399200D+00 -0.190455D-02  0.187256D-02
     12 -0.342263D-02 -0.323696D-02 -0.116984D-02 -0.401387D-01  0.631528D-02
     13 -0.442933D-03 -0.888522D-02  0.670943D-02  0.751506D-04 -0.457234D+00
     14  0.789145D-05 -0.287432D-01  0.217264D-01  0.437900D-03  0.988927D-01
     15 -0.247727D-02 -0.444416D-03  0.797952D-04  0.881683D-02  0.390511D-02
     16 -0.581290D-04  0.000000D+00  0.000000D+00 -0.231336D-05 -0.531253D-02
     17 -0.394061D-04  0.000000D+00  0.000000D+00 -0.108963D-03  0.669064D-02
     18  0.558747D-02  0.181691D-04 -0.426709D-04  0.554616D-02  0.451019D-03
     19 -0.198356D-03  0.221076D-01 -0.167183D-01  0.131709D-02 -0.172339D+00
     20  0.123770D-03  0.115459D-01 -0.873246D-02  0.901895D-03  0.106274D+00
     21  0.501595D-02  0.477742D-03 -0.385937D-03  0.475430D-02 -0.655158D-02
     22 -0.234102D-02  0.197898D-01  0.149611D-01  0.550885D-03  0.000000D+00
     23 -0.298193D-02 -0.108295D-01 -0.818927D-02 -0.398208D-03  0.000000D+00
     24 -0.781940D-01  0.569080D-03  0.580676D-03  0.672729D-02 -0.249735D-04
     25  0.291308D-03  0.205603D-05  0.428917D-05  0.122053D-03  0.000000D+00
     26  0.147542D-03  0.174561D-05  0.364160D-05  0.103626D-03  0.000000D+00
     27  0.249238D-01  0.909695D-04  0.189776D-03  0.540029D-02  0.210264D-04
               11            12            13            14            15 
     11  0.916041D+00
     12 -0.965653D-02  0.184477D+00
     13  0.742523D-01  0.243187D-02  0.842355D+00
     14 -0.209396D+00 -0.275600D-03  0.888255D-02  0.846783D+00
     15 -0.118591D-02 -0.976974D-01 -0.633337D-03  0.538865D-02  0.208802D+00
     16 -0.171871D-01 -0.388557D-03 -0.235121D+00 -0.102906D+00 -0.222282D-02
     17  0.216536D-01  0.486475D-04 -0.103591D+00 -0.187476D+00 -0.201613D-02
     18  0.105942D-02  0.218797D-01 -0.271025D-02 -0.267879D-02 -0.783995D-01
     19  0.112980D+00 -0.589315D-02  0.792813D-02  0.256851D-01 -0.138956D-02
     20 -0.317300D+00  0.106424D-01  0.412875D-02  0.133550D-01  0.429440D-03
     21  0.129012D-01 -0.739632D-01 -0.892091D-04 -0.754853D-03  0.254760D-01
     22  0.000000D+00 -0.386309D-04  0.108054D-04 -0.199771D-05  0.341563D-03
     23  0.000000D+00  0.143570D-05 -0.950909D-05  0.175804D-05 -0.300586D-03
     24  0.117521D-04  0.136575D-02  0.249769D-03 -0.461775D-04  0.789531D-02
     25  0.000000D+00  0.756450D-05  0.183539D-01  0.524893D-03  0.105252D-03
     26  0.000000D+00 -0.392575D-04  0.223149D-01  0.639442D-03 -0.602896D-04
     27 -0.388720D-04  0.584399D-02  0.147336D-03 -0.149150D-03  0.227057D-01
               16            17            18            19            20 
     16  0.222447D+00
     17  0.119578D+00  0.166458D+00
     18  0.257270D-02  0.232125D-02  0.414014D-01
     19  0.000000D+00  0.423352D-05 -0.215484D-03  0.142299D+00
     20  0.000000D+00  0.103943D-04 -0.529064D-03 -0.121948D+00  0.312669D+00
     21  0.383809D-05  0.180780D-03 -0.920163D-02  0.622760D-02 -0.119412D-01
     22  0.000000D+00  0.000000D+00  0.000000D+00  0.000000D+00  0.000000D+00
     23  0.000000D+00  0.000000D+00  0.000000D+00  0.000000D+00  0.000000D+00
     24  0.000000D+00  0.000000D+00  0.000000D+00  0.000000D+00  0.000000D+00
     25  0.000000D+00  0.000000D+00 -0.110589D-04  0.000000D+00  0.000000D+00
     26  0.000000D+00  0.000000D+00  0.573925D-04  0.000000D+00  0.000000D+00
     27  0.888832D-04  0.602546D-04 -0.854361D-02  0.000000D+00  0.000000D+00
               21            22            23            24            25 
     21  0.414338D-01
     22  0.000000D+00  0.146383D+00
     23  0.000000D+00  0.124346D+00  0.305804D+00
     24  0.000000D+00  0.238719D-02  0.347581D-02  0.421826D-01
     25  0.000000D+00 -0.105327D-04  0.926908D-05 -0.243465D-03  0.216686D+00
     26  0.000000D+00 -0.894245D-05  0.786964D-05 -0.206707D-03 -0.119541D+00
     27  0.000000D+00 -0.466021D-03  0.410113D-03 -0.107722D-01 -0.132916D-02
               26            27 
     26  0.169660D+00
     27  0.630586D-03  0.440469D-01
 Leave Link  716 at Tue Dec 15 16:24:49 2015, MaxMem=    33554432 cpu:         0.0
 (Enter /home/Applications/g09/g09/l103.exe)

 GradGradGradGradGradGradGradGradGradGradGradGradGradGradGradGradGradGrad
 Berny optimization.
 Search for a local minimum.
 Step number   1 out of a maximum of    2
 All quantities printed in internal units (Hartrees-Bohrs-Radians)
 Second derivative matrix not updated -- first step.
 ITU=  0
     Eigenvalues ---    0.01967   0.02634   0.06793   0.07452   0.07493
     Eigenvalues ---    0.07644   0.12880   0.14956   0.15994   0.23190
     Eigenvalues ---    0.24219   0.29750   0.40175   0.43558   0.60417
     Eigenvalues ---    0.75765   0.98402   1.27019   1.43349   1.53601
     Eigenvalues ---    1.57193
 Quadratic step=3.071D-01 exceeds max=3.000D-01 adjusted using Lamda=-2.805D-03.
 Angle between NR and scaled steps=   1.64 degrees.
 Angle between quadratic step and forces=  45.22 degrees.
 Linear search not attempted -- first point.
 TrRot= -0.004571 -0.007805  0.004042 -0.120116  0.001720  0.121063
 Variable       Old X    -DE/DX   Delta X   Delta X   Delta X     New X
                                 (Linear)    (Quad)   (Total)
    X1        1.83351   0.07720   0.00000   0.09312   0.08984   1.92334
    Y1       -1.26972  -0.03329   0.00000  -0.02567  -0.03165  -1.30138
    Z1        0.02024   0.00181   0.00000   0.01949   0.01998   0.04021
    X2       -0.58106  -0.06093   0.00000  -0.06503  -0.06746  -0.64852
    Y2       -2.14093  -0.00245   0.00000  -0.00527  -0.01370  -2.15463
    Z2        0.09153  -0.00371   0.00000  -0.02869  -0.02399   0.06754
    X3       -2.26823  -0.04382   0.00000  -0.11526  -0.11974  -2.38797
    Y3        0.09262  -0.04059   0.00000  -0.04752  -0.05760   0.03502
    Z3        0.04145   0.00295   0.00000   0.03693   0.04506   0.08651
    X4       -0.73939  -0.02995   0.00000  -0.03340  -0.03990  -0.77929
    Y4        2.11513   0.02340   0.00000  -0.00344  -0.01198   2.10314
    Z4        0.05201  -0.00175   0.00000  -0.01161  -0.00581   0.04620
    X5        1.75868   0.09171   0.00000   0.13156   0.12574   1.88442
    Y5        1.34329   0.03428   0.00000   0.03646   0.03044   1.37373
    Z5        0.03789   0.00123   0.00000  -0.00264  -0.00154   0.03635
    X6        3.41452  -0.01300   0.00000   0.08671   0.07968   3.49420
    Y6        2.65628  -0.01211   0.00000   0.00265  -0.00185   2.65443
    Z6        0.06437  -0.00110   0.00000  -0.02467  -0.02605   0.03832
    X7       -1.67024  -0.00583   0.00000  -0.04039  -0.04876  -1.71900
    Y7        3.90081   0.01716   0.00000   0.04613   0.03671   3.93753
    Z7       -0.02887   0.00006   0.00000  -0.00944  -0.00166  -0.03052
    X8       -1.54998  -0.00608   0.00000  -0.10746  -0.10826  -1.65824
    Y8       -3.91286  -0.00526   0.00000  -0.00436  -0.01374  -3.92660
    Z8        0.06598   0.00104   0.00000  -0.03606  -0.03000   0.03598
    X9        3.46904  -0.00930   0.00000   0.09097   0.08886   3.55790
    Y9       -2.61487   0.01886   0.00000   0.06781   0.06338  -2.55149
    Z9        0.00908  -0.00052   0.00000   0.02658   0.02401   0.03309
         Item               Value     Threshold  Converged?
 Maximum Force            0.091706     0.000450     NO 
 RMS     Force            0.031368     0.000300     NO 
 Maximum Displacement     0.125739     0.001800     NO 
 RMS     Displacement     0.057426     0.001200     NO 
 Predicted change in Energy=-1.735204D-02
 GradGradGradGradGradGradGradGradGradGradGradGradGradGradGradGradGradGrad

 Leave Link  103 at Tue Dec 15 16:24:49 2015, MaxMem=    33554432 cpu:         0.0
 (Enter /home/Applications/g09/g09/l9999.exe)
 1\1\GINC-DUSTIN-DESKTOP\Force\RAM1-FC\STO-3G\C4H4O1\DUSTIN\15-Dec-2015
 \0\\#P AM1(Input,print) CIS(Singlets,NStates=15) pop(full) force\\AM1-
 Reparam Input\\0,1\C,0.970251,-0.671909,0.010708\C,-0.307486,-1.132931
 ,0.048433\O,-1.200297,0.049015,0.021937\C,-0.39127,1.119277,0.027521\C
 ,0.930653,0.71084,0.020048\H,1.806884,1.405644,0.034064\H,-0.883853,2.
 064222,-0.015275\H,-0.820213,-2.070597,0.034916\H,1.835736,-1.383728,0
 .004806\\Version=ES64L-G09RevD.01\State=1-A\HF=0.0188767\RMSD=5.015e-0
 9\RMSF=3.137e-02\Dipole=0.3187312,0.1686727,-0.0413681\PG=C01 [X(C4H4O
 1)]\\@


    WHAT WE HAVE LEARNED
 IS LIKE A HANDFUL OF EARTH;
  WHAT WE HAVE YET TO LEARN
   IS LIKE THE WHOLE WORLD.

         -- AVVAYIAR
 Job cpu time:       0 days  0 hours  0 minutes  0.6 seconds.
 File lengths (MBytes):  RWF=      7 Int=      0 D2E=      0 Chk=      2 Scr=      1
 Normal termination of Gaussian 09 at Tue Dec 15 16:24:49 2015.
