 Entering Gaussian System, Link 0=g09
 Input=FuranAM1_50.com
 Output=FuranAM1_50.log
 Initial command:
 /home/Applications/g09/g09/l1.exe "/home/Applications/g09/scratch/Gau-5958.inp" -scrdir="/home/Applications/g09/scratch/"
 Entering Link 1 = /home/Applications/g09/g09/l1.exe PID=      5960.
  
 Copyright (c) 1988,1990,1992,1993,1995,1998,2003,2009,2013,
            Gaussian, Inc.  All Rights Reserved.
  
 This is part of the Gaussian(R) 09 program.  It is based on
 the Gaussian(R) 03 system (copyright 2003, Gaussian, Inc.),
 the Gaussian(R) 98 system (copyright 1998, Gaussian, Inc.),
 the Gaussian(R) 94 system (copyright 1995, Gaussian, Inc.),
 the Gaussian 92(TM) system (copyright 1992, Gaussian, Inc.),
 the Gaussian 90(TM) system (copyright 1990, Gaussian, Inc.),
 the Gaussian 88(TM) system (copyright 1988, Gaussian, Inc.),
 the Gaussian 86(TM) system (copyright 1986, Carnegie Mellon
 University), and the Gaussian 82(TM) system (copyright 1983,
 Carnegie Mellon University). Gaussian is a federally registered
 trademark of Gaussian, Inc.
  
 This software contains proprietary and confidential information,
 including trade secrets, belonging to Gaussian, Inc.
  
 This software is provided under written license and may be
 used, copied, transmitted, or stored only in accord with that
 written license.
  
 The following legend is applicable only to US Government
 contracts under FAR:
  
                    RESTRICTED RIGHTS LEGEND
  
 Use, reproduction and disclosure by the US Government is
 subject to restrictions as set forth in subparagraphs (a)
 and (c) of the Commercial Computer Software - Restricted
 Rights clause in FAR 52.227-19.
  
 Gaussian, Inc.
 340 Quinnipiac St., Bldg. 40, Wallingford CT 06492
  
  
 ---------------------------------------------------------------
 Warning -- This program may not be used in any manner that
 competes with the business of Gaussian, Inc. or will provide
 assistance to any competitor of Gaussian, Inc.  The licensee
 of this program is prohibited from giving any competitor of
 Gaussian, Inc. access to this program.  By using this program,
 the user acknowledges that Gaussian, Inc. is engaged in the
 business of creating and licensing software in the field of
 computational chemistry and represents and warrants to the
 licensee that it is not a competitor of Gaussian, Inc. and that
 it will not use this program in any manner prohibited above.
 ---------------------------------------------------------------
  

 Cite this work as:
 Gaussian 09, Revision D.01,
 M. J. Frisch, G. W. Trucks, H. B. Schlegel, G. E. Scuseria, 
 M. A. Robb, J. R. Cheeseman, G. Scalmani, V. Barone, B. Mennucci, 
 G. A. Petersson, H. Nakatsuji, M. Caricato, X. Li, H. P. Hratchian, 
 A. F. Izmaylov, J. Bloino, G. Zheng, J. L. Sonnenberg, M. Hada, 
 M. Ehara, K. Toyota, R. Fukuda, J. Hasegawa, M. Ishida, T. Nakajima, 
 Y. Honda, O. Kitao, H. Nakai, T. Vreven, J. A. Montgomery, Jr., 
 J. E. Peralta, F. Ogliaro, M. Bearpark, J. J. Heyd, E. Brothers, 
 K. N. Kudin, V. N. Staroverov, T. Keith, R. Kobayashi, J. Normand, 
 K. Raghavachari, A. Rendell, J. C. Burant, S. S. Iyengar, J. Tomasi, 
 M. Cossi, N. Rega, J. M. Millam, M. Klene, J. E. Knox, J. B. Cross, 
 V. Bakken, C. Adamo, J. Jaramillo, R. Gomperts, R. E. Stratmann, 
 O. Yazyev, A. J. Austin, R. Cammi, C. Pomelli, J. W. Ochterski, 
 R. L. Martin, K. Morokuma, V. G. Zakrzewski, G. A. Voth, 
 P. Salvador, J. J. Dannenberg, S. Dapprich, A. D. Daniels, 
 O. Farkas, J. B. Foresman, J. V. Ortiz, J. Cioslowski, 
 and D. J. Fox, Gaussian, Inc., Wallingford CT, 2013.
 
 ******************************************
 Gaussian 09:  ES64L-G09RevD.01 24-Apr-2013
                15-Dec-2015 
 ******************************************
 ------------------------------------------------------------
 #P AM1(Input,print) CIS(Singlets,NStates=15) pop(full) force
 ------------------------------------------------------------
 1/10=7,30=1,38=1/1,3;
 2/12=2,17=6,18=5,40=1/2;
 3/5=2,16=1,25=1,41=700000,71=1,135=100,136=1/1,2,8,3;
 4/35=1/1;
 5/5=2,35=1,38=5/2;
 8/6=1,10=1,108=15/1;
 9/15=2,41=15,42=1,48=1,49=10/14;
 10/5=4/2;
 6/7=3,18=1/1;
 7/12=6,13=5,29=1/1,2,3,16;
 1/10=7,30=1/3;
 99//99;
 Leave Link    1 at Tue Dec 15 16:20:33 2015, MaxMem=           0 cpu:         0.0
 (Enter /home/Applications/g09/g09/l101.exe)
 -----------------
 AM1-Reparam Input
 -----------------
 Symbolic Z-matrix:
 Charge =  0 Multiplicity = 1
 6                     0.97983  -0.68498   0.0472 
 6                    -0.39561  -1.11031   0.02708 
 8                    -1.11091  -0.03029   0.01315 
 6                    -0.30084   1.0788    0.04874 
 6                     0.9291    0.68298  -0.01707 
 1                     1.85889   1.38739   0.02953 
 1                    -0.88223   2.03287  -0.01817 
 1                    -0.7956   -2.01204   0.01249 
 1                     1.76685  -1.32655   0.04309 
 
 NAtoms=      9 NQM=        9 NQMF=       0 NMMI=      0 NMMIF=      0
                NMic=       0 NMicF=      0.
                    Isotopes and Nuclear Properties:
 (Nuclear quadrupole moments (NQMom) in fm**2, nuclear magnetic moments (NMagM)
  in nuclear magnetons)

  Atom         1           2           3           4           5           6           7           8           9
 IAtWgt=          12          12          16          12          12           1           1           1           1
 AtmWgt=  12.0000000  12.0000000  15.9949146  12.0000000  12.0000000   1.0078250   1.0078250   1.0078250   1.0078250
 NucSpn=           0           0           0           0           0           1           1           1           1
 AtZEff=   0.0000000   0.0000000   0.0000000   0.0000000   0.0000000   0.0000000   0.0000000   0.0000000   0.0000000
 NQMom=    0.0000000   0.0000000   0.0000000   0.0000000   0.0000000   0.0000000   0.0000000   0.0000000   0.0000000
 NMagM=    0.0000000   0.0000000   0.0000000   0.0000000   0.0000000   2.7928460   2.7928460   2.7928460   2.7928460
 AtZNuc=   6.0000000   6.0000000   8.0000000   6.0000000   6.0000000   1.0000000   1.0000000   1.0000000   1.0000000
 Leave Link  101 at Tue Dec 15 16:20:33 2015, MaxMem=    33554432 cpu:         0.0
 (Enter /home/Applications/g09/g09/l103.exe)

 GradGradGradGradGradGradGradGradGradGradGradGradGradGradGradGradGradGrad
 Berny optimization.
 Initialization pass.
 Trust Radius=3.00D-01 FncErr=1.00D-07 GrdErr=1.00D-07
 Number of steps in this run=      2 maximum allowed number of steps=      2.
 GradGradGradGradGradGradGradGradGradGradGradGradGradGradGradGradGradGrad

 Leave Link  103 at Tue Dec 15 16:20:33 2015, MaxMem=    33554432 cpu:         0.0
 (Enter /home/Applications/g09/g09/l202.exe)
                          Input orientation:                          
 ---------------------------------------------------------------------
 Center     Atomic      Atomic             Coordinates (Angstroms)
 Number     Number       Type             X           Y           Z
 ---------------------------------------------------------------------
      1          6           0        0.979829   -0.684975    0.047202
      2          6           0       -0.395614   -1.110312    0.027079
      3          8           0       -1.110911   -0.030286    0.013154
      4          6           0       -0.300835    1.078798    0.048738
      5          6           0        0.929100    0.682982   -0.017071
      6          1           0        1.858894    1.387389    0.029531
      7          1           0       -0.882226    2.032868   -0.018172
      8          1           0       -0.795595   -2.012040    0.012487
      9          1           0        1.766845   -1.326551    0.043085
 ---------------------------------------------------------------------
                    Distance matrix (angstroms):
                    1          2          3          4          5
     1  C    0.000000
     2  C    1.439847   0.000000
     3  O    2.191112   1.295492   0.000000
     4  C    2.179678   2.191268   1.373884   0.000000
     5  C    1.370405   2.229960   2.161321   1.293732   0.000000
     6  H    2.251169   3.364717   3.290868   2.181749   1.167424
     7  H    3.295177   3.180946   2.076026   1.119260   2.259003
     8  H    2.216853   0.986565   2.006682   3.130396   3.199780
     9  H    1.015397   2.173303   3.156371   3.171914   2.177994
                    6          7          8          9
     6  H    0.000000
     7  H    2.816497   0.000000
     8  H    4.313087   4.045952   0.000000
     9  H    2.715534   4.278671   2.652721   0.000000
 Stoichiometry    C4H4O
 Framework group  C1[X(C4H4O)]
 Deg. of freedom    21
 Full point group                 C1      NOp   1
 Largest Abelian subgroup         C1      NOp   1
 Largest concise Abelian subgroup C1      NOp   1
                         Standard orientation:                         
 ---------------------------------------------------------------------
 Center     Atomic      Atomic             Coordinates (Angstroms)
 Number     Number       Type             X           Y           Z
 ---------------------------------------------------------------------
      1          6           0       -0.255349    1.154326   -0.018917
      2          6           0       -1.171603    0.043826    0.001751
      3          8           0       -0.444608   -1.028435    0.007647
      4          6           0        0.888982   -0.700744   -0.033743
      5          6           0        0.990899    0.587051    0.036535
      6          1           0        1.995673    1.179372   -0.013098
      7          1           0        1.550679   -1.601472    0.026153
      8          1           0       -2.157597    0.016672    0.021472
      9          1           0       -0.549466    2.126148   -0.009459
 ---------------------------------------------------------------------
 Rotational constants (GHZ):      9.9525407      9.3836719      4.8332163
 Leave Link  202 at Tue Dec 15 16:20:33 2015, MaxMem=    33554432 cpu:         0.0
 (Enter /home/Applications/g09/g09/l301.exe)

 Semi-emprical parameters in input format:
 Method=8 CoreType=1 PeptideFC=0.0114510000 RIJScale=0.5291770000
 ****
 H       
 PQN=1 NValence=1 F0ss=0.4721550000 ZetaOverlap=1.1880780000 U=-0.4188110000
 Beta=-0.2268830000 CoreKO=1.0589200000 KON=0,0,0,1.0589200000 KON=1,0,1,1.0589200000
 KON=0,1,1,1.0589200000 KON=2,1,1,1.0589200000 EISol=-0.4188110042 EHeat=0.0830298228
 Alpha=1.5252600000
 GCore=0.0085280000,1.4001430000,2.2676710000
 GCore=0.0003530000,1.4001430000,3.4015070000
 GCore=-0.0012730000,0.5600570000,3.9684250000
 ****
 C       
 PQN=2,2 NValence=4 F0ss=0.4494440000 F0sp=0.4215150000 F0pp=0.3768030000 F2pp=0.1898720000
 G1sp=0.2679030000
 ZetaOverlap=1.8086650000,1.6851160000
 U=-1.9120180000,-1.4557970000
 Beta=-0.5775440000,-0.2836780000 DDN=0,1,0.8236740000 DDN=1,1,0.7268010000
 CoreKO=1.1124280000 KON=0,0,0,1.1124280000 KON=1,0,1,0.8219700000 KON=0,1,1,1.1124280000
 KON=2,1,1,0.7783930000 EISol=-4.4398989268 EHeat=0.2723305520 Alpha=1.4014060000
 DipHyp=1.6472532266
 GCore=0.0007890000,1.4001430000,3.0235620000
 GCore=0.0031890000,1.4001430000,3.4959930000
 GCore=-0.0013930000,1.4001430000,3.8739390000
 GCore=-0.0000880000,1.4001430000,5.0077740000
 ****
 O       
 PQN=2,2 NValence=6 F0ss=0.5666750000 F0sp=0.5321300000 F0pp=0.4958710000 F2pp=0.2358080000
 G1sp=0.4343770000
 ZetaOverlap=3.1080320000,2.5240390000
 U=-3.5951870000,-2.8760900000
 Beta=-1.0757550000,-1.0757550000 DDN=0,1,0.4988900000 DDN=1,1,0.4852320000
 CoreKO=0.8822960000 KON=0,0,0,0.8822960000 KON=1,0,1,0.5019540000 KON=0,1,1,0.8822960000
 KON=2,1,1,0.5515580000 EISol=-11.6164441184 EHeat=0.0949133088 Alpha=2.3576810000
 DipHyp=0.9977225968
 GCore=0.0195120000,1.4001430000,1.6023330000
 GCore=0.0056550000,1.9602000000,2.7307880000
 ****
 
 Standard basis: VSTO-6G (5D, 7F)
 Ernie: Thresh=  0.10000D-02 Tol=  0.10000D-05 Strict=F.
  NNHCO=     0 NNPyr=     0 NCTC=     0               EPep=         0.000000000
    EC=        69.451750836  ECS=         1.945840850   EG=         0.373176894
   EHC=         0.000000000  EAt=       -31.051283842  AtH=         1.516354808
 EPDDG=         0.000000000  ECC=        71.770768580 EAtT=        32.567638650
 There are    24 symmetry adapted cartesian basis functions of A   symmetry.
 There are    24 symmetry adapted basis functions of A   symmetry.
    24 basis functions,   144 primitive gaussians,    24 cartesian basis functions
    13 alpha electrons       13 beta electrons
       nuclear repulsion energy       104.3384072308 Hartrees.
 IExCor=    0 DFT=F Ex=HF Corr=None ExCW=0 ScaHFX=  1.000000
 ScaDFX=  1.000000  1.000000  1.000000  1.000000 ScalE2=  1.000000  1.000000
 IRadAn=      0 IRanWt=     -1 IRanGd=            0 ICorTp=0 IEmpDi=  4
 Integral buffers will be    131072 words long.
 Regular integral format.
 Two-electron integral symmetry is turned off.
 Leave Link  301 at Tue Dec 15 16:20:33 2015, MaxMem=    33554432 cpu:         0.0
 (Enter /home/Applications/g09/g09/l302.exe)
 Do NDO integrals.
 NPDir=0 NMtPBC=     1 NCelOv=     1 NCel=       1 NClECP=     1 NCelD=      1
         NCelK=      1 NCelE2=     1 NClLst=     1 CellRange=     0.0.
 One-electron integrals computed using PRISM.
 NBasis=    24 RedAO= F EigKep=  0.00D+00  NBF=    24
 NBsUse=    24 1.00D-04 EigRej=  0.00D+00 NBFU=    24
 Leave Link  302 at Tue Dec 15 16:20:33 2015, MaxMem=    33554432 cpu:         0.0
 (Enter /home/Applications/g09/g09/l308.exe)
 Leave Link  308 at Tue Dec 15 16:20:33 2015, MaxMem=    33554432 cpu:         0.0
 (Enter /home/Applications/g09/g09/l303.exe)
 DipDrv:  MaxL=1.
 Leave Link  303 at Tue Dec 15 16:20:33 2015, MaxMem=    33554432 cpu:         0.0
 (Enter /home/Applications/g09/g09/l401.exe)
 Simple Huckel Guess.
 JPrj=0 DoOrth=F DoCkMO=F.
 Leave Link  401 at Tue Dec 15 16:20:33 2015, MaxMem=    33554432 cpu:         0.0
 (Enter /home/Applications/g09/g09/l502.exe)
 Closed shell SCF:
 Using DIIS extrapolation, IDIIS=  1040.
 Overlap will be assumed to be unity.
 Two-electron integral symmetry not used.
 Keep J ints in memory in canonical form, NReq=888082.
 IVT=       79475 IEndB=       79475 NGot=    33554432 MDV=    33473473
 LenX=    33473473 LenY=    33472456
 Requested convergence on RMS density matrix=1.00D-08 within 128 cycles.
 Requested convergence on MAX density matrix=1.00D-06.
 Requested convergence on             energy=1.00D-06.
 No special actions if energy rises.
 FoFCou: FMM=F IPFlag=           0 FMFlag=           0 FMFlg1=           0
         NFxFlg=           0 DoJE=F BraDBF=F KetDBF=F FulRan=T
         wScrn=  0.000000 ICntrl=     600 IOpCl=  2 I1Cent=           0 NGrid=           0
         NMat0=    1 NMatS0=     54 NMatT0=    0 NMatD0=    1 NMtDS0=    0 NMtDT0=    0
 Symmetry not used in FoFCou.

 Cycle   1  Pass 1  IDiag  1:
 E= 0.366388695716623    
 DIIS: error= 6.66D-02 at cycle   1 NSaved=   1.
 NSaved= 1 IEnMin= 1 EnMin= 0.366388695716623     IErMin= 1 ErrMin= 6.66D-02
 ErrMax= 6.66D-02  0.00D+00 EMaxC= 1.00D-01 BMatC= 1.12D-01 BMatP= 1.12D-01
 IDIUse=3 WtCom= 3.34D-01 WtEn= 6.66D-01
 Coeff-Com:  0.100D+01
 Coeff-En:   0.100D+01
 Coeff:      0.100D+01
 GapD=    2.000 DampG=2.000 DampE=0.500 DampFc=1.0000 IDamp=-1.
 RMSDP=1.93D-02 MaxDP=1.65D-01              OVMax= 0.00D+00

 Cycle   2  Pass 1  IDiag  1:
 E= 0.886340356866242E-01 Delta-E=       -0.277754660030 Rises=F Damp=F
 DIIS: error= 1.93D-02 at cycle   2 NSaved=   2.
 NSaved= 2 IEnMin= 2 EnMin= 0.886340356866242E-01 IErMin= 2 ErrMin= 1.93D-02
 ErrMax= 1.93D-02  0.00D+00 EMaxC= 1.00D-01 BMatC= 9.63D-03 BMatP= 1.12D-01
 IDIUse=3 WtCom= 8.07D-01 WtEn= 1.93D-01
 Coeff-Com: -0.354D+00 0.135D+01
 Coeff-En:   0.000D+00 0.100D+01
 Coeff:     -0.286D+00 0.129D+01
 RMSDP=8.21D-03 MaxDP=6.92D-02 DE=-2.78D-01 OVMax= 0.00D+00

 Cycle   3  Pass 1  IDiag  3:
 E= 0.577066665213550E-01 Delta-E=       -0.030927369165 Rises=F Damp=F
 DIIS: error= 4.28D-03 at cycle   3 NSaved=   3.
 NSaved= 3 IEnMin= 3 EnMin= 0.577066665213550E-01 IErMin= 3 ErrMin= 4.28D-03
 ErrMax= 4.28D-03  0.00D+00 EMaxC= 1.00D-01 BMatC= 4.09D-04 BMatP= 9.63D-03
 IDIUse=3 WtCom= 9.57D-01 WtEn= 4.28D-02
 Coeff-Com:  0.127D+00-0.588D+00 0.146D+01
 Coeff-En:   0.000D+00 0.000D+00 0.100D+01
 Coeff:      0.122D+00-0.563D+00 0.144D+01
 Gap=     0.367 Goal=   None    Shift=    0.000
 RMSDP=2.68D-03 MaxDP=2.87D-02 DE=-3.09D-02 OVMax= 3.05D-02

 Cycle   4  Pass 1  IDiag  3:
 E= 0.554402715402773E-01 Delta-E=       -0.002266394981 Rises=F Damp=F
 DIIS: error= 1.23D-03 at cycle   4 NSaved=   4.
 NSaved= 4 IEnMin= 4 EnMin= 0.554402715402773E-01 IErMin= 4 ErrMin= 1.23D-03
 ErrMax= 1.23D-03  0.00D+00 EMaxC= 1.00D-01 BMatC= 3.06D-05 BMatP= 4.09D-04
 IDIUse=3 WtCom= 9.88D-01 WtEn= 1.23D-02
 Coeff-Com:  0.106D-01-0.279D-01-0.264D+00 0.128D+01
 Coeff-En:   0.000D+00 0.000D+00 0.000D+00 0.100D+01
 Coeff:      0.105D-01-0.275D-01-0.261D+00 0.128D+01
 Gap=     0.368 Goal=   None    Shift=    0.000
 RMSDP=8.96D-04 MaxDP=1.02D-02 DE=-2.27D-03 OVMax= 1.02D-02

 Cycle   5  Pass 1  IDiag  3:
 E= 0.552486478793668E-01 Delta-E=       -0.000191623661 Rises=F Damp=F
 DIIS: error= 1.74D-04 at cycle   5 NSaved=   5.
 NSaved= 5 IEnMin= 5 EnMin= 0.552486478793668E-01 IErMin= 5 ErrMin= 1.74D-04
 ErrMax= 1.74D-04  0.00D+00 EMaxC= 1.00D-01 BMatC= 1.58D-06 BMatP= 3.06D-05
 IDIUse=3 WtCom= 9.98D-01 WtEn= 1.74D-03
 Coeff-Com: -0.682D-02 0.258D-01 0.557D-01-0.528D+00 0.145D+01
 Coeff-En:   0.000D+00 0.000D+00 0.000D+00 0.000D+00 0.100D+01
 Coeff:     -0.680D-02 0.257D-01 0.556D-01-0.527D+00 0.145D+01
 Gap=     0.368 Goal=   None    Shift=    0.000
 RMSDP=2.14D-04 MaxDP=1.72D-03 DE=-1.92D-04 OVMax= 1.69D-03

 Cycle   6  Pass 1  IDiag  3:
 E= 0.552383010230244E-01 Delta-E=       -0.000010346856 Rises=F Damp=F
 DIIS: error= 6.51D-05 at cycle   6 NSaved=   6.
 NSaved= 6 IEnMin= 6 EnMin= 0.552383010230244E-01 IErMin= 6 ErrMin= 6.51D-05
 ErrMax= 6.51D-05  0.00D+00 EMaxC= 1.00D-01 BMatC= 1.10D-07 BMatP= 1.58D-06
 IDIUse=1 WtCom= 1.00D+00 WtEn= 0.00D+00
 Coeff-Com:  0.300D-02-0.116D-01-0.908D-02 0.172D+00-0.648D+00 0.149D+01
 Coeff:      0.300D-02-0.116D-01-0.908D-02 0.172D+00-0.648D+00 0.149D+01
 Gap=     0.368 Goal=   None    Shift=    0.000
 RMSDP=6.58D-05 MaxDP=4.80D-04 DE=-1.03D-05 OVMax= 7.53D-04

 Cycle   7  Pass 1  IDiag  3:
 E= 0.552373857430979E-01 Delta-E=       -0.000000915280 Rises=F Damp=F
 DIIS: error= 2.79D-05 at cycle   7 NSaved=   7.
 NSaved= 7 IEnMin= 7 EnMin= 0.552373857430979E-01 IErMin= 7 ErrMin= 2.79D-05
 ErrMax= 2.79D-05  0.00D+00 EMaxC= 1.00D-01 BMatC= 1.19D-08 BMatP= 1.10D-07
 IDIUse=1 WtCom= 1.00D+00 WtEn= 0.00D+00
 Coeff-Com: -0.553D-03 0.174D-02 0.329D-02-0.399D-01 0.169D+00-0.682D+00
 Coeff-Com:  0.155D+01
 Coeff:     -0.553D-03 0.174D-02 0.329D-02-0.399D-01 0.169D+00-0.682D+00
 Coeff:      0.155D+01
 Gap=     0.368 Goal=   None    Shift=    0.000
 RMSDP=2.76D-05 MaxDP=2.30D-04 DE=-9.15D-07 OVMax= 2.99D-04

 Cycle   8  Pass 1  IDiag  3:
 E= 0.552372673934798E-01 Delta-E=       -0.000000118350 Rises=F Damp=F
 DIIS: error= 7.28D-06 at cycle   8 NSaved=   8.
 NSaved= 8 IEnMin= 8 EnMin= 0.552372673934798E-01 IErMin= 8 ErrMin= 7.28D-06
 ErrMax= 7.28D-06  0.00D+00 EMaxC= 1.00D-01 BMatC= 7.81D-10 BMatP= 1.19D-08
 IDIUse=1 WtCom= 1.00D+00 WtEn= 0.00D+00
 Coeff-Com:  0.442D-04 0.104D-03-0.164D-02 0.947D-02-0.408D-01 0.233D+00
 Coeff-Com: -0.790D+00 0.159D+01
 Coeff:      0.442D-04 0.104D-03-0.164D-02 0.947D-02-0.408D-01 0.233D+00
 Coeff:     -0.790D+00 0.159D+01
 Gap=     0.368 Goal=   None    Shift=    0.000
 RMSDP=7.77D-06 MaxDP=6.74D-05 DE=-1.18D-07 OVMax= 8.66D-05

 Cycle   9  Pass 1  IDiag  3:
 E= 0.552372597842350E-01 Delta-E=       -0.000000007609 Rises=F Damp=F
 DIIS: error= 9.45D-07 at cycle   9 NSaved=   9.
 NSaved= 9 IEnMin= 9 EnMin= 0.552372597842350E-01 IErMin= 9 ErrMin= 9.45D-07
 ErrMax= 9.45D-07  0.00D+00 EMaxC= 1.00D-01 BMatC= 2.63D-11 BMatP= 7.81D-10
 IDIUse=1 WtCom= 1.00D+00 WtEn= 0.00D+00
 Coeff-Com:  0.234D-04-0.197D-03 0.536D-03-0.159D-02 0.759D-02-0.644D-01
 Coeff-Com:  0.260D+00-0.655D+00 0.145D+01
 Coeff:      0.234D-04-0.197D-03 0.536D-03-0.159D-02 0.759D-02-0.644D-01
 Coeff:      0.260D+00-0.655D+00 0.145D+01
 Gap=     0.368 Goal=   None    Shift=    0.000
 RMSDP=1.04D-06 MaxDP=8.91D-06 DE=-7.61D-09 OVMax= 1.24D-05

 Cycle  10  Pass 1  IDiag  3:
 E= 0.552372596018671E-01 Delta-E=       -0.000000000182 Rises=F Damp=F
 DIIS: error= 1.30D-07 at cycle  10 NSaved=  10.
 NSaved=10 IEnMin=10 EnMin= 0.552372596018671E-01 IErMin=10 ErrMin= 1.30D-07
 ErrMax= 1.30D-07  0.00D+00 EMaxC= 1.00D-01 BMatC= 1.11D-12 BMatP= 2.63D-11
 IDIUse=1 WtCom= 1.00D+00 WtEn= 0.00D+00
 Coeff-Com: -0.110D-04 0.818D-04-0.199D-03 0.507D-03-0.229D-02 0.211D-01
 Coeff-Com: -0.878D-01 0.229D+00-0.630D+00 0.147D+01
 Coeff:     -0.110D-04 0.818D-04-0.199D-03 0.507D-03-0.229D-02 0.211D-01
 Coeff:     -0.878D-01 0.229D+00-0.630D+00 0.147D+01
 Gap=     0.368 Goal=   None    Shift=    0.000
 RMSDP=1.87D-07 MaxDP=1.47D-06 DE=-1.82D-10 OVMax= 1.74D-06

 Cycle  11  Pass 1  IDiag  3:
 E= 0.552372595950175E-01 Delta-E=       -0.000000000007 Rises=F Damp=F
 DIIS: error= 2.87D-08 at cycle  11 NSaved=  11.
 NSaved=11 IEnMin=11 EnMin= 0.552372595950175E-01 IErMin=11 ErrMin= 2.87D-08
 ErrMax= 2.87D-08  0.00D+00 EMaxC= 1.00D-01 BMatC= 3.75D-14 BMatP= 1.11D-12
 IDIUse=1 WtCom= 1.00D+00 WtEn= 0.00D+00
 Coeff-Com:  0.329D-05-0.262D-04 0.689D-04-0.201D-03 0.841D-03-0.718D-02
 Coeff-Com:  0.291D-01-0.745D-01 0.210D+00-0.581D+00 0.142D+01
 Coeff:      0.329D-05-0.262D-04 0.689D-04-0.201D-03 0.841D-03-0.718D-02
 Coeff:      0.291D-01-0.745D-01 0.210D+00-0.581D+00 0.142D+01
 Gap=     0.368 Goal=   None    Shift=    0.000
 RMSDP=3.17D-08 MaxDP=1.98D-07 DE=-6.85D-12 OVMax= 1.89D-07

 Cycle  12  Pass 1  IDiag  3:
 E= 0.552372595949180E-01 Delta-E=        0.000000000000 Rises=F Damp=F
 DIIS: error= 5.89D-09 at cycle  12 NSaved=  12.
 NSaved=12 IEnMin=12 EnMin= 0.552372595949180E-01 IErMin=12 ErrMin= 5.89D-09
 ErrMax= 5.89D-09  0.00D+00 EMaxC= 1.00D-01 BMatC= 2.53D-15 BMatP= 3.75D-14
 IDIUse=1 WtCom= 1.00D+00 WtEn= 0.00D+00
 Coeff-Com: -0.719D-06 0.601D-05-0.163D-04 0.523D-04-0.202D-03 0.165D-02
 Coeff-Com: -0.656D-02 0.165D-01-0.477D-01 0.149D+00-0.574D+00 0.146D+01
 Coeff:     -0.719D-06 0.601D-05-0.163D-04 0.523D-04-0.202D-03 0.165D-02
 Coeff:     -0.656D-02 0.165D-01-0.477D-01 0.149D+00-0.574D+00 0.146D+01
 Gap=     0.368 Goal=   None    Shift=    0.000
 RMSDP=9.55D-09 MaxDP=4.64D-08 DE=-9.95D-14 OVMax= 9.10D-08

 Cycle  13  Pass 2  IDiag  1:
 SCF Done:  E(RAM1) =  0.552372595949E-01 A.U. after   13 cycles
            NFock= 12  Conv=0.95D-08     -V/T= 1.0033
 KE=-1.666037179509D+01 PE=-1.724078449059D+02 EE= 8.478504672985D+01
 Leave Link  502 at Tue Dec 15 16:20:33 2015, MaxMem=    33554432 cpu:         0.0
 (Enter /home/Applications/g09/g09/l801.exe)
 Range of M.O.s used for correlation:     1    24
 NBasis=    24 NAE=    13 NBE=    13 NFC=     0 NFV=     0
 NROrb=     24 NOA=    13 NOB=    13 NVA=    11 NVB=    11
 Leave Link  801 at Tue Dec 15 16:20:33 2015, MaxMem=    33554432 cpu:         0.0
 (Enter /home/Applications/g09/g09/l914.exe)
 RHF ground state
 MDV=    33554432 DFT=F DoStab=F Mixed=F DoRPA=F DoScal=F NonHer=F
 Making orbital integer symmetry assigments:
 Orbital symmetries:
       Occupied  (A) (A) (A) (A) (A) (A) (A) (A) (A) (A) (A) (A)
                 (A)
       Virtual   (A) (A) (A) (A) (A) (A) (A) (A) (A) (A) (A)
    60 initial guesses have been made.
 Convergence on wavefunction:    0.000001000000000
 Davidson Disk Diagonalization:  ConvIn= 1.00D-06 SkipCon=T Conv= 1.00D-06.
 Max sub-space:   240 roots to seek:    60 dimension of matrix:          286
 Iteration     1 Dimension    60 NMult     0 NNew     60
 CISAX will form    60 AO SS matrices at one time.
 NMat=    60 NSing=    60 JSym2X= 0.
 FoFJK:  IHMeth= 8 ICntrl=       0 DoSepK=F KAlg= 0 I1Cent=   0 FoldK=F
 IRaf=         1 NMat= 120 IRICut=       1 DoRegI=T DoRafI=F ISym2E= 0.
 FoFCou: FMM=F IPFlag=           0 FMFlag=      100000 FMFlg1=           0
         NFxFlg=           0 DoJE=F BraDBF=F KetDBF=F FulRan=T
         wScrn=  0.000000 ICntrl=       0 IOpCl=  0 I1Cent=           0 NGrid=           0
         NMat0=  120 NMatS0=     60 NMatT0=    0 NMatD0=  120 NMtDS0=    0 NMtDT0=    0
 Symmetry not used in FoFCou.
 New state      2 was old state      3
 New state      3 was old state      2
 New state      4 was old state      5
 New state      5 was old state      8
 New state      6 was old state      7
 New state      7 was old state      4
 New state      8 was old state      9
 New state      9 was old state     11
 New state     10 was old state      6
 New state     11 was old state     16
 New state     12 was old state     14
 New state     13 was old state     22
 New state     14 was old state     13
 New state     15 was old state     10
 Excitation Energies [eV] at current iteration:
 Root      1 :     4.407724672932882
 Root      2 :     4.582746990447885
 Root      3 :     5.035182562686054
 Root      4 :     5.560571611871245
 Root      5 :     6.273375498459597
 Root      6 :     6.404478222708653
 Root      7 :     6.468234757336536
 Root      8 :     6.604313144859764
 Root      9 :     6.689858897902677
 Root     10 :     6.821355241752898
 Root     11 :     7.301060891335225
 Root     12 :     7.575283353719048
 Root     13 :     7.632410724602043
 Root     14 :     7.698486647665987
 Root     15 :     7.785238374787865
 Root     16 :     8.035750351044078
 Root     17 :     8.069723216428802
 Root     18 :     8.213068433992051
 Root     19 :     8.217066384151105
 Root     20 :     8.267735028691696
 Root     21 :     8.314921859293275
 Root     22 :     8.595263709201397
 Root     23 :     8.622467729667740
 Root     24 :     9.009977058187674
 Root     25 :     9.145121226389458
 Root     26 :     9.268773755061247
 Root     27 :     9.335559311728575
 Root     28 :     9.541964326168502
 Root     29 :     9.726502266109884
 Root     30 :     9.989405242972360
 Root     31 :    10.084225976840550
 Root     32 :    10.182272933182180
 Root     33 :    10.278664567739930
 Root     34 :    10.418095807775400
 Root     35 :    10.531388925006410
 Root     36 :    10.621760289145420
 Root     37 :    10.663985498639250
 Root     38 :    10.758252128104310
 Root     39 :    10.884719031474970
 Root     40 :    11.009326810183740
 Root     41 :    11.276005161169350
 Root     42 :    11.367253050662310
 Root     43 :    11.430161702595570
 Root     44 :    11.503031301318800
 Root     45 :    11.560210874831710
 Root     46 :    11.628502768714570
 Root     47 :    11.657084014939750
 Root     48 :    11.946712939560360
 Root     49 :    12.041970289971590
 Root     50 :    12.208690532778110
 Root     51 :    12.292285938769190
 Root     52 :    12.440777309556730
 Root     53 :    12.526850276583930
 Root     54 :    12.644746076572670
 Root     55 :    13.159096512108520
 Root     56 :    13.434142713547830
 Root     57 :    13.534243084988240
 Root     58 :    13.768710396872210
 Root     59 :    13.833488317562240
 Root     60 :    14.034855206737090
 Iteration     2 Dimension   120 NMult    60 NNew     60
 CISAX will form    60 AO SS matrices at one time.
 NMat=    60 NSing=    60 JSym2X= 0.
 Root      1 not converged, maximum delta is    0.032356167677543
 Root      2 not converged, maximum delta is    0.034844893987071
 Root      3 not converged, maximum delta is    0.011761883963354
 Root      4 not converged, maximum delta is    0.036264794800567
 Root      5 not converged, maximum delta is    0.041222219068655
 Root      6 not converged, maximum delta is    0.063327316561257
 Root      7 not converged, maximum delta is    0.047202227327538
 Root      8 not converged, maximum delta is    0.040877240498967
 Root      9 not converged, maximum delta is    0.053824311251558
 Root     10 not converged, maximum delta is    0.027435436925860
 Root     11 not converged, maximum delta is    0.052050383252970
 Root     12 not converged, maximum delta is    0.188375249886768
 Root     13 not converged, maximum delta is    0.186907326463468
 Root     14 not converged, maximum delta is    0.126823204492047
 Root     15 not converged, maximum delta is    0.060059203952731
 Excitation Energies [eV] at current iteration:
 Root      1 :     4.331153006140331   Change is   -0.076571666792550
 Root      2 :     4.543258250105913   Change is   -0.039488740341972
 Root      3 :     5.021523205030416   Change is   -0.013659357655637
 Root      4 :     5.484238445413293   Change is   -0.076333166457951
 Root      5 :     6.187627068033923   Change is   -0.085748430425674
 Root      6 :     6.303319236017133   Change is   -0.101158986691520
 Root      7 :     6.328273991969208   Change is   -0.139960765367328
 Root      8 :     6.536446146024963   Change is   -0.067866998834801
 Root      9 :     6.617683179310095   Change is   -0.072175718592582
 Root     10 :     6.764337894529578   Change is   -0.057017347223320
 Root     11 :     7.204700417716198   Change is   -0.096360473619027
 Root     12 :     7.496261688708296   Change is   -0.079021665010751
 Root     13 :     7.564291449967782   Change is   -0.068119274634261
 Root     14 :     7.597617349576896   Change is   -0.100869298089092
 Root     15 :     7.670576972647375   Change is   -0.114661402140490
 Root     16 :     7.936746997036090   Change is   -0.099003354007987
 Root     17 :     7.966303791904584   Change is   -0.246764642087467
 Root     18 :     7.994284022692100   Change is   -0.075439193736701
 Root     19 :     8.099152346642041   Change is   -0.117914037509063
 Root     20 :     8.203576062835605   Change is   -0.064158965856091
 Root     21 :     8.227399646423809   Change is   -0.087522212869467
 Root     22 :     8.503965224315781   Change is   -0.091298484885617
 Root     23 :     8.550923145390959   Change is   -0.071544584276781
 Root     24 :     8.927111550212958   Change is   -0.341662204848290
 Root     25 :     8.937713317275765   Change is   -0.072263740911909
 Root     26 :     8.985701464093049   Change is   -0.349857847635527
 Root     27 :     9.098823635374520   Change is   -0.046297591014938
 Root     28 :     9.350287526910899   Change is   -0.376214739198985
 Root     29 :     9.481919513361481   Change is   -0.060044812807020
 Root     30 :     9.597990692170029   Change is   -0.486235284670526
 Root     31 :     9.713970570596921   Change is   -0.468302362585261
 Root     32 :     9.787803646145148   Change is   -0.490860921594780
 Root     33 :     9.803523873730857   Change is   -0.185881369241503
 Root     34 :    10.041903040149340   Change is   -0.376192767626060
 Root     35 :    10.166084095472260   Change is   -0.592168032632048
 Root     36 :    10.283904200368390   Change is   -0.337856088777026
 Root     37 :    10.383908097725520   Change is   -0.625418712458220
 Root     38 :    10.443797217417450   Change is   -0.087591707588959
 Root     39 :    10.548361505296970   Change is   -0.115623993342280
 Root     40 :    10.635386615906170   Change is   -0.249332415568793
 Root     41 :    10.889078655900190   Change is   -0.386926505269164
 Root     42 :    10.970741776468580   Change is   -0.396511274193726
 Root     43 :    11.063427737865470   Change is   -0.366733964730105
 Root     44 :    11.100084092958590   Change is   -0.402947208360209
 Root     45 :    11.174904191194640   Change is   -0.453598577519934
 Root     46 :    11.373688025764630   Change is   -0.573024913795726
 Root     47 :    11.419980198575440   Change is   -0.140230676256264
 Root     48 :    11.554934695788580   Change is   -0.102149319151169
 Root     49 :    11.660176545691210   Change is   -0.381793744280372
 Root     50 :    11.849130526267850   Change is   -0.359560006510252
 Root     51 :    12.021092902800100   Change is   -0.271193035969089
 Root     52 :    12.141726674675760   Change is   -0.299050634880964
 Root     53 :    12.309621745679930
 Root     54 :    12.437984887032330   Change is   -0.088865389551607
 Root     55 :    12.555925768247680   Change is   -0.088820308324994
 Root     56 :    12.674200642924580   Change is   -0.484895869183937
 Root     57 :    12.879544881445800   Change is   -0.554597832102025
 Root     58 :    13.126553362277290
 Root     59 :    13.257699046753640   Change is   -0.575789270808597
 Root     60 :    13.339879925597900   Change is   -0.428830471274307
 Iteration     3 Dimension   135 NMult   120 NNew     15
 CISAX will form    15 AO SS matrices at one time.
 NMat=    15 NSing=    15 JSym2X= 0.
 Root      1 not converged, maximum delta is    0.000938265183344
 Root      2 not converged, maximum delta is    0.000088557192032
 Root      3 not converged, maximum delta is    0.000353350778579
 Root      4 not converged, maximum delta is    0.000115675446178
 Root      5 not converged, maximum delta is    0.000225025844874
 Root      6 not converged, maximum delta is    0.003637263465974
 Root      7 not converged, maximum delta is    0.002621022417742
 Root      8 not converged, maximum delta is    0.000325374268349
 Root      9 not converged, maximum delta is    0.000401701006153
 Root     10 not converged, maximum delta is    0.001704746181744
 Root     11 not converged, maximum delta is    0.000091454539111
 Root     12 not converged, maximum delta is    0.000600748783297
 Root     13 not converged, maximum delta is    0.000097478319809
 Root     14 not converged, maximum delta is    0.000529289734198
 Root     15 not converged, maximum delta is    0.000384228196512
 Excitation Energies [eV] at current iteration:
 Root      1 :     4.330948164426661   Change is   -0.000204841713671
 Root      2 :     4.543256594257939   Change is   -0.000001655847974
 Root      3 :     5.021480404294318   Change is   -0.000042800736099
 Root      4 :     5.484235139128119   Change is   -0.000003306285174
 Root      5 :     6.187622525972277   Change is   -0.000004542061647
 Root      6 :     6.303288319845979   Change is   -0.000030916171154
 Root      7 :     6.327367050480963   Change is   -0.000906941488245
 Root      8 :     6.536428733612913   Change is   -0.000017412412050
 Root      9 :     6.617638969076381   Change is   -0.000044210233714
 Root     10 :     6.763984845582631   Change is   -0.000353048946947
 Root     11 :     7.204696766404864   Change is   -0.000003651311333
 Root     12 :     7.496181187550859   Change is   -0.000080501157437
 Root     13 :     7.564289371666151   Change is   -0.000002078301632
 Root     14 :     7.597575574738318   Change is   -0.000041774838577
 Root     15 :     7.670562721134401   Change is   -0.000014251512974
 Iteration     4 Dimension   143 NMult   135 NNew      8
 CISAX will form     8 AO SS matrices at one time.
 NMat=     8 NSing=     8 JSym2X= 0.
 Root      1 not converged, maximum delta is    0.000016404936364
 Root      2 not converged, maximum delta is    0.000003377967357
 Root      3 not converged, maximum delta is    0.000009918017404
 Root      4 not converged, maximum delta is    0.000002930018356
 Root      5 not converged, maximum delta is    0.000007474575943
 Root      6 not converged, maximum delta is    0.000018270033308
 Root      7 not converged, maximum delta is    0.000097128902410
 Root      8 not converged, maximum delta is    0.000008780298829
 Root      9 not converged, maximum delta is    0.000017714379075
 Root     10 not converged, maximum delta is    0.000060349122522
 Root     11 not converged, maximum delta is    0.000004332215358
 Root     12 not converged, maximum delta is    0.000031482158676
 Root     13 not converged, maximum delta is    0.000003090345113
 Root     14 not converged, maximum delta is    0.000020905412604
 Root     15 not converged, maximum delta is    0.000017899720107
 Excitation Energies [eV] at current iteration:
 Root      1 :     4.330948035283027   Change is   -0.000000129143634
 Root      2 :     4.543256589157109   Change is   -0.000000005100830
 Root      3 :     5.021480359720410   Change is   -0.000000044573907
 Root      4 :     5.484235136648327   Change is   -0.000000002479791
 Root      5 :     6.187622516033293   Change is   -0.000000009938984
 Root      6 :     6.303288248082142   Change is   -0.000000071763838
 Root      7 :     6.327365102326891   Change is   -0.000001948154072
 Root      8 :     6.536428708710736   Change is   -0.000000024902177
 Root      9 :     6.617638904507259   Change is   -0.000000064569122
 Root     10 :     6.763984156806830   Change is   -0.000000688775800
 Root     11 :     7.204696760448238   Change is   -0.000000005956627
 Root     12 :     7.496180979954539   Change is   -0.000000207596321
 Root     13 :     7.564289365344488   Change is   -0.000000006321663
 Root     14 :     7.597575503268183   Change is   -0.000000071470135
 Root     15 :     7.670562645930591   Change is   -0.000000075203810
 Convergence achieved on expansion vectors.
 ***********************************************************************
 Excited states from <AA,BB:AA,BB> singles matrix:
 ***********************************************************************
 
 1PDM for each excited state written to RWF  633
 Ground to excited state transition densities written to RWF  633
 Ground to excited state transition electric dipole moments (Au):
       state          X           Y           Z        Dip. S.      Osc.
         1         1.0407      0.0733     -0.1028      1.0990      0.1166
         2        -0.0125     -0.0678     -0.0007      0.0048      0.0005
         3         0.0037      0.4569      0.0249      0.2094      0.0258
         4        -0.0096     -0.0112      0.0403      0.0018      0.0002
         5         0.0591     -0.0610      0.0747      0.0128      0.0019
         6         0.0721     -0.2912     -0.0657      0.0943      0.0146
         7        -0.1356      1.4032      0.0453      1.9893      0.3084
         8        -0.1160      0.0378      0.0552      0.0179      0.0029
         9         0.0279     -0.0939      0.1417      0.0297      0.0048
        10        -0.8886     -0.1524     -0.0919      0.8212      0.1361
        11         0.0302      0.0168      0.1092      0.0131      0.0023
        12        -0.0067      0.0126      0.0939      0.0090      0.0017
        13        -0.0105      0.0702      0.0183      0.0054      0.0010
        14        -0.0239     -0.0220      0.2410      0.0592      0.0110
        15         0.0249      0.0251      0.0448      0.0033      0.0006
 Ground to excited state transition velocity dipole moments (Au):
       state          X           Y           Z        Dip. S.      Osc.
         1        -0.0572     -0.0412      0.0199      0.0054      0.0225
         2         0.0029      0.0056      0.0090      0.0001      0.0005
         3         0.0100     -0.0472      0.0013      0.0023      0.0084
         4        -0.0022     -0.0028     -0.0115      0.0001      0.0005
         5        -0.0149      0.0127     -0.0856      0.0077      0.0226
         6        -0.0016      0.0555     -0.0372      0.0045      0.0129
         7        -0.0243     -0.2964     -0.0096      0.0885      0.2538
         8         0.0251     -0.0111     -0.1770      0.0321      0.0890
         9        -0.0025      0.0216     -0.0557      0.0036      0.0098
        10         0.1787      0.0508      0.0488      0.0369      0.0990
        11        -0.0034     -0.0001      0.0091      0.0001      0.0002
        12        -0.0011     -0.0122      0.0312      0.0011      0.0027
        13        -0.0012     -0.0132     -0.0697      0.0050      0.0121
        14         0.0084      0.0059     -0.0517      0.0028      0.0066
        15        -0.0047      0.0015     -0.0041      0.0000      0.0001
 Ground to excited state transition magnetic dipole moments (Au):
       state          X           Y           Z
         1         0.0329     -0.0487      0.5359
         2        -0.2049     -0.5276      0.0020
         3        -0.0276     -0.0611     -0.0821
         4         0.2719     -0.3345     -0.0056
         5         0.0357      0.3049      0.0330
         6         0.0096     -0.1204      0.0424
         7         0.1432     -0.0657     -0.1951
         8        -0.4918      0.1645     -0.0031
         9         1.1339     -0.7635      0.0037
        10         0.1029     -0.1095     -0.0600
        11        -0.2193     -0.7528      0.0212
        12        -0.3591      0.2190     -0.0195
        13        -1.0207     -0.0468     -0.0374
        14         0.1501      0.3193      0.0089
        15        -0.4127      0.0528     -0.0396
 Ground to excited state transition velocity quadrupole moments (Au):
       state          XX          YY          ZZ          XY          XZ          YZ
         1         0.3807     -0.3314     -0.0186      0.2713      0.0026      0.0027
         2        -0.0214      0.0223     -0.0077     -0.0146     -0.1808      0.0652
         3         0.1753     -0.1955      0.0674     -0.0128     -0.0180      0.0159
         4         0.0002      0.0190     -0.0114     -0.0044      0.1580      0.1866
         5        -0.0225      0.0379     -0.0040     -0.0076      0.0549      0.1174
         6        -0.0904      0.0637     -0.0224      0.0132      0.0659     -0.1846
         7         0.3380     -0.1328     -0.0535     -0.1644     -0.0449     -0.0172
         8         0.0788     -0.0906      0.0201      0.0967      0.1073      0.1001
         9        -0.0441      0.0207      0.0182     -0.0068     -0.0974     -0.0016
        10         0.2180     -0.3240      0.0037      0.4890      0.0218      0.0166
        11        -0.0095      0.0133      0.0155      0.0009      0.2406     -0.0938
        12         0.0077     -0.0006      0.0305     -0.0270     -0.0083     -0.0825
        13         0.0058      0.0248     -0.0109     -0.0060     -0.1005     -0.3586
        14        -0.0164      0.0038      0.0090      0.0190     -0.0152     -0.3948
        15        -0.0381      0.0083     -0.0025     -0.0137     -0.1423     -0.0327
 <0|del|b> * <b|rxdel|0> + <0|del|b> * <b|delr+rdel|0>
 Rotatory Strengths (R) in cgs (10**-40 erg-esu-cm/Gauss)
       state          XX          YY          ZZ    R(velocity)    E-M Angle
         1        40.3638      7.1663      0.3706     15.9669       74.15
         2        -4.3667     -0.5325    -10.0735     -4.9909      124.63
         3         3.6571     -0.3993      6.3202      3.1927       60.76
         4         2.6617     -1.7619      0.5492      0.4830       85.45
         5         1.5502     -8.9530      8.9800      0.5258       88.93
         6       -18.9378     -1.2430     -5.0818     -8.4209      165.26
         7        14.6032     -4.2050     43.9160     18.1048       76.15
         8       -25.3060     11.5130    -26.3199    -13.3710       98.43
         9       -20.6734     -5.0034    -31.2148    -18.9638      103.86
        10        20.3083     -7.7486     15.6005      9.3867       71.43
        11         0.3607      1.6553      0.6113      0.8757       82.60
        12        -5.4347      0.9137     -2.9301     -2.4837      101.87
        13         2.9433      4.9087      3.4855      3.7792       86.48
        14         0.6627     -1.9561      8.0860      2.2642       81.72
        15         0.6526      2.7798      2.0847      1.8390       35.65
 1/2[<0|r|b>*<b|rxdel|0> + (<0|rxdel|b>*<b|r|0>)*]
 Rotatory Strengths (R) in cgs (10**-40 erg-esu-cm/Gauss)
       state          XX          YY          ZZ     R(length)
         1       -24.2493      2.5248     38.9737      5.7497
         2        -1.8175    -25.2974      0.0010     -9.0380
         3         0.0715     19.7353      1.4472      7.0847
         4         1.8397     -2.6497      0.1585     -0.2171
         5        -1.4916     13.1570     -1.7443      3.3070
         6        -0.4904    -24.8000      1.9712     -7.7731
         7        13.7345     65.1821      6.2557     28.3908
         8       -40.3288     -4.4040      0.1216    -14.8704
         9       -22.3818    -50.7241     -0.3659    -24.4906
        10        64.6640    -11.7983     -3.8960     16.3232
        11         4.6832      8.9582     -1.6353      4.0020
        12        -1.6932     -1.9439      1.2934     -0.7813
        13        -7.5481      2.3202      0.4824     -1.5818
        14         2.5398      4.9621     -1.5202      1.9939
        15         7.2567     -0.9365      1.2532      2.5245
  1/2[<0|del|b>*<b|r|0> + (<0|r|b>*<b|del|0>)*] (Au)
       state          X           Y           Z        Dip. S.   Osc.(frdel)
         1        -0.0595     -0.0030     -0.0020      0.0646      0.0431
         2         0.0000     -0.0004      0.0000      0.0004      0.0003
         3         0.0000     -0.0216      0.0000      0.0215      0.0143
         4         0.0000      0.0000     -0.0005      0.0004      0.0003
         5        -0.0009     -0.0008     -0.0064      0.0081      0.0054
         6        -0.0001     -0.0162      0.0024      0.0138      0.0092
         7         0.0033     -0.4159     -0.0004      0.4130      0.2754
         8        -0.0029     -0.0004     -0.0098      0.0131      0.0087
         9        -0.0001     -0.0020     -0.0079      0.0100      0.0067
        10        -0.1588     -0.0077     -0.0045      0.1710      0.1140
        11        -0.0001      0.0000      0.0010     -0.0009     -0.0006
        12         0.0000     -0.0002      0.0029     -0.0028     -0.0019
        13         0.0000     -0.0009     -0.0013      0.0022      0.0015
        14        -0.0002     -0.0001     -0.0125      0.0128      0.0085
        15        -0.0001      0.0000     -0.0002      0.0003      0.0002

 Excitation energies and oscillator strengths:
 
 Excited State   1:      Singlet-A      4.3309 eV  286.27 nm  f=0.1166  <S**2>=0.000
      12 -> 15         0.17181
      13 -> 14         0.67447
 This state for optimization and/or second-order correction.
 Total Energy, E(CIS) =  0.214396678222    
 Copying the excited state density for this state as the 1-particle RhoCI density.
 
 Excited State   2:      Singlet-A      4.5433 eV  272.90 nm  f=0.0005  <S**2>=0.000
      13 -> 15        -0.12532
      13 -> 16         0.67600
 
 Excited State   3:      Singlet-A      5.0215 eV  246.91 nm  f=0.0258  <S**2>=0.000
      12 -> 14        -0.34018
      13 -> 15         0.60081
      13 -> 16         0.12621
 
 Excited State   4:      Singlet-A      5.4842 eV  226.07 nm  f=0.0002  <S**2>=0.000
      13 -> 17         0.42840
      13 -> 18        -0.31203
      13 -> 19        -0.16493
      13 -> 20        -0.31605
      13 -> 22        -0.18867
 
 Excited State   5:      Singlet-A      6.1876 eV  200.37 nm  f=0.0019  <S**2>=0.000
       7 -> 16        -0.15353
      12 -> 16         0.64929
      12 -> 22        -0.11068
 
 Excited State   6:      Singlet-A      6.3033 eV  196.70 nm  f=0.0146  <S**2>=0.000
      11 -> 14         0.14037
      12 -> 14        -0.11190
      12 -> 19         0.15884
      12 -> 23        -0.10112
      13 -> 17         0.29497
      13 -> 18         0.39444
      13 -> 19        -0.18530
      13 -> 21         0.15893
      13 -> 23         0.24303
 
 Excited State   7:      Singlet-A      6.3274 eV  195.95 nm  f=0.3084  <S**2>=0.000
      12 -> 14         0.57235
      13 -> 15         0.31187
 
 Excited State   8:      Singlet-A      6.5364 eV  189.68 nm  f=0.0029  <S**2>=0.000
      10 -> 14         0.11373
      11 -> 14        -0.17057
      12 -> 15         0.11388
      12 -> 23         0.12619
      13 -> 17         0.24232
      13 -> 18         0.22890
      13 -> 19         0.48405
      13 -> 20        -0.18103
      13 -> 22         0.13520
 
 Excited State   9:      Singlet-A      6.6176 eV  187.35 nm  f=0.0048  <S**2>=0.000
      10 -> 14        -0.18200
      11 -> 14         0.57596
      11 -> 15         0.18147
      13 -> 19         0.20407
      13 -> 20        -0.11152
 
 Excited State  10:      Singlet-A      6.7640 eV  183.30 nm  f=0.1361  <S**2>=0.000
      12 -> 15         0.65109
      12 -> 16         0.10608
      13 -> 14        -0.14884
 
 Excited State  11:      Singlet-A      7.2047 eV  172.09 nm  f=0.0023  <S**2>=0.000
      12 -> 17         0.36868
      12 -> 18         0.17245
      12 -> 19         0.12605
      12 -> 20        -0.10757
      12 -> 21         0.15164
      13 -> 17        -0.23714
      13 -> 20        -0.14619
      13 -> 21         0.36478
      13 -> 22        -0.10029
      13 -> 23         0.16938
 
 Excited State  12:      Singlet-A      7.4962 eV  165.40 nm  f=0.0017  <S**2>=0.000
       9 -> 14        -0.13479
      10 -> 14         0.30568
      10 -> 15        -0.22471
      11 -> 14         0.11736
      12 -> 18         0.23752
      12 -> 19        -0.16953
      13 -> 17         0.15154
      13 -> 18        -0.11438
      13 -> 19        -0.14807
      13 -> 20         0.23189
      13 -> 21         0.17625
      13 -> 22         0.24366
 
 Excited State  13:      Singlet-A      7.5643 eV  163.91 nm  f=0.0010  <S**2>=0.000
      10 -> 14         0.10830
      12 -> 17        -0.21407
      12 -> 19         0.22070
      12 -> 20        -0.12705
      12 -> 21        -0.21166
      12 -> 23        -0.11479
      13 -> 18        -0.26228
      13 -> 19         0.22377
      13 -> 22        -0.16390
      13 -> 23         0.27028
      13 -> 24        -0.21800
 
 Excited State  14:      Singlet-A      7.5976 eV  163.19 nm  f=0.0110  <S**2>=0.000
       9 -> 15        -0.15923
      10 -> 14        -0.31276
      10 -> 15         0.12994
      12 -> 22         0.10460
      13 -> 18        -0.21606
      13 -> 22         0.41927
      13 -> 23         0.22772
 
 Excited State  15:      Singlet-A      7.6706 eV  161.64 nm  f=0.0006  <S**2>=0.000
       9 -> 15         0.14278
      10 -> 14         0.29615
      11 -> 14         0.10522
      11 -> 15         0.10544
      12 -> 17         0.14825
      12 -> 18        -0.21930
      12 -> 19         0.16469
      13 -> 19        -0.10013
      13 -> 20        -0.26768
      13 -> 21        -0.26697
      13 -> 22         0.24930
      13 -> 23         0.14335
 SavETr:  write IOETrn=   770 NScale= 10 NData=  16 NLR=1 NState=   15 LETran=     280.
 The selected state is a singlet
 CISAX will form     1 AO SS matrices at one time.
 NMat=     1 NSing=     1 JSym2X= 0.
 Leave Link  914 at Tue Dec 15 16:20:33 2015, MaxMem=    33554432 cpu:         0.1
 (Enter /home/Applications/g09/g09/l1002.exe)
 Minotr:  Closed shell wavefunction.
          Computing CIS/TD-HF/TD-KS derivatives.
          Using Z-Vector for PSCF gradient.
          Skipping F1 and S1 gradient terms here.
          IDoAtm=111111111
          Direct CPHF calculation.
          Differentiating once with respect to electric field.
                with respect to dipole field.
          Differentiating once with respect to nuclear coordinates.
          Electric field/nuclear overlap derivatives assumed to be zero.
          Requested convergence is 1.0D-10 RMS, and 1.0D-09 maximum.
          NewPWx=T KeepS1=F KeepF1=F KeepIn=T MapXYZ=F SortEE=F KeepMc=T.
          MDV=      33495423 using IRadAn=       0.
 Keep J ints in memory in canonical form, NReq=871704.
 FoFCou: FMM=F IPFlag=           0 FMFlag=           0 FMFlg1=           0
         NFxFlg=           0 DoJE=F BraDBF=F KetDBF=F FulRan=T
         wScrn=  0.000000 ICntrl=     600 IOpCl=  2 I1Cent=           0 NGrid=           0
         NMat0=    1 NMatS0=     54 NMatT0=    0 NMatD0=    1 NMtDS0=    0 NMtDT0=    0
 Symmetry not used in FoFCou.
          Solving linear equations separately, MaxMat=       0.
          There are     1 degrees of freedom in the 1st order CPHF.  IDoFFX=0 NUNeed=     1.
 LinEq1:  Iter=  0 NonCon=     1 RMS=1.61D-02 Max=1.19D-01 NDo=     1
 AX will form     1 AO Fock derivatives at one time.
 LinEq1:  Iter=  1 NonCon=     1 RMS=3.30D-03 Max=1.83D-02 NDo=     1
 LinEq1:  Iter=  2 NonCon=     1 RMS=4.17D-04 Max=2.19D-03 NDo=     1
 LinEq1:  Iter=  3 NonCon=     1 RMS=5.15D-05 Max=2.07D-04 NDo=     1
 LinEq1:  Iter=  4 NonCon=     1 RMS=5.61D-06 Max=2.06D-05 NDo=     1
 LinEq1:  Iter=  5 NonCon=     1 RMS=9.61D-07 Max=4.96D-06 NDo=     1
 LinEq1:  Iter=  6 NonCon=     1 RMS=1.29D-07 Max=6.82D-07 NDo=     1
 LinEq1:  Iter=  7 NonCon=     1 RMS=1.82D-08 Max=8.49D-08 NDo=     1
 LinEq1:  Iter=  8 NonCon=     1 RMS=2.42D-09 Max=8.76D-09 NDo=     1
 LinEq1:  Iter=  9 NonCon=     1 RMS=2.98D-10 Max=1.34D-09 NDo=     1
 LinEq1:  Iter= 10 NonCon=     0 RMS=3.53D-11 Max=1.40D-10 NDo=     1
 Linear equations converged to 1.000D-10 1.000D-09 after    10 iterations.
 End of Minotr F.D. properties file   721 does not exist.
 End of Minotr F.D. properties file   722 does not exist.
 End of Minotr F.D. properties file   788 does not exist.
 Leave Link 1002 at Tue Dec 15 16:20:33 2015, MaxMem=    33554432 cpu:         0.0
 (Enter /home/Applications/g09/g09/l601.exe)
 Copying SCF densities to generalized density rwf, IOpCl= 0 IROHF=0.

 **********************************************************************

            Population analysis using the SCF density.

 **********************************************************************

 Orbital symmetries:
       Occupied  (A) (A) (A) (A) (A) (A) (A) (A) (A) (A) (A) (A)
                 (A)
       Virtual   (A) (A) (A) (A) (A) (A) (A) (A) (A) (A) (A)
 The electronic state is 1-A.
 Alpha  occ. eigenvalues --   -1.60433  -1.25246  -1.10844  -0.84100  -0.81068
 Alpha  occ. eigenvalues --   -0.69481  -0.61904  -0.57721  -0.51004  -0.50065
 Alpha  occ. eigenvalues --   -0.48693  -0.40578  -0.33768
 Alpha virt. eigenvalues --    0.03013   0.06932   0.09146   0.13522   0.14281
 Alpha virt. eigenvalues --    0.16834   0.17483   0.19135   0.19454   0.21207
 Alpha virt. eigenvalues --    0.23011
     Molecular Orbital Coefficients:
                           1         2         3         4         5
                           O         O         O         O         O
     Eigenvalues --    -1.60433  -1.25246  -1.10844  -0.84100  -0.81068
   1 1   C  1S          0.27179  -0.42947   0.34587   0.43024  -0.04211
   2        1PX         0.02251  -0.10982  -0.15114   0.04561   0.34154
   3        1PY        -0.12658   0.05537  -0.04200   0.17266   0.06682
   4        1PZ         0.00350  -0.00561   0.00357   0.00374   0.00489
   5 2   C  1S          0.37007  -0.00326   0.52370  -0.32826  -0.25751
   6        1PX         0.17346  -0.02066  -0.00748   0.13846   0.08618
   7        1PY        -0.09609  -0.23342   0.04032   0.21879  -0.29881
   8        1PZ         0.00004   0.00128   0.00084  -0.00519   0.00587
   9 3   O  1S          0.64286   0.56486  -0.11410   0.21443   0.21005
  10        1PX         0.05353  -0.07876  -0.33554   0.30715  -0.37477
  11        1PY         0.19552  -0.00457   0.14162  -0.22055  -0.01418
  12        1PZ        -0.00375  -0.00169   0.00278  -0.00674   0.01100
  13 4   C  1S          0.35303  -0.21230  -0.49015  -0.19672  -0.34016
  14        1PX        -0.16890  -0.11681   0.02741  -0.25204   0.08067
  15        1PY         0.06696  -0.20418   0.01671  -0.19773   0.24567
  16        1PZ         0.00918  -0.00458  -0.01287  -0.00574  -0.00453
  17 5   C  1S          0.28932  -0.51679  -0.18179  -0.12405   0.39267
  18        1PX        -0.10695   0.09100  -0.10577  -0.20679   0.06410
  19        1PY        -0.08166   0.01989   0.19077   0.27165   0.21279
  20        1PZ        -0.00705   0.01230   0.00458   0.00370  -0.00583
  21 6   H  1S          0.05390  -0.14712  -0.06283  -0.06733   0.24376
  22 7   H  1S          0.07096  -0.04628  -0.18394  -0.08171  -0.22784
  23 8   H  1S          0.08676   0.00559   0.22954  -0.23789  -0.17379
  24 9   H  1S          0.06227  -0.14153   0.14691   0.27935  -0.03742
                           6         7         8         9        10
                           O         O         O         O         O
     Eigenvalues --    -0.69481  -0.61904  -0.57721  -0.51004  -0.50065
   1 1   C  1S         -0.08821  -0.00140   0.16247  -0.01355  -0.09293
   2        1PX         0.04415  -0.00541  -0.14237  -0.37161  -0.12893
   3        1PY        -0.29176  -0.00332   0.21471   0.33393   0.15409
   4        1PZ        -0.00136   0.21165  -0.00991  -0.02510   0.00370
   5 2   C  1S         -0.06823  -0.00343  -0.11147  -0.07114   0.09419
   6        1PX         0.40085   0.01065   0.38244  -0.05464   0.11522
   7        1PY        -0.02664   0.01069  -0.19095   0.08130  -0.04456
   8        1PZ        -0.00920   0.40206  -0.00604  -0.00647   0.00664
   9 3   O  1S         -0.19601   0.00418  -0.04145   0.08373  -0.11928
  10        1PX         0.15604   0.01392  -0.35600   0.04546   0.28174
  11        1PY         0.47740   0.00932   0.22638  -0.00647   0.43564
  12        1PZ        -0.01607   0.77443   0.00301   0.00889   0.00270
  13 4   C  1S         -0.10581  -0.01625   0.16868  -0.01296  -0.03933
  14        1PX        -0.27289   0.00881   0.37500  -0.11418  -0.17217
  15        1PY         0.20817   0.00033  -0.12205   0.47920  -0.22054
  16        1PZ        -0.00551   0.37218  -0.00464   0.00756   0.00770
  17 5   C  1S         -0.09826   0.00321  -0.18130  -0.00921   0.03318
  18        1PX        -0.24194  -0.01587   0.03726   0.25884   0.46418
  19        1PY        -0.12925  -0.01515  -0.10895  -0.40863   0.33201
  20        1PZ        -0.00456   0.23141  -0.00430  -0.01439   0.01906
  21 6   H  1S         -0.20557  -0.01667  -0.11061   0.00126   0.47677
  22 7   H  1S         -0.24739   0.00500   0.31674  -0.37391   0.03210
  23 8   H  1S         -0.28194  -0.00470  -0.34094  -0.01138  -0.01921
  24 9   H  1S         -0.22622  -0.00125   0.27074   0.32952   0.08751
                          11        12        13        14        15
                           O         O         O         V         V
     Eigenvalues --    -0.48693  -0.40578  -0.33768   0.03013   0.06932
   1 1   C  1S          0.01742  -0.01088  -0.01069   0.01325   0.00803
   2        1PX        -0.35097  -0.02263  -0.01816   0.01351  -0.00733
   3        1PY        -0.41599   0.01166   0.00393  -0.00465  -0.00717
   4        1PZ        -0.01013   0.48002   0.53424  -0.39784  -0.52687
   5 2   C  1S          0.05359  -0.00111  -0.00095  -0.00306   0.01127
   6        1PX         0.31590   0.00416   0.01235   0.00939   0.01052
   7        1PY         0.41941  -0.00069   0.01617   0.00519  -0.02850
   8        1PZ        -0.01844  -0.04320   0.59708   0.65056   0.23596
   9 3   O  1S          0.14797  -0.00108   0.00209  -0.00111  -0.02093
  10        1PX        -0.08582  -0.01456  -0.00879  -0.00307  -0.02358
  11        1PY        -0.31920  -0.00812  -0.00764  -0.00313  -0.03194
  12        1PZ         0.00515  -0.46604  -0.13794  -0.40055   0.04973
  13 4   C  1S         -0.11881  -0.01539   0.02804  -0.03138   0.04465
  14        1PX         0.18162  -0.00158  -0.00052  -0.00670  -0.03295
  15        1PY         0.00587  -0.00181   0.01241  -0.00353  -0.03383
  16        1PZ         0.00101   0.32902  -0.55490   0.47023  -0.46482
  17 5   C  1S          0.04710   0.03171  -0.01066  -0.00482   0.02645
  18        1PX         0.27401  -0.00542   0.00474   0.00840   0.00779
  19        1PY        -0.02025  -0.02453   0.00662  -0.01920   0.00025
  20        1PZ         0.00087   0.66253  -0.16928  -0.18495   0.66114
  21 6   H  1S          0.21160  -0.01436   0.00679   0.00547  -0.01670
  22 7   H  1S          0.00205   0.00072  -0.01610   0.02483  -0.04904
  23 8   H  1S         -0.25425  -0.00705  -0.00511   0.00502  -0.01383
  24 9   H  1S         -0.24292   0.01148   0.00356  -0.00547  -0.00041
                          16        17        18        19        20
                           V         V         V         V         V
     Eigenvalues --     0.09146   0.13522   0.14281   0.16834   0.17483
   1 1   C  1S         -0.00907   0.05335  -0.31207  -0.07795  -0.20304
   2        1PX         0.10288  -0.31944  -0.03082  -0.02459   0.47931
   3        1PY         0.07011  -0.16988   0.15193   0.33645   0.04734
   4        1PZ        -0.03430  -0.01257  -0.00892  -0.02128  -0.00695
   5 2   C  1S         -0.20156  -0.29634   0.34663   0.15562   0.27115
   6        1PX        -0.03959  -0.16909  -0.01953  -0.22494   0.18138
   7        1PY         0.39112  -0.09519   0.05704   0.33438   0.15310
   8        1PZ         0.00981   0.00173  -0.00026   0.00704  -0.00342
   9 3   O  1S          0.24952   0.01445  -0.05125   0.06388   0.01443
  10        1PX         0.22353  -0.11787   0.03564  -0.16204   0.17306
  11        1PY         0.40148   0.09600  -0.13198   0.11044  -0.09261
  12        1PZ        -0.01156   0.00962   0.00832  -0.00554  -0.00017
  13 4   C  1S         -0.27795  -0.24012  -0.26701   0.27568  -0.18150
  14        1PX         0.42036  -0.27903  -0.27264   0.02076   0.16562
  15        1PY         0.20513   0.14538   0.07911   0.31548  -0.01754
  16        1PZ        -0.05836  -0.04011  -0.02456   0.02131  -0.02907
  17 5   C  1S          0.07903  -0.03407   0.35587  -0.22154  -0.21734
  18        1PX         0.08763  -0.31616   0.03798  -0.30168  -0.18274
  19        1PY         0.04595  -0.18220   0.05176   0.32926  -0.39492
  20        1PZ         0.05124   0.02331  -0.02033   0.02687   0.02794
  21 6   H  1S         -0.24126   0.40415  -0.34214   0.22475   0.42805
  22 7   H  1S          0.25069   0.49632   0.42554   0.00161   0.03612
  23 8   H  1S          0.26642   0.11621  -0.35645  -0.32472  -0.05376
  24 9   H  1S         -0.06551   0.03035   0.15639  -0.26234   0.26799
                          21        22        23        24
                           V         V         V         V
     Eigenvalues --     0.19135   0.19454   0.21207   0.23011
   1 1   C  1S         -0.34445  -0.35358  -0.00347  -0.01034
   2        1PX        -0.27988  -0.03702  -0.21527  -0.27325
   3        1PY        -0.25778   0.07473   0.50642   0.06571
   4        1PZ        -0.01890  -0.01207  -0.00286  -0.01159
   5 2   C  1S         -0.04848  -0.11391   0.02281   0.13595
   6        1PX        -0.23475   0.53214   0.18081   0.18533
   7        1PY         0.07280   0.20395   0.06789  -0.47176
   8        1PZ         0.00996  -0.00843  -0.00635   0.00929
   9 3   O  1S          0.08003  -0.06113  -0.00820  -0.03480
  10        1PX         0.02366  -0.21128  -0.01583   0.48562
  11        1PY         0.18144  -0.13808   0.02251  -0.24423
  12        1PZ        -0.00997   0.00427   0.00291  -0.01041
  13 4   C  1S          0.03752   0.17638  -0.15228  -0.07106
  14        1PX         0.27621  -0.17134   0.02783   0.36319
  15        1PY        -0.26900   0.12091  -0.40396   0.31108
  16        1PZ         0.01219   0.02027  -0.01231  -0.00336
  17 5   C  1S          0.24828   0.01771   0.32492  -0.03032
  18        1PX        -0.35858  -0.14954  -0.26959  -0.21728
  19        1PY         0.10805   0.28499  -0.28555   0.23073
  20        1PZ        -0.02298  -0.00345  -0.03052   0.01014
  21 6   H  1S          0.02641  -0.02069   0.06365   0.05102
  22 7   H  1S         -0.28949   0.02588  -0.13014   0.04186
  23 8   H  1S         -0.14309   0.48750   0.11080   0.03863
  24 9   H  1S          0.41925   0.21083  -0.42095  -0.08628
     Density Matrix:
                           1         2         3         4         5
   1 1   C  1S          1.21672
   2        1PX        -0.01885   0.91026
   3        1PY         0.06627  -0.02722   0.98963
   4        1PZ        -0.01380  -0.01192   0.00346   1.12313
   5 2   C  1S          0.26760  -0.32997  -0.35694   0.00344   1.23839
   6        1PX         0.26298  -0.19899  -0.31959   0.01350  -0.09134
   7        1PY         0.35257  -0.44140  -0.34408   0.01304   0.05398
   8        1PZ        -0.02044  -0.00414   0.01591   0.76760   0.00029
   9 3   O  1S         -0.00169  -0.03852   0.00410  -0.00276   0.12110
  10        1PX        -0.03882  -0.03706   0.00605  -0.01181  -0.22452
  11        1PY        -0.08268   0.03197   0.07387  -0.00714   0.37831
  12        1PZ         0.00879   0.01079  -0.00426  -0.26745  -0.00378
  13 4   C  1S         -0.02864   0.00604   0.02710   0.00458   0.01226
  14        1PX         0.01525  -0.08723  -0.00899  -0.00502  -0.01476
  15        1PY        -0.01589  -0.05807  -0.00305  -0.00848  -0.03863
  16        1PZ        -0.00301  -0.00455   0.00431  -0.11979  -0.00051
  17 5   C  1S          0.28928   0.44548  -0.16055   0.03347  -0.02732
  18        1PX        -0.42169  -0.50405   0.22834  -0.02549   0.01703
  19        1PY         0.22281   0.35737   0.00358   0.00769   0.01190
  20        1PZ        -0.02270  -0.02839   0.01219   0.55390   0.00464
  21 6   H  1S         -0.04700  -0.04438   0.02869  -0.00818   0.05887
  22 7   H  1S          0.05108   0.06252  -0.02761  -0.00416   0.05376
  23 8   H  1S         -0.05467   0.05750   0.06994  -0.00241   0.63558
  24 9   H  1S          0.59447  -0.20525   0.74541   0.00336  -0.04920
                           6         7         8         9        10
   6        1PX         0.96090
   7        1PY         0.06384   0.84911
   8        1PZ         0.00107   0.00734   1.04127
   9 3   O  1S          0.16510  -0.25335   0.00347   1.83752
  10        1PX        -0.09420   0.39577   0.00136  -0.08585   1.19366
  11        1PY         0.45764  -0.53160   0.00756  -0.29199   0.08986
  12        1PZ         0.00030   0.01018   0.49847   0.00969   0.01747
  13 4   C  1S         -0.01282  -0.04752   0.02239   0.09821   0.37772
  14        1PX         0.04570  -0.04867   0.00289  -0.27790  -0.72380
  15        1PY        -0.00664  -0.01111   0.00799  -0.06682  -0.20749
  16        1PZ        -0.00822  -0.00746  -0.39170   0.00756   0.02718
  17 5   C  1S         -0.02120  -0.00875  -0.00578  -0.00066  -0.02860
  18        1PX         0.00058   0.06980  -0.00698   0.03303   0.00577
  19        1PY         0.00095  -0.05110   0.01202  -0.01414   0.05829
  20        1PZ         0.00283  -0.00178  -0.07283  -0.00184   0.00193
  21 6   H  1S          0.04278   0.06640   0.00267   0.02973   0.09391
  22 7   H  1S          0.06059  -0.07660  -0.01159  -0.04880  -0.05968
  23 8   H  1S         -0.72031  -0.06945   0.01014  -0.04336   0.02520
  24 9   H  1S         -0.04728  -0.03870   0.00556   0.01937  -0.01281
                          11        12        13        14        15
  11        1PY         1.35647
  12        1PZ         0.01108   1.67306
  13 4   C  1S          0.11419  -0.02530   1.24223
  14        1PX        -0.30337   0.03219   0.10509   0.80758
  15        1PY         0.05428   0.00710  -0.05270  -0.07121   0.96518
  16        1PZ         0.01132   0.42306  -0.02839   0.00104  -0.00930
  17 5   C  1S         -0.06728  -0.01019   0.32797   0.06432   0.46576
  18        1PX         0.02853   0.00120  -0.01633   0.16397  -0.00489
  19        1PY         0.03082  -0.00199  -0.52325  -0.10892  -0.58083
  20        1PZ         0.00304  -0.21257  -0.05140  -0.00459  -0.03962
  21 6   H  1S          0.06117   0.00242  -0.05749   0.02738  -0.05338
  22 7   H  1S         -0.04240   0.00961   0.60202   0.42894  -0.61058
  23 8   H  1S         -0.06898   0.00478   0.05264  -0.11118  -0.01398
  24 9   H  1S          0.07847  -0.00464   0.05699   0.00606   0.05633
                          16        17        18        19        20
  16        1PZ         1.11037
  17 5   C  1S          0.05092   1.20092
  18        1PX        -0.00499   0.06950   0.99111
  19        1PY        -0.04509   0.05331   0.03649   0.93919
  20        1PZ         0.79590   0.02724  -0.00303  -0.01234   1.04406
  21 6   H  1S         -0.01580   0.54513   0.68530   0.41406  -0.01600
  22 7   H  1S          0.02616  -0.05949   0.00025   0.09638   0.01847
  23 8   H  1S          0.00276   0.03716  -0.04186   0.02485  -0.00385
  24 9   H  1S          0.00428  -0.04600   0.05781  -0.02625   0.00607
                          21        22        23        24
  21 6   H  1S          0.83913
  22 7   H  1S          0.00608   0.80450
  23 8   H  1S         -0.00814  -0.02472   0.81602
  24 9   H  1S         -0.01162  -0.01918   0.01219   0.84960
    Full Mulliken population analysis:
                           1         2         3         4         5
   1 1   C  1S          1.21672
   2        1PX         0.00000   0.91026
   3        1PY         0.00000   0.00000   0.98963
   4        1PZ         0.00000   0.00000   0.00000   1.12313
   5 2   C  1S          0.00000   0.00000   0.00000   0.00000   1.23839
   6        1PX         0.00000   0.00000   0.00000   0.00000   0.00000
   7        1PY         0.00000   0.00000   0.00000   0.00000   0.00000
   8        1PZ         0.00000   0.00000   0.00000   0.00000   0.00000
   9 3   O  1S          0.00000   0.00000   0.00000   0.00000   0.00000
  10        1PX         0.00000   0.00000   0.00000   0.00000   0.00000
  11        1PY         0.00000   0.00000   0.00000   0.00000   0.00000
  12        1PZ         0.00000   0.00000   0.00000   0.00000   0.00000
  13 4   C  1S          0.00000   0.00000   0.00000   0.00000   0.00000
  14        1PX         0.00000   0.00000   0.00000   0.00000   0.00000
  15        1PY         0.00000   0.00000   0.00000   0.00000   0.00000
  16        1PZ         0.00000   0.00000   0.00000   0.00000   0.00000
  17 5   C  1S          0.00000   0.00000   0.00000   0.00000   0.00000
  18        1PX         0.00000   0.00000   0.00000   0.00000   0.00000
  19        1PY         0.00000   0.00000   0.00000   0.00000   0.00000
  20        1PZ         0.00000   0.00000   0.00000   0.00000   0.00000
  21 6   H  1S          0.00000   0.00000   0.00000   0.00000   0.00000
  22 7   H  1S          0.00000   0.00000   0.00000   0.00000   0.00000
  23 8   H  1S          0.00000   0.00000   0.00000   0.00000   0.00000
  24 9   H  1S          0.00000   0.00000   0.00000   0.00000   0.00000
                           6         7         8         9        10
   6        1PX         0.96090
   7        1PY         0.00000   0.84911
   8        1PZ         0.00000   0.00000   1.04127
   9 3   O  1S          0.00000   0.00000   0.00000   1.83752
  10        1PX         0.00000   0.00000   0.00000   0.00000   1.19366
  11        1PY         0.00000   0.00000   0.00000   0.00000   0.00000
  12        1PZ         0.00000   0.00000   0.00000   0.00000   0.00000
  13 4   C  1S          0.00000   0.00000   0.00000   0.00000   0.00000
  14        1PX         0.00000   0.00000   0.00000   0.00000   0.00000
  15        1PY         0.00000   0.00000   0.00000   0.00000   0.00000
  16        1PZ         0.00000   0.00000   0.00000   0.00000   0.00000
  17 5   C  1S          0.00000   0.00000   0.00000   0.00000   0.00000
  18        1PX         0.00000   0.00000   0.00000   0.00000   0.00000
  19        1PY         0.00000   0.00000   0.00000   0.00000   0.00000
  20        1PZ         0.00000   0.00000   0.00000   0.00000   0.00000
  21 6   H  1S          0.00000   0.00000   0.00000   0.00000   0.00000
  22 7   H  1S          0.00000   0.00000   0.00000   0.00000   0.00000
  23 8   H  1S          0.00000   0.00000   0.00000   0.00000   0.00000
  24 9   H  1S          0.00000   0.00000   0.00000   0.00000   0.00000
                          11        12        13        14        15
  11        1PY         1.35647
  12        1PZ         0.00000   1.67306
  13 4   C  1S          0.00000   0.00000   1.24223
  14        1PX         0.00000   0.00000   0.00000   0.80758
  15        1PY         0.00000   0.00000   0.00000   0.00000   0.96518
  16        1PZ         0.00000   0.00000   0.00000   0.00000   0.00000
  17 5   C  1S          0.00000   0.00000   0.00000   0.00000   0.00000
  18        1PX         0.00000   0.00000   0.00000   0.00000   0.00000
  19        1PY         0.00000   0.00000   0.00000   0.00000   0.00000
  20        1PZ         0.00000   0.00000   0.00000   0.00000   0.00000
  21 6   H  1S          0.00000   0.00000   0.00000   0.00000   0.00000
  22 7   H  1S          0.00000   0.00000   0.00000   0.00000   0.00000
  23 8   H  1S          0.00000   0.00000   0.00000   0.00000   0.00000
  24 9   H  1S          0.00000   0.00000   0.00000   0.00000   0.00000
                          16        17        18        19        20
  16        1PZ         1.11037
  17 5   C  1S          0.00000   1.20092
  18        1PX         0.00000   0.00000   0.99111
  19        1PY         0.00000   0.00000   0.00000   0.93919
  20        1PZ         0.00000   0.00000   0.00000   0.00000   1.04406
  21 6   H  1S          0.00000   0.00000   0.00000   0.00000   0.00000
  22 7   H  1S          0.00000   0.00000   0.00000   0.00000   0.00000
  23 8   H  1S          0.00000   0.00000   0.00000   0.00000   0.00000
  24 9   H  1S          0.00000   0.00000   0.00000   0.00000   0.00000
                          21        22        23        24
  21 6   H  1S          0.83913
  22 7   H  1S          0.00000   0.80450
  23 8   H  1S          0.00000   0.00000   0.81602
  24 9   H  1S          0.00000   0.00000   0.00000   0.84960
     Gross orbital populations:
                           1
   1 1   C  1S          1.21672
   2        1PX         0.91026
   3        1PY         0.98963
   4        1PZ         1.12313
   5 2   C  1S          1.23839
   6        1PX         0.96090
   7        1PY         0.84911
   8        1PZ         1.04127
   9 3   O  1S          1.83752
  10        1PX         1.19366
  11        1PY         1.35647
  12        1PZ         1.67306
  13 4   C  1S          1.24223
  14        1PX         0.80758
  15        1PY         0.96518
  16        1PZ         1.11037
  17 5   C  1S          1.20092
  18        1PX         0.99111
  19        1PY         0.93919
  20        1PZ         1.04406
  21 6   H  1S          0.83913
  22 7   H  1S          0.80450
  23 8   H  1S          0.81602
  24 9   H  1S          0.84960
          Condensed to atoms (all electrons):
               1          2          3          4          5          6
     1  C    4.239748   0.000000   0.000000   0.000000   0.000000   0.000000
     2  C    0.000000   4.089664   0.000000   0.000000   0.000000   0.000000
     3  O    0.000000   0.000000   6.060695   0.000000   0.000000   0.000000
     4  C    0.000000   0.000000   0.000000   4.125361   0.000000   0.000000
     5  C    0.000000   0.000000   0.000000   0.000000   4.175279   0.000000
     6  H    0.000000   0.000000   0.000000   0.000000   0.000000   0.839127
     7  H    0.000000   0.000000   0.000000   0.000000   0.000000   0.000000
     8  H    0.000000   0.000000   0.000000   0.000000   0.000000   0.000000
     9  H    0.000000   0.000000   0.000000   0.000000   0.000000   0.000000
               7          8          9
     1  C    0.000000   0.000000   0.000000
     2  C    0.000000   0.000000   0.000000
     3  O    0.000000   0.000000   0.000000
     4  C    0.000000   0.000000   0.000000
     5  C    0.000000   0.000000   0.000000
     6  H    0.000000   0.000000   0.000000
     7  H    0.804501   0.000000   0.000000
     8  H    0.000000   0.816024   0.000000
     9  H    0.000000   0.000000   0.849600
 Mulliken charges:
               1
     1  C   -0.239748
     2  C   -0.089664
     3  O   -0.060695
     4  C   -0.125361
     5  C   -0.175279
     6  H    0.160873
     7  H    0.195499
     8  H    0.183976
     9  H    0.150400
 Sum of Mulliken charges =   0.00000
 Mulliken charges with hydrogens summed into heavy atoms:
               1
     1  C   -0.089349
     2  C    0.094312
     3  O   -0.060695
     4  C    0.070138
     5  C   -0.014406
 Charge=              0.0000 electrons
 Dipole moment (field-independent basis, Debye):
    X=              0.2015    Y=              0.0720    Z=              0.0718  Tot=              0.2257
 N-N= 1.043384072308D+02 E-N=-1.724078448477D+02  KE=-1.666037179509D+01
 Orbital energies and kinetic energies (alpha):
                                 1                 2
   1         O                -1.604328         -1.340702
   2         O                -1.252464         -1.061152
   3         O                -1.108442         -0.965253
   4         O                -0.841002         -0.726318
   5         O                -0.810684         -0.706183
   6         O                -0.694809         -0.606498
   7         O                -0.619045         -0.497663
   8         O                -0.577208         -0.509757
   9         O                -0.510038         -0.430849
  10         O                -0.500651         -0.426623
  11         O                -0.486933         -0.402120
  12         O                -0.405777         -0.350148
  13         O                -0.337681         -0.306919
  14         V                 0.030129         -0.189913
  15         V                 0.069325         -0.186747
  16         V                 0.091456         -0.184072
  17         V                 0.135220         -0.217290
  18         V                 0.142805         -0.244856
  19         V                 0.168344         -0.150743
  20         V                 0.174829         -0.167774
  21         V                 0.191351         -0.159146
  22         V                 0.194538         -0.145823
  23         V                 0.212074         -0.128699
  24         V                 0.230112         -0.033304
 Total kinetic energy from orbitals=-1.666037179509D+01
 Leave Link  601 at Tue Dec 15 16:20:33 2015, MaxMem=    33554432 cpu:         0.0
 (Enter /home/Applications/g09/g09/l701.exe)
 Compute integral first derivatives.
 ... and contract with generalized density number  6.
 Leave Link  701 at Tue Dec 15 16:20:33 2015, MaxMem=    33554432 cpu:         0.0
 (Enter /home/Applications/g09/g09/l702.exe)
 L702 exits ... SP integral derivatives will be done elsewhere.
 Leave Link  702 at Tue Dec 15 16:20:33 2015, MaxMem=    33554432 cpu:         0.0
 (Enter /home/Applications/g09/g09/l703.exe)
 Compute integral first derivatives, UseDBF=F ICtDFT=           0.
 Integral derivatives from FoFJK, PRISM(SPDF).
 Calling FoFJK, ICntrl=  10005127 FMM=F ISym2X=0 I1Cent= 0 IOpClX= 0 NMat=1 NMatS=1 NMatT=0.
 FoFJK:  IHMeth= 8 ICntrl=10005127 DoSepK=F KAlg= 0 I1Cent=   0 FoldK=F
 IRaf=         0 NMat=   1 IRICut=       1 DoRegI=T DoRafI=F ISym2E= 0.
 FoFCou: FMM=F IPFlag=           0 FMFlag=      100000 FMFlg1=         800
         NFxFlg=           0 DoJE=F BraDBF=F KetDBF=F FulRan=T
         wScrn=  0.000000 ICntrl=10005127 IOpCl=  0 I1Cent=           0 NGrid=           0
         NMat0=    1 NMatS0=      1 NMatT0=    0 NMatD0=    1 NMtDS0=    0 NMtDT0=    0
 Symmetry not used in FoFCou.
 Leave Link  703 at Tue Dec 15 16:20:33 2015, MaxMem=    33554432 cpu:         0.0
 (Enter /home/Applications/g09/g09/l716.exe)
 Dipole        = 1.06059199D-01 1.65444635D-01 4.05290434D-02
 ***** Axes restored to original set *****
 -------------------------------------------------------------------
 Center     Atomic                   Forces (Hartrees/Bohr)
 Number     Number              X              Y              Z
 -------------------------------------------------------------------
      1        6           0.010143316   -0.024133562   -0.007288806
      2        6           0.079801561   -0.021985165    0.006512487
      3        8          -0.172291613    0.034149630    0.000528549
      4        6          -0.115035718    0.119805253   -0.008780041
      5        6           0.208834242    0.048606442    0.010377951
      6        1          -0.031063073   -0.026565485   -0.005252183
      7        1           0.010866812   -0.015497984    0.004872709
      8        1          -0.040108330   -0.079865613   -0.002142478
      9        1           0.048852804   -0.034513516    0.001171811
 -------------------------------------------------------------------
 Cartesian Forces:  Max     0.208834242 RMS     0.068280516
 Z-matrix is all fixed cartesians, so copy forces.
 Force constants in Cartesian coordinates: 
                1             2             3             4             5 
      1  0.848933D+00
      2 -0.108359D+00  0.919778D+00
      3  0.396207D-02 -0.193197D-01  0.212629D+00
      4 -0.375070D+00 -0.762586D-01 -0.393070D-02  0.867568D+00
      5 -0.553247D-01 -0.189027D+00 -0.262425D-03 -0.339815D-01  0.112728D+01
      6 -0.717167D-02 -0.122938D-02 -0.820241D-01  0.137522D-01  0.149376D-02
      7 -0.924734D-02  0.298754D-01 -0.774084D-03 -0.329107D+00  0.228887D+00
      8 -0.609733D-02  0.198182D-01  0.131122D-03  0.272219D+00 -0.508531D+00
      9 -0.810741D-03  0.387921D-03  0.794551D-02 -0.648920D-02  0.433402D-02
     10  0.117996D-01  0.356943D-03 -0.157079D-02  0.264341D-01  0.175092D-01
     11  0.372393D-01  0.113528D-02 -0.519113D-02 -0.193187D-01 -0.128229D-01
     12 -0.333596D-02 -0.177122D-03 -0.563681D-02  0.834052D-03  0.292336D-03
     13 -0.181675D+00  0.222440D-01  0.562104D-03  0.104090D-01 -0.337793D-01
     14 -0.198301D-02 -0.507379D+00  0.254145D-01  0.385402D-03 -0.128518D-02
     15 -0.648762D-04  0.216934D-01 -0.990602D-01  0.264511D-03 -0.619114D-03
     16  0.166862D-01  0.614156D-03 -0.985291D-04  0.124503D-04 -0.198294D-04
     17 -0.221991D-01 -0.886637D-03 -0.134961D-02 -0.655456D-05  0.104394D-04
     18  0.262889D-02  0.114833D-02  0.223656D-01 -0.149331D-03  0.237838D-03
     19  0.664711D-04  0.474308D-04  0.957031D-03  0.111349D-04  0.292920D-05
     20  0.897663D-04  0.640532D-04  0.129243D-02 -0.345025D-05  0.000000D+00
     21  0.702400D-03  0.501201D-03  0.101129D-01 -0.145950D-03 -0.383944D-04
     22  0.852264D-02 -0.275361D-01 -0.510901D-03 -0.194533D+00 -0.141793D+00
     23 -0.377910D-02  0.122255D-01 -0.991810D-04 -0.136016D+00 -0.438313D+00
     24 -0.801800D-04 -0.693237D-03  0.201333D-01 -0.369886D-02 -0.599041D-02
     25 -0.320015D+00  0.159016D+00  0.140380D-02 -0.572528D-02  0.184994D-01
     26  0.160413D+00 -0.255728D+00 -0.615953D-03 -0.702035D-02  0.226895D-01
     27  0.417007D-02 -0.231139D-02 -0.864649D-01 -0.436742D-03  0.552390D-03
                6             7             8             9            10 
      6  0.175663D+00
      7 -0.664100D-02  0.576429D+00
      8  0.540903D-02 -0.736547D-01  0.845162D+00
      9 -0.471725D-01  0.149609D-01  0.413153D-02  0.624657D-01
     10  0.129927D-02 -0.274919D+00 -0.202611D+00 -0.124231D-01  0.104822D+01
     11 -0.137132D-02 -0.155316D+00 -0.361573D+00 -0.122857D-01 -0.721915D-01
     12 -0.367423D-02 -0.802278D-02 -0.953460D-02 -0.527863D-01 -0.108991D-01
     13  0.270105D-02 -0.979129D-02  0.709514D-02  0.181443D-02 -0.640714D+00
     14  0.517286D-03 -0.301482D-01  0.219165D-01  0.314613D-02  0.158637D+00
     15  0.290577D-03 -0.158946D-02  0.772336D-03  0.101724D-01  0.320713D-01
     16 -0.431867D-03  0.613798D-05 -0.101158D-04  0.175558D-03 -0.551235D-02
     17  0.227360D-03 -0.260615D-04  0.429512D-04 -0.745410D-03  0.706255D-02
     18  0.517989D-02  0.271466D-03 -0.447394D-03  0.776445D-02  0.322818D-02
     19 -0.344785D-03  0.199373D-01 -0.146284D-01  0.206352D-02 -0.165335D+00
     20  0.106835D-03  0.122322D-01 -0.898254D-02  0.150067D-02  0.912111D-01
     21  0.451925D-02  0.118083D-02 -0.973740D-03  0.346782D-02 -0.119625D-01
     22 -0.347690D-02  0.266915D-01  0.176873D-01  0.746704D-03  0.681563D-05
     23 -0.542173D-02 -0.118506D-01 -0.785370D-02 -0.395686D-03  0.117168D-05
     24 -0.709585D-01  0.678381D-03  0.500654D-03  0.398391D-02 -0.259228D-03
     25  0.313685D-03  0.000000D+00  0.000000D+00 -0.381296D-04  0.231599D-04
     26  0.268157D-03  0.113516D-05  0.000000D+00 -0.734614D-04  0.250994D-04
     27  0.181763D-01 -0.642664D-04  0.110591D-04  0.415897D-02  0.515924D-03
               11            12            13            14            15 
     11  0.855169D+00
     12  0.947968D-02  0.246242D+00
     13  0.128490D+00  0.324346D-01  0.100134D+01
     14 -0.248383D+00 -0.947194D-02 -0.695628D-01  0.881432D+00
     15 -0.116093D-01 -0.135916D+00 -0.229005D-01 -0.816536D-02  0.245844D+00
     16 -0.169238D-01 -0.123272D-02 -0.207689D+00 -0.828944D-01 -0.638451D-02
     17  0.220166D-01 -0.426190D-03 -0.841706D-01 -0.162053D+00 -0.367765D-02
     18  0.487079D-02  0.310370D-01 -0.117634D-01 -0.869553D-02 -0.890742D-01
     19  0.980027D-01 -0.990046D-02  0.792221D-02  0.248243D-01 -0.124678D-02
     20 -0.255561D+00  0.951274D-02  0.488199D-02  0.148478D-01  0.193774D-02
     21  0.158070D-01 -0.947211D-01  0.775154D-03 -0.398637D-02  0.384637D-01
     22  0.179296D-05 -0.211042D-03  0.142717D-05 -0.227304D-05 -0.495048D-04
     23  0.000000D+00 -0.362804D-04  0.143706D-05 -0.228878D-05 -0.498477D-04
     24 -0.681940D-04  0.802685D-02 -0.127925D-03  0.203744D-03  0.443736D-02
     25  0.165259D-04  0.333450D-03  0.201992D-01  0.744359D-03 -0.100115D-03
     26  0.179098D-04  0.361374D-03  0.248006D-01  0.906440D-03 -0.282221D-03
     27  0.368140D-03  0.742813D-02 -0.349545D-02  0.103757D-02  0.248421D-01
               16            17            18            19            20 
     16  0.196490D+00
     17  0.992350D-01  0.140723D+00
     18  0.749318D-02  0.508100D-02  0.457421D-01
     19 -0.290715D-04  0.123436D-03 -0.128575D-02  0.137427D+00
     20 -0.392597D-04  0.166694D-03 -0.173635D-02 -0.108372D+00  0.249465D+00
     21 -0.307198D-03  0.130434D-02 -0.135865D-01  0.975722D-02 -0.126141D-01
     22  0.000000D+00  0.000000D+00  0.000000D+00  0.000000D+00  0.000000D+00
     23  0.000000D+00  0.000000D+00  0.000000D+00  0.000000D+00  0.000000D+00
     24  0.000000D+00  0.000000D+00  0.000000D+00  0.000000D+00  0.000000D+00
     25  0.352874D-04 -0.185774D-04 -0.423244D-03  0.000000D+00  0.000000D+00
     26  0.382425D-04 -0.201331D-04 -0.458687D-03  0.000000D+00  0.000000D+00
     27  0.786084D-03 -0.413841D-03 -0.942843D-02  0.000000D+00  0.000000D+00
               21            22            23            24            25 
     21  0.517439D-01
     22  0.000000D+00  0.159311D+00
     23  0.000000D+00  0.151643D+00  0.433945D+00
     24  0.000000D+00  0.342405D-02  0.592459D-02  0.413327D-01
     25  0.000000D+00  0.000000D+00  0.000000D+00  0.637691D-04  0.305483D+00
     26  0.000000D+00 -0.137066D-05 -0.138015D-05  0.122859D-03 -0.178257D+00
     27  0.000000D+00  0.775989D-04  0.781364D-04 -0.695558D-02 -0.155322D-02
               26            27 
     26  0.232136D+00
     27  0.677934D-03  0.482435D-01
 Leave Link  716 at Tue Dec 15 16:20:33 2015, MaxMem=    33554432 cpu:         0.0
 (Enter /home/Applications/g09/g09/l103.exe)

 GradGradGradGradGradGradGradGradGradGradGradGradGradGradGradGradGradGrad
 Berny optimization.
 Search for a local minimum.
 Step number   1 out of a maximum of    2
 All quantities printed in internal units (Hartrees-Bohrs-Radians)
 Second derivative matrix not updated -- first step.
 ITU=  0
     Eigenvalues ---    0.02067   0.03758   0.06721   0.07831   0.08161
     Eigenvalues ---    0.08860   0.13295   0.16459   0.17096   0.24948
     Eigenvalues ---    0.26442   0.31402   0.44705   0.46300   0.61683
     Eigenvalues ---    0.91031   1.15126   1.41435   1.49232   1.75323
     Eigenvalues ---    1.87337
 Quadratic step=5.992D-01 exceeds max=3.000D-01 adjusted using Lamda=-3.512D-01.
 Angle between NR and scaled steps=  23.89 degrees.
 Angle between quadratic step and forces=  26.35 degrees.
 Linear search not attempted -- first point.
 TrRot= -0.007838  0.010636  0.000215 -0.911737 -0.000210  0.911610
 Variable       Old X    -DE/DX   Delta X   Delta X   Delta X     New X
                                 (Linear)    (Quad)   (Total)
    X1        1.85161   0.01014   0.00000   0.06639   0.05837   1.90998
    Y1       -1.29442  -0.02413   0.00000  -0.02339  -0.01298  -1.30740
    Z1        0.08920  -0.00729   0.00000  -0.01304  -0.01236   0.07684
    X2       -0.74760   0.07980   0.00000   0.02243   0.01432  -0.73328
    Y2       -2.09819  -0.02199   0.00000  -0.01835  -0.00761  -2.10580
    Z2        0.05117   0.00651   0.00000   0.00639   0.00686   0.05804
    X3       -2.09932  -0.17229   0.00000  -0.16763  -0.17547  -2.27479
    Y3       -0.05723   0.03415   0.00000   0.01200   0.02293  -0.03430
    Z3        0.02486   0.00053   0.00000   0.00565   0.00558   0.03043
    X4       -0.56850  -0.11504   0.00000  -0.05245  -0.06002  -0.62852
    Y4        2.03863   0.11981   0.00000   0.07110   0.08183   2.12046
    Z4        0.09210  -0.00878   0.00000  -0.01945  -0.01966   0.07244
    X5        1.75574   0.20883   0.00000   0.13599   0.12833   1.88407
    Y5        1.29065   0.04861   0.00000   0.04852   0.05891   1.34956
    Z5       -0.03226   0.01038   0.00000   0.02036   0.02060  -0.01166
    X6        3.51280  -0.03106   0.00000   0.00914   0.00163   3.51443
    Y6        2.62179  -0.02657   0.00000  -0.02085  -0.01066   2.61113
    Z6        0.05581  -0.00525   0.00000  -0.00218  -0.00194   0.05387
    X7       -1.66717   0.01087   0.00000  -0.00172  -0.00906  -1.67623
    Y7        3.84156  -0.01550   0.00000   0.00994   0.02078   3.86234
    Z7       -0.03434   0.00487   0.00000   0.00292   0.00228  -0.03206
    X8       -1.50346  -0.04011   0.00000  -0.03447  -0.04281  -1.54626
    Y8       -3.80220  -0.07987   0.00000  -0.10598  -0.09514  -3.89735
    Z8        0.02360  -0.00214   0.00000  -0.00185  -0.00118   0.02242
    X9        3.33885   0.04885   0.00000   0.09290   0.08472   3.42357
    Y9       -2.50682  -0.03451   0.00000  -0.06827  -0.05806  -2.56488
    Z9        0.08142   0.00117   0.00000  -0.00126  -0.00018   0.08124
         Item               Value     Threshold  Converged?
 Maximum Force            0.208834     0.000450     NO 
 RMS     Force            0.068281     0.000300     NO 
 Maximum Displacement     0.175474     0.001800     NO 
 RMS     Displacement     0.057255     0.001200     NO 
 Predicted change in Energy=-6.352770D-02
 GradGradGradGradGradGradGradGradGradGradGradGradGradGradGradGradGradGrad

 Leave Link  103 at Tue Dec 15 16:20:33 2015, MaxMem=    33554432 cpu:         0.0
 (Enter /home/Applications/g09/g09/l9999.exe)
 1\1\GINC-DUSTIN-DESKTOP\Force\RAM1-FC\STO-3G\C4H4O1\DUSTIN\15-Dec-2015
 \0\\#P AM1(Input,print) CIS(Singlets,NStates=15) pop(full) force\\AM1-
 Reparam Input\\0,1\C,0.979829,-0.684975,0.047202\C,-0.395614,-1.110312
 ,0.027079\O,-1.110911,-0.030286,0.013154\C,-0.300835,1.078798,0.048738
 \C,0.9291,0.682982,-0.017071\H,1.858894,1.387389,0.029531\H,-0.882226,
 2.032868,-0.018172\H,-0.795595,-2.01204,0.012487\H,1.766845,-1.326551,
 0.043085\\Version=ES64L-G09RevD.01\State=1-A\HF=0.0552373\RMSD=9.546e-
 09\RMSF=6.828e-02\Dipole=0.1934088,0.0349299,-0.0404477\PG=C01 [X(C4H4
 O1)]\\@


 WE HAVE LEARNED THAT NOTHING IS SIMPLE AND
 RATIONAL EXCEPT WHAT WE OURSELVES HAVE INVENTED;
 THAT GOD THINKS IN TERMS NEITHER OF EUCLID OR RIEMANN; THAT SCIENCE HAS "EXPLAINED" NOTHING;
 THAT THE MORE WE KNOW THE MORE FANTASTIC THE WORLD BECOMES
 AND THE PROFOUNDER THE SURROUNDING DARKNESS.
   --  ALDOUS HUXLEY
 Job cpu time:       0 days  0 hours  0 minutes  0.4 seconds.
 File lengths (MBytes):  RWF=      7 Int=      0 D2E=      0 Chk=      2 Scr=      1
 Normal termination of Gaussian 09 at Tue Dec 15 16:20:33 2015.
