 Entering Gaussian System, Link 0=g09
 Input=FuranAM1_59P2.com
 Output=FuranAM1_59P2.log
 Initial command:
 /home/Applications/g09/g09/l1.exe "/home/Applications/g09/scratch/Gau-11417.inp" -scrdir="/home/Applications/g09/scratch/"
 Entering Link 1 = /home/Applications/g09/g09/l1.exe PID=     11419.
  
 Copyright (c) 1988,1990,1992,1993,1995,1998,2003,2009,2013,
            Gaussian, Inc.  All Rights Reserved.
  
 This is part of the Gaussian(R) 09 program.  It is based on
 the Gaussian(R) 03 system (copyright 2003, Gaussian, Inc.),
 the Gaussian(R) 98 system (copyright 1998, Gaussian, Inc.),
 the Gaussian(R) 94 system (copyright 1995, Gaussian, Inc.),
 the Gaussian 92(TM) system (copyright 1992, Gaussian, Inc.),
 the Gaussian 90(TM) system (copyright 1990, Gaussian, Inc.),
 the Gaussian 88(TM) system (copyright 1988, Gaussian, Inc.),
 the Gaussian 86(TM) system (copyright 1986, Carnegie Mellon
 University), and the Gaussian 82(TM) system (copyright 1983,
 Carnegie Mellon University). Gaussian is a federally registered
 trademark of Gaussian, Inc.
  
 This software contains proprietary and confidential information,
 including trade secrets, belonging to Gaussian, Inc.
  
 This software is provided under written license and may be
 used, copied, transmitted, or stored only in accord with that
 written license.
  
 The following legend is applicable only to US Government
 contracts under FAR:
  
                    RESTRICTED RIGHTS LEGEND
  
 Use, reproduction and disclosure by the US Government is
 subject to restrictions as set forth in subparagraphs (a)
 and (c) of the Commercial Computer Software - Restricted
 Rights clause in FAR 52.227-19.
  
 Gaussian, Inc.
 340 Quinnipiac St., Bldg. 40, Wallingford CT 06492
  
  
 ---------------------------------------------------------------
 Warning -- This program may not be used in any manner that
 competes with the business of Gaussian, Inc. or will provide
 assistance to any competitor of Gaussian, Inc.  The licensee
 of this program is prohibited from giving any competitor of
 Gaussian, Inc. access to this program.  By using this program,
 the user acknowledges that Gaussian, Inc. is engaged in the
 business of creating and licensing software in the field of
 computational chemistry and represents and warrants to the
 licensee that it is not a competitor of Gaussian, Inc. and that
 it will not use this program in any manner prohibited above.
 ---------------------------------------------------------------
  

 Cite this work as:
 Gaussian 09, Revision D.01,
 M. J. Frisch, G. W. Trucks, H. B. Schlegel, G. E. Scuseria, 
 M. A. Robb, J. R. Cheeseman, G. Scalmani, V. Barone, B. Mennucci, 
 G. A. Petersson, H. Nakatsuji, M. Caricato, X. Li, H. P. Hratchian, 
 A. F. Izmaylov, J. Bloino, G. Zheng, J. L. Sonnenberg, M. Hada, 
 M. Ehara, K. Toyota, R. Fukuda, J. Hasegawa, M. Ishida, T. Nakajima, 
 Y. Honda, O. Kitao, H. Nakai, T. Vreven, J. A. Montgomery, Jr., 
 J. E. Peralta, F. Ogliaro, M. Bearpark, J. J. Heyd, E. Brothers, 
 K. N. Kudin, V. N. Staroverov, T. Keith, R. Kobayashi, J. Normand, 
 K. Raghavachari, A. Rendell, J. C. Burant, S. S. Iyengar, J. Tomasi, 
 M. Cossi, N. Rega, J. M. Millam, M. Klene, J. E. Knox, J. B. Cross, 
 V. Bakken, C. Adamo, J. Jaramillo, R. Gomperts, R. E. Stratmann, 
 O. Yazyev, A. J. Austin, R. Cammi, C. Pomelli, J. W. Ochterski, 
 R. L. Martin, K. Morokuma, V. G. Zakrzewski, G. A. Voth, 
 P. Salvador, J. J. Dannenberg, S. Dapprich, A. D. Daniels, 
 O. Farkas, J. B. Foresman, J. V. Ortiz, J. Cioslowski, 
 and D. J. Fox, Gaussian, Inc., Wallingford CT, 2013.
 
 ******************************************
 Gaussian 09:  ES64L-G09RevD.01 24-Apr-2013
                15-Dec-2015 
 ******************************************
 ------------------------------------------------------------
 #P AM1(Input,print) CIS(Singlets,NStates=15) pop(full) force
 ------------------------------------------------------------
 1/10=7,30=1,38=1/1,3;
 2/12=2,17=6,18=5,40=1/2;
 3/5=2,16=1,25=1,41=700000,71=1,135=100,136=1/1,2,8,3;
 4/35=1/1;
 5/5=2,35=1,38=5/2;
 8/6=1,10=1,108=15/1;
 9/15=2,41=15,42=1,48=1,49=10/14;
 10/5=4/2;
 6/7=3,18=1/1;
 7/12=6,13=5,29=1/1,2,3,16;
 1/10=7,30=1/3;
 99//99;
 Leave Link    1 at Tue Dec 15 17:09:41 2015, MaxMem=           0 cpu:         0.0
 (Enter /home/Applications/g09/g09/l101.exe)
 -----------------
 AM1-Reparam Input
 -----------------
 Symbolic Z-matrix:
 Charge =  0 Multiplicity = 1
 6                     0.98863  -0.76453   0.03184 
 6                    -0.30198  -1.14053  -0.04831 
 8                    -1.1901    0.00245   0.0446 
 6                    -0.33612   1.12944  -0.00585 
 6                     0.91653   0.72411   0.03626 
 1                     1.85762   1.36982  -0.01401 
 1                    -0.81331   2.08546   0.00787 
 1                    -0.79135  -2.00523  -0.03815 
 1                     1.85767  -1.39035   0.01275 
 
 NAtoms=      9 NQM=        9 NQMF=       0 NMMI=      0 NMMIF=      0
                NMic=       0 NMicF=      0.
                    Isotopes and Nuclear Properties:
 (Nuclear quadrupole moments (NQMom) in fm**2, nuclear magnetic moments (NMagM)
  in nuclear magnetons)

  Atom         1           2           3           4           5           6           7           8           9
 IAtWgt=          12          12          16          12          12           1           1           1           1
 AtmWgt=  12.0000000  12.0000000  15.9949146  12.0000000  12.0000000   1.0078250   1.0078250   1.0078250   1.0078250
 NucSpn=           0           0           0           0           0           1           1           1           1
 AtZEff=   0.0000000   0.0000000   0.0000000   0.0000000   0.0000000   0.0000000   0.0000000   0.0000000   0.0000000
 NQMom=    0.0000000   0.0000000   0.0000000   0.0000000   0.0000000   0.0000000   0.0000000   0.0000000   0.0000000
 NMagM=    0.0000000   0.0000000   0.0000000   0.0000000   0.0000000   2.7928460   2.7928460   2.7928460   2.7928460
 AtZNuc=   6.0000000   6.0000000   8.0000000   6.0000000   6.0000000   1.0000000   1.0000000   1.0000000   1.0000000
 Leave Link  101 at Tue Dec 15 17:09:41 2015, MaxMem=    33554432 cpu:         0.0
 (Enter /home/Applications/g09/g09/l103.exe)

 GradGradGradGradGradGradGradGradGradGradGradGradGradGradGradGradGradGrad
 Berny optimization.
 Initialization pass.
 Trust Radius=3.00D-01 FncErr=1.00D-07 GrdErr=1.00D-07
 Number of steps in this run=      2 maximum allowed number of steps=      2.
 GradGradGradGradGradGradGradGradGradGradGradGradGradGradGradGradGradGrad

 Leave Link  103 at Tue Dec 15 17:09:41 2015, MaxMem=    33554432 cpu:         0.0
 (Enter /home/Applications/g09/g09/l202.exe)
                          Input orientation:                          
 ---------------------------------------------------------------------
 Center     Atomic      Atomic             Coordinates (Angstroms)
 Number     Number       Type             X           Y           Z
 ---------------------------------------------------------------------
      1          6           0        0.988626   -0.764534    0.031843
      2          6           0       -0.301978   -1.140530   -0.048312
      3          8           0       -1.190098    0.002450    0.044603
      4          6           0       -0.336119    1.129439   -0.005846
      5          6           0        0.916533    0.724113    0.036257
      6          1           0        1.857624    1.369815   -0.014008
      7          1           0       -0.813310    2.085461    0.007870
      8          1           0       -0.791352   -2.005232   -0.038153
      9          1           0        1.857672   -1.390348    0.012749
 ---------------------------------------------------------------------
                    Distance matrix (angstroms):
                    1          2          3          4          5
     1  C    0.000000
     2  C    1.346646   0.000000
     3  O    2.309819   1.450446   0.000000
     4  C    2.311602   2.270623   1.414896   0.000000
     5  C    1.490398   2.229084   2.226828   1.317269   0.000000
     6  H    2.304931   3.311629   3.340918   2.206888   1.142414
     7  H    3.371946   3.266747   2.117133   1.068587   2.201461
     8  H    2.170841   0.993630   2.048569   3.167719   3.220517
     9  H    1.071097   2.174908   3.351090   3.341016   2.314571
                    6          7          8          9
     6  H    0.000000
     7  H    2.765233   0.000000
     8  H    4.290524   4.091011   0.000000
     9  H    2.760293   4.383539   2.719927   0.000000
 Stoichiometry    C4H4O
 Framework group  C1[X(C4H4O)]
 Deg. of freedom    21
 Full point group                 C1      NOp   1
 Largest Abelian subgroup         C1      NOp   1
 Largest concise Abelian subgroup C1      NOp   1
                         Standard orientation:                         
 ---------------------------------------------------------------------
 Center     Atomic      Atomic             Coordinates (Angstroms)
 Number     Number       Type             X           Y           Z
 ---------------------------------------------------------------------
      1          6           0       -1.019760    0.708164   -0.025687
      2          6           0       -0.988633   -0.636175    0.046698
      3          8           0        0.370198   -1.136602   -0.036632
      4          6           0        1.185691    0.017817    0.028300
      5          6           0        0.420975    1.089536   -0.014464
      6          1           0        0.751393    2.181483    0.045415
      7          1           0        2.241335   -0.147917    0.023371
      8          1           0       -1.664749   -1.364004    0.025908
      9          1           0       -1.879206    1.347208   -0.010723
 ---------------------------------------------------------------------
 Rotational constants (GHZ):      9.3557582      8.7510213      4.5273878
 Leave Link  202 at Tue Dec 15 17:09:41 2015, MaxMem=    33554432 cpu:         0.0
 (Enter /home/Applications/g09/g09/l301.exe)

 Semi-emprical parameters in input format:
 Method=8 CoreType=1 PeptideFC=0.0106250000 RIJScale=0.5404210000
 ****
 H       
 PQN=1 NValence=1 F0ss=0.5085940000 ZetaOverlap=1.0856700000 U=-0.4186260000
 Beta=-0.2268830000 CoreKO=1.0354420000 KON=0,0,0,1.0458670000 KON=1,0,1,0.9802520000
 KON=0,1,1,1.0589200000 KON=2,1,1,1.0697690000 EISol=-0.4188110042 EHeat=0.0830298228
 Alpha=1.4609850000
 GCore=0.0085280000,1.4882240000,2.2676710000
 GCore=0.0003530000,1.4551640000,3.3455890000
 GCore=-0.0013010000,0.5600570000,3.4989800000
 ****
 C       
 PQN=2,2 NValence=4 F0ss=0.4494440000 F0sp=0.4261420000 F0pp=0.3388090000 F2pp=0.1878900000
 G1sp=0.2701540000
 ZetaOverlap=1.8086650000,1.3781170000
 U=-1.7687090000,-1.4557970000
 Beta=-0.5453250000,-0.3336900000 DDN=0,1,0.7474020000 DDN=1,1,0.7268010000
 CoreKO=1.1454130000 KON=0,0,0,1.1124280000 KON=1,0,1,0.8473510000 KON=0,1,1,1.1124280000
 KON=2,1,1,0.8516400000 EISol=-4.4398989268 EHeat=0.2723305520 Alpha=1.2914650000
 DipHyp=1.4947180026
 GCore=0.0007890000,1.3361580000,2.6678360000
 GCore=0.0028980000,1.2968490000,3.2840710000
 GCore=-0.0015090000,1.3827320000,3.5104240000
 GCore=-0.0000850000,1.4650940000,4.6088130000
 ****
 O       
 PQN=2,2 NValence=6 F0ss=0.5666750000 F0sp=0.5321300000 F0pp=0.4958710000 F2pp=0.2358080000
 G1sp=0.4216980000
 ZetaOverlap=2.6354490000,2.7379220000
 U=-3.5951870000,-2.0345890000
 Beta=-1.1573400000,-1.2994290000 DDN=0,1,0.4953610000 DDN=1,1,0.4852320000
 CoreKO=0.8515990000 KON=0,0,0,0.8208680000 KON=1,0,1,0.5019540000 KON=0,1,1,0.8682050000
 KON=2,1,1,0.5515580000 EISol=-11.6164441184 EHeat=0.0949133088 Alpha=2.4031680000
 DipHyp=0.9906650029
 GCore=0.0204720000,1.2640290000,1.6023330000
 GCore=0.0054290000,1.9602000000,2.7307880000
 ****
 
 Standard basis: VSTO-6G (5D, 7F)
 Ernie: Thresh=  0.10000D-02 Tol=  0.10000D-05 Strict=F.
  NNHCO=     0 NNPyr=     0 NCTC=     0               EPep=         0.000000000
    EC=        67.666144394  ECS=         2.265127043   EG=         0.340776541
   EHC=         0.000000000  EAt=       -31.051283842  AtH=         1.516354808
 EPDDG=         0.000000000  ECC=        70.272047978 EAtT=        32.567638650
 There are    24 symmetry adapted cartesian basis functions of A   symmetry.
 There are    24 symmetry adapted basis functions of A   symmetry.
    24 basis functions,   144 primitive gaussians,    24 cartesian basis functions
    13 alpha electrons       13 beta electrons
       nuclear repulsion energy       102.8396866279 Hartrees.
 IExCor=    0 DFT=F Ex=HF Corr=None ExCW=0 ScaHFX=  1.000000
 ScaDFX=  1.000000  1.000000  1.000000  1.000000 ScalE2=  1.000000  1.000000
 IRadAn=      0 IRanWt=     -1 IRanGd=            0 ICorTp=0 IEmpDi=  4
 Integral buffers will be    131072 words long.
 Regular integral format.
 Two-electron integral symmetry is turned off.
 Leave Link  301 at Tue Dec 15 17:09:41 2015, MaxMem=    33554432 cpu:         0.0
 (Enter /home/Applications/g09/g09/l302.exe)
 Do NDO integrals.
 NPDir=0 NMtPBC=     1 NCelOv=     1 NCel=       1 NClECP=     1 NCelD=      1
         NCelK=      1 NCelE2=     1 NClLst=     1 CellRange=     0.0.
 One-electron integrals computed using PRISM.
 NBasis=    24 RedAO= F EigKep=  0.00D+00  NBF=    24
 NBsUse=    24 1.00D-04 EigRej=  0.00D+00 NBFU=    24
 Leave Link  302 at Tue Dec 15 17:09:41 2015, MaxMem=    33554432 cpu:         0.0
 (Enter /home/Applications/g09/g09/l308.exe)
 Leave Link  308 at Tue Dec 15 17:09:42 2015, MaxMem=    33554432 cpu:         0.0
 (Enter /home/Applications/g09/g09/l303.exe)
 DipDrv:  MaxL=1.
 Leave Link  303 at Tue Dec 15 17:09:42 2015, MaxMem=    33554432 cpu:         0.0
 (Enter /home/Applications/g09/g09/l401.exe)
 Simple Huckel Guess.
 JPrj=0 DoOrth=F DoCkMO=F.
 Leave Link  401 at Tue Dec 15 17:09:42 2015, MaxMem=    33554432 cpu:         0.0
 (Enter /home/Applications/g09/g09/l502.exe)
 Closed shell SCF:
 Using DIIS extrapolation, IDIIS=  1040.
 Overlap will be assumed to be unity.
 Two-electron integral symmetry not used.
 Keep J ints in memory in canonical form, NReq=888082.
 IVT=       79475 IEndB=       79475 NGot=    33554432 MDV=    33473473
 LenX=    33473473 LenY=    33472456
 Requested convergence on RMS density matrix=1.00D-08 within 128 cycles.
 Requested convergence on MAX density matrix=1.00D-06.
 Requested convergence on             energy=1.00D-06.
 No special actions if energy rises.
 FoFCou: FMM=F IPFlag=           0 FMFlag=           0 FMFlg1=           0
         NFxFlg=           0 DoJE=F BraDBF=F KetDBF=F FulRan=T
         wScrn=  0.000000 ICntrl=     600 IOpCl=  2 I1Cent=           0 NGrid=           0
         NMat0=    1 NMatS0=     54 NMatT0=    0 NMatD0=    1 NMtDS0=    0 NMtDT0=    0
 Symmetry not used in FoFCou.

 Cycle   1  Pass 1  IDiag  1:
 E=  4.21246707593632    
 DIIS: error= 1.54D-01 at cycle   1 NSaved=   1.
 NSaved= 1 IEnMin= 1 EnMin=  4.21246707593632     IErMin= 1 ErrMin= 1.54D-01
 ErrMax= 1.54D-01  0.00D+00 EMaxC= 1.00D-01 BMatC= 4.71D-01 BMatP= 4.71D-01
 IDIUse=3 WtCom= 0.00D+00 WtEn= 1.00D+00
 Coeff-Com:  0.100D+01
 Coeff-En:   0.100D+01
 Coeff:      0.100D+01
 GapD=    2.000 DampG=2.000 DampE=0.250 DampFc=0.5000 IDamp=-1.
 Damping current iteration by 5.00D-01
 RMSDP=7.04D-02 MaxDP=7.91D-01              OVMax= 0.00D+00

 Cycle   2  Pass 1  IDiag  1:
 E=  3.11944376825554     Delta-E=       -1.093023307681 Rises=F Damp=T
 DIIS: error= 8.01D-02 at cycle   2 NSaved=   2.
 NSaved= 2 IEnMin= 2 EnMin=  3.11944376825554     IErMin= 2 ErrMin= 8.01D-02
 ErrMax= 8.01D-02  0.00D+00 EMaxC= 1.00D-01 BMatC= 1.52D-01 BMatP= 4.71D-01
 IDIUse=3 WtCom= 1.99D-01 WtEn= 8.01D-01
 Coeff-Com: -0.103D+01 0.203D+01
 Coeff-En:   0.000D+00 0.100D+01
 Coeff:     -0.204D+00 0.120D+01
 RMSDP=3.80D-02 MaxDP=3.94D-01 DE=-1.09D+00 OVMax= 0.00D+00

 Cycle   3  Pass 1  IDiag  1:
 E=  1.82895387133355     Delta-E=       -1.290489896922 Rises=F Damp=F
 DIIS: error= 1.62D-02 at cycle   3 NSaved=   3.
 NSaved= 3 IEnMin= 3 EnMin=  1.82895387133355     IErMin= 3 ErrMin= 1.62D-02
 ErrMax= 1.62D-02  0.00D+00 EMaxC= 1.00D-01 BMatC= 1.15D-02 BMatP= 1.52D-01
 IDIUse=3 WtCom= 8.38D-01 WtEn= 1.62D-01
 Coeff-Com:  0.327D+00-0.705D+00 0.138D+01
 Coeff-En:   0.000D+00 0.000D+00 0.100D+01
 Coeff:      0.274D+00-0.591D+00 0.132D+01
 RMSDP=9.82D-03 MaxDP=5.52D-02 DE=-1.29D+00 OVMax= 0.00D+00

 Cycle   4  Pass 1  IDiag  3:
 E=  1.78458220592916     Delta-E=       -0.044371665404 Rises=F Damp=F
 DIIS: error= 5.34D-03 at cycle   4 NSaved=   4.
 NSaved= 4 IEnMin= 4 EnMin=  1.78458220592916     IErMin= 4 ErrMin= 5.34D-03
 ErrMax= 5.34D-03  0.00D+00 EMaxC= 1.00D-01 BMatC= 1.09D-03 BMatP= 1.15D-02
 IDIUse=3 WtCom= 9.47D-01 WtEn= 5.34D-02
 Coeff-Com: -0.552D-01 0.931D-01-0.408D+00 0.137D+01
 Coeff-En:   0.000D+00 0.000D+00 0.000D+00 0.100D+01
 Coeff:     -0.523D-01 0.881D-01-0.386D+00 0.135D+01
 Gap=     0.387 Goal=   None    Shift=    0.000
 RMSDP=3.98D-03 MaxDP=2.20D-02 DE=-4.44D-02 OVMax= 4.51D-02

 Cycle   5  Pass 1  IDiag  3:
 E=  1.77955845388355     Delta-E=       -0.005023752046 Rises=F Damp=F
 DIIS: error= 1.15D-03 at cycle   5 NSaved=   5.
 NSaved= 5 IEnMin= 5 EnMin=  1.77955845388355     IErMin= 5 ErrMin= 1.15D-03
 ErrMax= 1.15D-03  0.00D+00 EMaxC= 1.00D-01 BMatC= 4.94D-05 BMatP= 1.09D-03
 IDIUse=3 WtCom= 9.89D-01 WtEn= 1.15D-02
 Coeff-Com:  0.137D-01-0.226D-01 0.141D+00-0.613D+00 0.148D+01
 Coeff-En:   0.000D+00 0.000D+00 0.000D+00 0.000D+00 0.100D+01
 Coeff:      0.135D-01-0.224D-01 0.139D+00-0.606D+00 0.148D+01
 Gap=     0.386 Goal=   None    Shift=    0.000
 RMSDP=9.45D-04 MaxDP=4.51D-03 DE=-5.02D-03 OVMax= 8.10D-03

 Cycle   6  Pass 1  IDiag  3:
 E=  1.77931114511452     Delta-E=       -0.000247308769 Rises=F Damp=F
 DIIS: error= 2.10D-04 at cycle   6 NSaved=   6.
 NSaved= 6 IEnMin= 6 EnMin=  1.77931114511452     IErMin= 6 ErrMin= 2.10D-04
 ErrMax= 2.10D-04  0.00D+00 EMaxC= 1.00D-01 BMatC= 1.63D-06 BMatP= 4.94D-05
 IDIUse=3 WtCom= 9.98D-01 WtEn= 2.10D-03
 Coeff-Com: -0.707D-03 0.162D-02-0.347D-01 0.166D+00-0.538D+00 0.141D+01
 Coeff-En:   0.000D+00 0.000D+00 0.000D+00 0.000D+00 0.000D+00 0.100D+01
 Coeff:     -0.705D-03 0.162D-02-0.347D-01 0.165D+00-0.537D+00 0.141D+01
 Gap=     0.387 Goal=   None    Shift=    0.000
 RMSDP=1.67D-04 MaxDP=1.12D-03 DE=-2.47D-04 OVMax= 1.00D-03

 Cycle   7  Pass 1  IDiag  3:
 E=  1.77930377757046     Delta-E=       -0.000007367544 Rises=F Damp=F
 DIIS: error= 2.75D-05 at cycle   7 NSaved=   7.
 NSaved= 7 IEnMin= 7 EnMin=  1.77930377757046     IErMin= 7 ErrMin= 2.75D-05
 ErrMax= 2.75D-05  0.00D+00 EMaxC= 1.00D-01 BMatC= 4.00D-08 BMatP= 1.63D-06
 IDIUse=1 WtCom= 1.00D+00 WtEn= 0.00D+00
 Coeff-Com:  0.103D-04-0.548D-04 0.101D-01-0.529D-01 0.194D+00-0.592D+00
 Coeff-Com:  0.144D+01
 Coeff:      0.103D-04-0.548D-04 0.101D-01-0.529D-01 0.194D+00-0.592D+00
 Coeff:      0.144D+01
 Gap=     0.387 Goal=   None    Shift=    0.000
 RMSDP=2.30D-05 MaxDP=1.27D-04 DE=-7.37D-06 OVMax= 1.83D-04

 Cycle   8  Pass 1  IDiag  3:
 E=  1.77930361512345     Delta-E=       -0.000000162447 Rises=F Damp=F
 DIIS: error= 6.42D-06 at cycle   8 NSaved=   8.
 NSaved= 8 IEnMin= 8 EnMin=  1.77930361512345     IErMin= 8 ErrMin= 6.42D-06
 ErrMax= 6.42D-06  0.00D+00 EMaxC= 1.00D-01 BMatC= 1.13D-09 BMatP= 4.00D-08
 IDIUse=1 WtCom= 1.00D+00 WtEn= 0.00D+00
 Coeff-Com: -0.173D-04 0.803D-05-0.160D-02 0.966D-02-0.417D-01 0.136D+00
 Coeff-Com: -0.411D+00 0.131D+01
 Coeff:     -0.173D-04 0.803D-05-0.160D-02 0.966D-02-0.417D-01 0.136D+00
 Coeff:     -0.411D+00 0.131D+01
 Gap=     0.387 Goal=   None    Shift=    0.000
 RMSDP=4.23D-06 MaxDP=3.65D-05 DE=-1.62D-07 OVMax= 4.40D-05

 Cycle   9  Pass 1  IDiag  3:
 E=  1.77930360994459     Delta-E=       -0.000000005179 Rises=F Damp=F
 DIIS: error= 1.77D-06 at cycle   9 NSaved=   9.
 NSaved= 9 IEnMin= 9 EnMin=  1.77930360994459     IErMin= 9 ErrMin= 1.77D-06
 ErrMax= 1.77D-06  0.00D+00 EMaxC= 1.00D-01 BMatC= 6.94D-11 BMatP= 1.13D-09
 IDIUse=1 WtCom= 1.00D+00 WtEn= 0.00D+00
 Coeff-Com:  0.765D-05-0.737D-05 0.217D-03-0.159D-02 0.841D-02-0.285D-01
 Coeff-Com:  0.954D-01-0.472D+00 0.140D+01
 Coeff:      0.765D-05-0.737D-05 0.217D-03-0.159D-02 0.841D-02-0.285D-01
 Coeff:      0.954D-01-0.472D+00 0.140D+01
 Gap=     0.387 Goal=   None    Shift=    0.000
 RMSDP=1.28D-06 MaxDP=1.36D-05 DE=-5.18D-09 OVMax= 1.64D-05

 Cycle  10  Pass 1  IDiag  3:
 E=  1.77930360951308     Delta-E=       -0.000000000432 Rises=F Damp=F
 DIIS: error= 5.67D-07 at cycle  10 NSaved=  10.
 NSaved=10 IEnMin=10 EnMin=  1.77930360951308     IErMin=10 ErrMin= 5.67D-07
 ErrMax= 5.67D-07  0.00D+00 EMaxC= 1.00D-01 BMatC= 8.01D-12 BMatP= 6.94D-11
 IDIUse=1 WtCom= 1.00D+00 WtEn= 0.00D+00
 Coeff-Com:  0.145D-05-0.400D-05-0.482D-04 0.458D-03-0.285D-02 0.985D-02
 Coeff-Com: -0.347D-01 0.196D+00-0.852D+00 0.168D+01
 Coeff:      0.145D-05-0.400D-05-0.482D-04 0.458D-03-0.285D-02 0.985D-02
 Coeff:     -0.347D-01 0.196D+00-0.852D+00 0.168D+01
 Gap=     0.387 Goal=   None    Shift=    0.000
 RMSDP=5.65D-07 MaxDP=6.22D-06 DE=-4.32D-10 OVMax= 7.13D-06

 Cycle  11  Pass 1  IDiag  3:
 E=  1.77930360945653     Delta-E=       -0.000000000057 Rises=F Damp=F
 DIIS: error= 1.11D-07 at cycle  11 NSaved=  11.
 NSaved=11 IEnMin=11 EnMin=  1.77930360945653     IErMin=11 ErrMin= 1.11D-07
 ErrMax= 1.11D-07  0.00D+00 EMaxC= 1.00D-01 BMatC= 2.88D-13 BMatP= 8.01D-12
 IDIUse=1 WtCom= 1.00D+00 WtEn= 0.00D+00
 Coeff-Com: -0.101D-05 0.193D-05-0.223D-05-0.367D-04 0.408D-03-0.148D-02
 Coeff-Com:  0.606D-02-0.436D-01 0.234D+00-0.637D+00 0.144D+01
 Coeff:     -0.101D-05 0.193D-05-0.223D-05-0.367D-04 0.408D-03-0.148D-02
 Coeff:      0.606D-02-0.436D-01 0.234D+00-0.637D+00 0.144D+01
 Gap=     0.387 Goal=   None    Shift=    0.000
 RMSDP=9.47D-08 MaxDP=8.34D-07 DE=-5.65D-11 OVMax= 9.67D-07

 Cycle  12  Pass 1  IDiag  3:
 E=  1.77930360945510     Delta-E=       -0.000000000001 Rises=F Damp=F
 DIIS: error= 1.57D-08 at cycle  12 NSaved=  12.
 NSaved=12 IEnMin=12 EnMin=  1.77930360945510     IErMin=12 ErrMin= 1.57D-08
 ErrMax= 1.57D-08  0.00D+00 EMaxC= 1.00D-01 BMatC= 8.25D-15 BMatP= 2.88D-13
 IDIUse=1 WtCom= 1.00D+00 WtEn= 0.00D+00
 Coeff-Com: -0.398D-07 0.647D-07 0.123D-05 0.303D-06-0.465D-04 0.171D-03
 Coeff-Com: -0.856D-03 0.830D-02-0.487D-01 0.155D+00-0.467D+00 0.135D+01
 Coeff:     -0.398D-07 0.647D-07 0.123D-05 0.303D-06-0.465D-04 0.171D-03
 Coeff:     -0.856D-03 0.830D-02-0.487D-01 0.155D+00-0.467D+00 0.135D+01
 Gap=     0.387 Goal=   None    Shift=    0.000
 RMSDP=1.12D-08 MaxDP=9.93D-08 DE=-1.44D-12 OVMax= 7.34D-08

 Cycle  13  Pass 1  IDiag  3:
 E=  1.77930360945499     Delta-E=        0.000000000000 Rises=F Damp=F
 DIIS: error= 3.27D-09 at cycle  13 NSaved=  13.
 NSaved=13 IEnMin=13 EnMin=  1.77930360945499     IErMin=13 ErrMin= 3.27D-09
 ErrMax= 3.27D-09  0.00D+00 EMaxC= 1.00D-01 BMatC= 3.48D-16 BMatP= 8.25D-15
 IDIUse=1 WtCom= 1.00D+00 WtEn= 0.00D+00
 Coeff-Com:  0.159D-07-0.277D-07 0.525D-07-0.226D-05 0.218D-04-0.756D-04
 Coeff-Com:  0.325D-03-0.272D-02 0.149D-01-0.484D-01 0.153D+00-0.558D+00
 Coeff-Com:  0.144D+01
 Coeff:      0.159D-07-0.277D-07 0.525D-07-0.226D-05 0.218D-04-0.756D-04
 Coeff:      0.325D-03-0.272D-02 0.149D-01-0.484D-01 0.153D+00-0.558D+00
 Coeff:      0.144D+01
 Gap=     0.387 Goal=   None    Shift=    0.000
 RMSDP=2.59D-09 MaxDP=1.92D-08 DE=-1.14D-13 OVMax= 1.53D-08

 Cycle  14  Pass 2  IDiag  1:
 SCF Done:  E(RAM1) =   1.77930360945     A.U. after   14 cycles
            NFock= 13  Conv=0.26D-08     -V/T= 1.1154
 KE=-1.541459496203D+01 PE=-1.675159540931D+02 EE= 8.187016603663D+01
 Leave Link  502 at Tue Dec 15 17:09:42 2015, MaxMem=    33554432 cpu:         0.0
 (Enter /home/Applications/g09/g09/l801.exe)
 Range of M.O.s used for correlation:     1    24
 NBasis=    24 NAE=    13 NBE=    13 NFC=     0 NFV=     0
 NROrb=     24 NOA=    13 NOB=    13 NVA=    11 NVB=    11
 Leave Link  801 at Tue Dec 15 17:09:42 2015, MaxMem=    33554432 cpu:         0.0
 (Enter /home/Applications/g09/g09/l914.exe)
 RHF ground state
 MDV=    33554432 DFT=F DoStab=F Mixed=F DoRPA=F DoScal=F NonHer=F
 Making orbital integer symmetry assigments:
 Orbital symmetries:
       Occupied  (A) (A) (A) (A) (A) (A) (A) (A) (A) (A) (A) (A)
                 (A)
       Virtual   (A) (A) (A) (A) (A) (A) (A) (A) (A) (A) (A)
    60 initial guesses have been made.
 Convergence on wavefunction:    0.000001000000000
 Davidson Disk Diagonalization:  ConvIn= 1.00D-06 SkipCon=T Conv= 1.00D-06.
 Max sub-space:   240 roots to seek:    60 dimension of matrix:          286
 Iteration     1 Dimension    60 NMult     0 NNew     60
 CISAX will form    60 AO SS matrices at one time.
 NMat=    60 NSing=    60 JSym2X= 0.
 FoFJK:  IHMeth= 8 ICntrl=       0 DoSepK=F KAlg= 0 I1Cent=   0 FoldK=F
 IRaf=         1 NMat= 120 IRICut=       1 DoRegI=T DoRafI=F ISym2E= 0.
 FoFCou: FMM=F IPFlag=           0 FMFlag=      100000 FMFlg1=           0
         NFxFlg=           0 DoJE=F BraDBF=F KetDBF=F FulRan=T
         wScrn=  0.000000 ICntrl=       0 IOpCl=  0 I1Cent=           0 NGrid=           0
         NMat0=  120 NMatS0=     60 NMatT0=    0 NMatD0=  120 NMtDS0=    0 NMtDT0=    0
 Symmetry not used in FoFCou.
 New state      2 was old state      4
 New state      3 was old state      2
 New state      4 was old state      3
 New state      7 was old state      8
 New state      8 was old state      9
 New state      9 was old state     10
 New state     10 was old state      7
 New state     15 was old state     21
 Excitation Energies [eV] at current iteration:
 Root      1 :     5.133428872416792
 Root      2 :     6.684078684121259
 Root      3 :     6.838682811178593
 Root      4 :     7.094434264188510
 Root      5 :     8.031356701523837
 Root      6 :     8.338763702675880
 Root      7 :     8.858646616769583
 Root      8 :     9.217236789912690
 Root      9 :     9.474768909832434
 Root     10 :     9.717554946394555
 Root     11 :     9.925800077016669
 Root     12 :    10.208786852377970
 Root     13 :    10.347401792706260
 Root     14 :    10.437474713218730
 Root     15 :    10.888520670307480
 Root     16 :    11.306160173236390
 Root     17 :    11.384495232507540
 Root     18 :    11.395459198638250
 Root     19 :    11.510043952133630
 Root     20 :    11.766254348497550
 Root     21 :    11.778081983264450
 Root     22 :    11.792029344459340
 Root     23 :    11.882521092752270
 Root     24 :    12.271129907589910
 Root     25 :    12.299605041537740
 Root     26 :    12.446174727326540
 Root     27 :    12.494927781591850
 Root     28 :    12.900754485487050
 Root     29 :    13.205228807752120
 Root     30 :    13.468113308964140
 Root     31 :    13.607409080194780
 Root     32 :    13.983842490769000
 Root     33 :    14.104651754687150
 Root     34 :    14.201120272120230
 Root     35 :    14.321096828135010
 Root     36 :    14.368648678664510
 Root     37 :    14.505245213546170
 Root     38 :    14.555230418504080
 Root     39 :    14.585136865140670
 Root     40 :    14.658366332683400
 Root     41 :    14.829272645545270
 Root     42 :    14.952364200098750
 Root     43 :    14.969530314980950
 Root     44 :    15.078648969339030
 Root     45 :    15.140904268538000
 Root     46 :    15.382556190498770
 Root     47 :    15.755094372016660
 Root     48 :    15.762578218301730
 Root     49 :    15.986984993320500
 Root     50 :    16.087529508724320
 Root     51 :    16.227648645201830
 Root     52 :    16.463329553051890
 Root     53 :    16.674020901382440
 Root     54 :    16.766140755640140
 Root     55 :    16.978397664838960
 Root     56 :    17.170780068776050
 Root     57 :    17.389769361146900
 Root     58 :    17.453019395709720
 Root     59 :    17.700081995134840
 Root     60 :    17.949336871767680
 Iteration     2 Dimension   120 NMult    60 NNew     60
 CISAX will form    60 AO SS matrices at one time.
 NMat=    60 NSing=    60 JSym2X= 0.
 Root      1 not converged, maximum delta is    0.021785748352178
 Root      2 not converged, maximum delta is    0.024081097281824
 Root      3 not converged, maximum delta is    0.021803549404406
 Root      4 not converged, maximum delta is    0.029174713278044
 Root      5 not converged, maximum delta is    0.015770851385343
 Root      6 not converged, maximum delta is    0.019646381137485
 Root      7 not converged, maximum delta is    0.021816892716725
 Root      8 not converged, maximum delta is    0.043764437627865
 Root      9 not converged, maximum delta is    0.031937580249086
 Root     10 not converged, maximum delta is    0.121378384257602
 Root     11 not converged, maximum delta is    0.164573216331078
 Root     12 not converged, maximum delta is    0.055898531582086
 Root     13 not converged, maximum delta is    0.078326828412745
 Root     14 not converged, maximum delta is    0.054860644991076
 Root     15 not converged, maximum delta is    0.070924913537550
 Excitation Energies [eV] at current iteration:
 Root      1 :     5.049097110591561   Change is   -0.084331761825230
 Root      2 :     6.657979154998602   Change is   -0.026099529122656
 Root      3 :     6.810639775682104   Change is   -0.028043035496489
 Root      4 :     7.059683949423192   Change is   -0.034750314765318
 Root      5 :     8.017409623853771   Change is   -0.013947077670065
 Root      6 :     8.313880495559834   Change is   -0.024883207116047
 Root      7 :     8.823232953720780   Change is   -0.035413663048803
 Root      8 :     9.140996759565606   Change is   -0.076240030347085
 Root      9 :     9.428207024687316   Change is   -0.046561885145118
 Root     10 :     9.641818858580811   Change is   -0.075736087813745
 Root     11 :     9.737404724132727   Change is   -0.188395352883942
 Root     12 :    10.159356936501420   Change is   -0.049429915876550
 Root     13 :    10.229626327216720   Change is   -0.117775465489534
 Root     14 :    10.397732046268850   Change is   -0.039742666949880
 Root     15 :    10.678880473255860   Change is   -0.209640197051612
 Root     16 :    11.147564698043470   Change is   -0.247894500594779
 Root     17 :    11.216181598588640   Change is   -0.089978574647750
 Root     18 :    11.304220841374410   Change is   -0.080274391133127
 Root     19 :    11.446934730188480   Change is   -0.063109221945148
 Root     20 :    11.512908024311430   Change is   -0.265173958953028
 Root     21 :    11.623764009562350   Change is   -0.258757083189921
 Root     22 :    11.735777570094370   Change is   -0.030476778403187
 Root     23 :    11.752944068236930   Change is   -0.039085276222415
 Root     24 :    12.004755628204850   Change is   -0.294849413332893
 Root     25 :    12.161437260983490   Change is   -0.109692646606420
 Root     26 :    12.199886154526660   Change is   -0.246288572799878
 Root     27 :    12.315179939414670   Change is   -0.179747842177181
 Root     28 :    12.693803828073640   Change is   -0.206950657413403
 Root     29 :    12.952805943854660   Change is   -0.252422863897453
 Root     30 :    13.344130154396640   Change is   -0.123983154567496
 Root     31 :    13.498409192397790   Change is   -0.108999887796995
 Root     32 :    13.779256845559670   Change is   -0.204585645209325
 Root     33 :    13.876584730644300   Change is   -0.444512097490716
 Root     34 :    13.982842723292230   Change is   -0.121809031394916
 Root     35 :    13.989656288939350   Change is   -0.211463983180874
 Root     36 :    14.153409812189790   Change is   -0.504956520493608
 Root     37 :    14.218416466078750   Change is   -0.150232212585757
 Root     38 :    14.267961963464770   Change is   -0.317174901675903
 Root     39 :    14.314709308304210   Change is   -0.190535905241951
 Root     40 :    14.369822163324620   Change is   -0.185408255179460
 Root     41 :    14.503063807200330   Change is   -0.326208838344939
 Root     42 :    14.584191860206050   Change is   -0.385338454774900
 Root     43 :    14.635357787289770   Change is   -0.317006412808982
 Root     44 :    14.889369501673830   Change is   -0.189279467665206
 Root     45 :    15.032189588160830   Change is   -0.108714680377172
 Root     46 :    15.168416447232700   Change is   -0.214139743266073
 Root     47 :    15.538627660204450   Change is   -0.223950558097285
 Root     48 :    15.700382195925020   Change is   -0.054712176091636
 Root     49 :    15.830559888159930   Change is   -0.156425105160566
 Root     50 :    15.866086416931680   Change is   -0.221443091792637
 Root     51 :    16.002271601284000   Change is   -0.225377043917824
 Root     52 :    16.107004907796780   Change is   -0.356324645255103
 Root     53 :    16.237322875887650   Change is   -0.436698025494786
 Root     54 :    16.418061057615560   Change is   -0.560336607223402
 Root     55 :    16.507418202832240   Change is   -0.258722552807902
 Root     56 :    16.660502336722400   Change is   -0.510277732053656
 Root     57 :    16.719578332413780   Change is   -0.733441063295944
 Root     58 :    16.970750490833120   Change is   -0.419018870313782
 Root     59 :    17.152047513347400   Change is   -0.548034481787445
 Root     60 :    17.357343591069950
 Iteration     3 Dimension   135 NMult   120 NNew     15
 CISAX will form    15 AO SS matrices at one time.
 NMat=    15 NSing=    15 JSym2X= 0.
 Root      1 not converged, maximum delta is    0.001439207893837
 Root      2 not converged, maximum delta is    0.000194910418718
 Root      3 not converged, maximum delta is    0.000095692761412
 Root      4 not converged, maximum delta is    0.000151283328613
 Root      5 not converged, maximum delta is    0.000101845046319
 Root      6 not converged, maximum delta is    0.000142782626197
 Root      7 not converged, maximum delta is    0.000301077930741
 Root      8 not converged, maximum delta is    0.001260520000485
 Root      9 not converged, maximum delta is    0.000118875087696
 Root     10 not converged, maximum delta is    0.003245204201261
 Root     11 not converged, maximum delta is    0.002102443030020
 Root     12 not converged, maximum delta is    0.000684267799660
 Root     13 not converged, maximum delta is    0.001879383732979
 Root     14 not converged, maximum delta is    0.000268645952013
 Root     15 not converged, maximum delta is    0.002462411453912
 Excitation Energies [eV] at current iteration:
 Root      1 :     5.048934185771311   Change is   -0.000162924820250
 Root      2 :     6.657976401028762   Change is   -0.000002753969841
 Root      3 :     6.810637503878194   Change is   -0.000002271803909
 Root      4 :     7.059679601708436   Change is   -0.000004347714756
 Root      5 :     8.017406895136043   Change is   -0.000002728717728
 Root      6 :     8.313874686342031   Change is   -0.000005809217804
 Root      7 :     8.823217017627886   Change is   -0.000015936092893
 Root      8 :     9.140714763647384   Change is   -0.000281995918222
 Root      9 :     9.428204314695519   Change is   -0.000002709991798
 Root     10 :     9.641114035416837   Change is   -0.000704823163973
 Root     11 :     9.736770946768626   Change is   -0.000633777364102
 Root     12 :    10.159313291604780   Change is   -0.000043644896636
 Root     13 :    10.228880253425460   Change is   -0.000746073791257
 Root     14 :    10.397714393711740   Change is   -0.000017652557112
 Root     15 :    10.676943842380310   Change is   -0.001936630875557
 Iteration     4 Dimension   143 NMult   135 NNew      8
 CISAX will form     8 AO SS matrices at one time.
 NMat=     8 NSing=     8 JSym2X= 0.
 Root      1 not converged, maximum delta is    0.000020991604551
 Root      2 not converged, maximum delta is    0.000002694516266
 Root      3 not converged, maximum delta is    0.000004278854156
 Root      4 not converged, maximum delta is    0.000003773574924
 Root      5 not converged, maximum delta is    0.000004102644916
 Root      6 not converged, maximum delta is    0.000003550416566
 Root      7 not converged, maximum delta is    0.000003096857950
 Root      8 not converged, maximum delta is    0.000021793725947
 Root      9 not converged, maximum delta is    0.000005372427539
 Root     10 not converged, maximum delta is    0.000084308541192
 Root     11 not converged, maximum delta is    0.000079859946335
 Root     12 not converged, maximum delta is    0.000008440929445
 Root     13 not converged, maximum delta is    0.000062703066575
 Root     14 not converged, maximum delta is    0.000012023703198
 Root     15 not converged, maximum delta is    0.000111702121756
 Excitation Energies [eV] at current iteration:
 Root      1 :     5.048934054709298   Change is   -0.000000131062013
 Root      2 :     6.657976399250958   Change is   -0.000000001777803
 Root      3 :     6.810637499464223   Change is   -0.000000004413971
 Root      4 :     7.059679596919090   Change is   -0.000000004789345
 Root      5 :     8.017406889855659   Change is   -0.000000005280384
 Root      6 :     8.313874681238325   Change is   -0.000000005103706
 Root      7 :     8.823217014029218   Change is   -0.000000003598669
 Root      8 :     9.140714556399736   Change is   -0.000000207247647
 Root      9 :     9.428204309727381   Change is   -0.000000004968138
 Root     10 :     9.641111887886066   Change is   -0.000002147530773
 Root     11 :     9.736768558873521   Change is   -0.000002387895105
 Root     12 :    10.159313262148080   Change is   -0.000000029456700
 Root     13 :    10.228878752697000   Change is   -0.000001500728463
 Root     14 :    10.397714345807450   Change is   -0.000000047904287
 Root     15 :    10.676939846471900   Change is   -0.000003995908403
 Convergence achieved on expansion vectors.
 ***********************************************************************
 Excited states from <AA,BB:AA,BB> singles matrix:
 ***********************************************************************
 
 1PDM for each excited state written to RWF  633
 Ground to excited state transition densities written to RWF  633
 Ground to excited state transition electric dipole moments (Au):
       state          X           Y           Z        Dip. S.      Osc.
         1         1.6695      0.4606      0.0034      2.9993      0.3710
         2        -0.1234     -0.0346     -0.0481      0.0187      0.0031
         3        -0.0544      0.0020      0.0362      0.0043      0.0007
         4        -0.0183     -0.0013      0.1249      0.0159      0.0028
         5        -0.0287     -0.0206     -0.1821      0.0344      0.0068
         6        -0.0015      0.0265      0.0125      0.0009      0.0002
         7         0.0504      0.0487     -0.0956      0.0141      0.0030
         8         0.0755     -0.1743      0.1003      0.0462      0.0103
         9         0.0298     -0.0014      0.1256      0.0167      0.0038
        10        -0.0453     -0.4834     -0.0314      0.2368      0.0559
        11         0.5950     -0.5892     -0.0354      0.7024      0.1676
        12         0.0279      0.0889     -0.4754      0.2347      0.0584
        13        -0.5970     -0.2010     -0.0772      0.4028      0.1009
        14         0.0121      0.0900     -0.2590      0.0753      0.0192
        15         0.5261      0.7413      0.0525      0.8291      0.2169
 Ground to excited state transition velocity dipole moments (Au):
       state          X           Y           Z        Dip. S.      Osc.
         1        -0.1653     -0.0462     -0.0030      0.0295      0.1059
         2         0.0204      0.0066      0.0127      0.0006      0.0017
         3         0.0125      0.0012     -0.0641      0.0043      0.0114
         4         0.0023     -0.0102     -0.1631      0.0267      0.0686
         5         0.0031      0.0035      0.0241      0.0006      0.0014
         6        -0.0050     -0.0069     -0.0105      0.0002      0.0004
         7        -0.0141      0.0008      0.0509      0.0028      0.0057
         8        -0.0362      0.0855     -0.0184      0.0090      0.0178
         9        -0.0150     -0.0032     -0.0020      0.0002      0.0005
        10        -0.0043      0.1978     -0.0022      0.0391      0.0736
        11        -0.1610      0.1472     -0.0104      0.0477      0.0889
        12         0.0046     -0.0334     -0.0539      0.0040      0.0072
        13         0.0604      0.0504      0.0097      0.0063      0.0111
        14        -0.0019     -0.0248     -0.0443      0.0026      0.0045
        15        -0.1083     -0.1023      0.0048      0.0222      0.0377
 Ground to excited state transition magnetic dipole moments (Au):
       state          X           Y           Z
         1         0.0345     -0.0547      0.5534
         2         0.4628     -0.7730     -0.0745
         3        -0.0855      0.2423     -0.0222
         4        -0.0892     -0.1558     -0.0018
         5         0.8260      0.4828     -0.0079
         6         0.2542     -0.5919      0.0242
         7         0.3890      0.2472      0.0330
         8        -0.0426     -0.0472     -0.0147
         9        -0.1940     -0.0065      0.0688
        10        -0.0183     -0.0252     -0.1246
        11        -0.0136     -0.0221      0.2004
        12        -0.0537      0.0088      0.0147
        13         0.0182     -0.0417     -0.0587
        14         0.0209     -0.1016      0.0398
        15         0.0079      0.0188      0.1574
 Ground to excited state transition velocity quadrupole moments (Au):
       state          XX          YY          ZZ          XY          XZ          YZ
         1         0.1718     -0.1415     -0.0011     -0.2257     -0.0119     -0.0171
         2        -0.0060      0.0292      0.0020      0.0250     -0.1826     -0.0837
         3         0.0017      0.0015     -0.0004      0.0074     -0.2098     -0.1086
         4         0.0202      0.0138     -0.0141      0.0191      0.0902     -0.0849
         5         0.0011      0.0304      0.0082     -0.0031      0.1241     -0.0675
         6        -0.0228     -0.0039     -0.0025      0.0052      0.4270      0.1855
         7        -0.0463      0.0196     -0.0207     -0.0602     -0.1149      0.1829
         8        -0.2018      0.3400     -0.1042     -0.2289     -0.0174      0.0137
         9         0.0037     -0.0210      0.0015     -0.0336      0.1809     -0.0136
        10        -0.1187     -0.0381      0.0551      0.0721      0.0028     -0.0252
        11         0.0953     -0.0114      0.0571     -0.1810      0.0199     -0.0081
        12         0.0176      0.0307     -0.0280     -0.0111      0.0378     -0.0673
        13         0.3369      0.3743      0.1137      0.2023      0.0597     -0.0081
        14        -0.0191     -0.0435     -0.0256     -0.0269      0.0733     -0.0187
        15         0.4371     -0.0645     -0.0054     -0.0223     -0.0227     -0.0240
 <0|del|b> * <b|rxdel|0> + <0|del|b> * <b|delr+rdel|0>
 Rotatory Strengths (R) in cgs (10**-40 erg-esu-cm/Gauss)
       state          XX          YY          ZZ    R(velocity)    E-M Angle
         1         1.9211     -9.8894    -10.4157     -6.1280       92.89
         2        -6.5304      9.3744      7.0330      3.2923       81.28
         3         2.1209     -0.7452      0.4619      0.6126       87.79
         4        -0.4128      4.1034      0.8956      1.5287       86.71
         5         1.1979      2.7296      5.9435      3.2903       79.90
         6         7.7303     -2.7674      0.9128      1.9586       73.07
         7        -1.1930     -3.6218     -3.0534     -2.6227       98.50
         8         2.0295     -3.0464     -3.6743     -1.5638      111.15
         9         0.5428      2.9553      2.1819      1.8934       28.95
        10        -5.4043      0.6270     -4.4523     -3.0765      100.48
        11        -6.3174     -0.4789      0.5622     -2.0780       94.10
        12         0.7317     -1.8430     -1.4148     -0.8420      111.87
        13        -3.4887     -1.8154      2.3482     -0.9853      105.48
        14         3.4813     -2.7390      0.5792      0.4405       82.73
        15        -3.2434      2.3444     -2.7626     -1.2205       94.93
 1/2[<0|r|b>*<b|rxdel|0> + (<0|rxdel|b>*<b|r|0>)*]
 Rotatory Strengths (R) in cgs (10**-40 erg-esu-cm/Gauss)
       state          XX          YY          ZZ     R(length)
         1       -40.7781     17.8316     -1.3414     -8.0960
         2        40.3835    -18.9184     -2.5348      6.3101
         3        -3.2930     -0.3512      0.5687     -1.0251
         4        -1.1567     -0.1406      0.1627     -0.3782
         5        16.7534      7.0335     -1.0172      7.5899
         6         0.2666     11.0813     -0.2130      3.7116
         7       -13.8737     -8.5082      2.2301     -6.7173
         8         2.2739     -5.8225      1.0431     -0.8352
         9         4.0933     -0.0065     -6.1097     -0.6743
        10        -0.5869     -8.6118     -2.7664     -3.9883
        11         5.7426     -9.2286      5.0161      0.5100
        12         1.0595     -0.5554      4.9448      1.8163
        13         7.6947     -5.9280     -3.2041     -0.4792
        14        -0.1794      6.4650      7.2918      4.5258
        15        -2.9519     -9.8759     -5.8439     -6.2239
  1/2[<0|del|b>*<b|r|0> + (<0|r|b>*<b|del|0>)*] (Au)
       state          X           Y           Z        Dip. S.   Osc.(frdel)
         1        -0.2760     -0.0213      0.0000      0.2973      0.1982
         2        -0.0025     -0.0002     -0.0006      0.0034      0.0022
         3        -0.0007      0.0000     -0.0023      0.0030      0.0020
         4         0.0000      0.0000     -0.0204      0.0204      0.0136
         5        -0.0001     -0.0001     -0.0044      0.0045      0.0030
         6         0.0000     -0.0002     -0.0001      0.0003      0.0002
         7        -0.0007      0.0000     -0.0049      0.0055      0.0037
         8        -0.0027     -0.0149     -0.0018      0.0195      0.0130
         9        -0.0004      0.0000     -0.0003      0.0007      0.0005
        10         0.0002     -0.0956      0.0001      0.0953      0.0636
        11        -0.0958     -0.0867      0.0004      0.1822      0.1214
        12         0.0001     -0.0030      0.0256     -0.0228     -0.0152
        13        -0.0361     -0.0101     -0.0008      0.0469      0.0313
        14         0.0000     -0.0022      0.0115     -0.0092     -0.0061
        15        -0.0570     -0.0758      0.0003      0.1325      0.0884

 Excitation energies and oscillator strengths:
 
 Excited State   1:      Singlet-A      5.0489 eV  245.57 nm  f=0.3710  <S**2>=0.000
      13 -> 14         0.69626
 This state for optimization and/or second-order correction.
 Total Energy, E(CIS) =   1.96484852994    
 Copying the excited state density for this state as the 1-particle RhoCI density.
 
 Excited State   2:      Singlet-A      6.6580 eV  186.22 nm  f=0.0031  <S**2>=0.000
      12 -> 14         0.70159
 
 Excited State   3:      Singlet-A      6.8106 eV  182.04 nm  f=0.0007  <S**2>=0.000
      13 -> 15         0.64857
      13 -> 16        -0.17096
      13 -> 19        -0.14246
      13 -> 20        -0.12001
 
 Excited State   4:      Singlet-A      7.0597 eV  175.62 nm  f=0.0028  <S**2>=0.000
      13 -> 15         0.18643
      13 -> 16         0.64281
      13 -> 17        -0.15631
 
 Excited State   5:      Singlet-A      8.0174 eV  154.64 nm  f=0.0068  <S**2>=0.000
      11 -> 14         0.69523
 
 Excited State   6:      Singlet-A      8.3139 eV  149.13 nm  f=0.0002  <S**2>=0.000
      13 -> 16         0.15125
      13 -> 17         0.48373
      13 -> 18         0.15906
      13 -> 19        -0.37276
      13 -> 22        -0.22017
 
 Excited State   7:      Singlet-A      8.8232 eV  140.52 nm  f=0.0030  <S**2>=0.000
      13 -> 15         0.12617
      13 -> 17         0.45851
      13 -> 18        -0.19911
      13 -> 19         0.42999
      13 -> 20         0.14236
 
 Excited State   8:      Singlet-A      9.1407 eV  135.64 nm  f=0.0103  <S**2>=0.000
      10 -> 14         0.49690
      13 -> 18        -0.42850
      13 -> 19        -0.19856
 
 Excited State   9:      Singlet-A      9.4282 eV  131.50 nm  f=0.0038  <S**2>=0.000
      13 -> 19        -0.20984
      13 -> 20         0.65384
 
 Excited State  10:      Singlet-A      9.6411 eV  128.60 nm  f=0.0559  <S**2>=0.000
      10 -> 14         0.34470
      12 -> 15         0.25891
      12 -> 16        -0.18136
      12 -> 17         0.21891
      12 -> 19        -0.11864
      13 -> 18         0.38386
      13 -> 19         0.15936
 
 Excited State  11:      Singlet-A      9.7368 eV  127.34 nm  f=0.1676  <S**2>=0.000
      10 -> 14         0.30554
      11 -> 19        -0.14730
      12 -> 15        -0.30182
      12 -> 16         0.27475
      12 -> 17        -0.14727
      12 -> 19         0.19083
      13 -> 18         0.28637
 
 Excited State  12:      Singlet-A     10.1593 eV  122.04 nm  f=0.0584  <S**2>=0.000
      13 -> 21         0.63047
      13 -> 22        -0.25017
 
 Excited State  13:      Singlet-A     10.2289 eV  121.21 nm  f=0.1009  <S**2>=0.000
      11 -> 15         0.19150
      11 -> 19        -0.12502
      12 -> 15         0.52546
      12 -> 16         0.22855
      12 -> 17        -0.25681
 
 Excited State  14:      Singlet-A     10.3977 eV  119.24 nm  f=0.0192  <S**2>=0.000
      13 -> 19        -0.15354
      13 -> 21         0.26417
      13 -> 22         0.60954
 
 Excited State  15:      Singlet-A     10.6769 eV  116.12 nm  f=0.2169  <S**2>=0.000
       8 -> 16        -0.15076
      10 -> 14        -0.12525
      11 -> 16        -0.20676
      11 -> 17         0.14859
      12 -> 16         0.46214
      12 -> 17         0.32502
      12 -> 19        -0.12885
      12 -> 20         0.13112
 SavETr:  write IOETrn=   770 NScale= 10 NData=  16 NLR=1 NState=   15 LETran=     280.
 The selected state is a singlet
 CISAX will form     1 AO SS matrices at one time.
 NMat=     1 NSing=     1 JSym2X= 0.
 Leave Link  914 at Tue Dec 15 17:09:42 2015, MaxMem=    33554432 cpu:         0.1
 (Enter /home/Applications/g09/g09/l1002.exe)
 Minotr:  Closed shell wavefunction.
          Computing CIS/TD-HF/TD-KS derivatives.
          Using Z-Vector for PSCF gradient.
          Skipping F1 and S1 gradient terms here.
          IDoAtm=111111111
          Direct CPHF calculation.
          Differentiating once with respect to electric field.
                with respect to dipole field.
          Differentiating once with respect to nuclear coordinates.
          Electric field/nuclear overlap derivatives assumed to be zero.
          Requested convergence is 1.0D-10 RMS, and 1.0D-09 maximum.
          NewPWx=T KeepS1=F KeepF1=F KeepIn=T MapXYZ=F SortEE=F KeepMc=T.
          MDV=      33495423 using IRadAn=       0.
 Keep J ints in memory in canonical form, NReq=871704.
 FoFCou: FMM=F IPFlag=           0 FMFlag=           0 FMFlg1=           0
         NFxFlg=           0 DoJE=F BraDBF=F KetDBF=F FulRan=T
         wScrn=  0.000000 ICntrl=     600 IOpCl=  2 I1Cent=           0 NGrid=           0
         NMat0=    1 NMatS0=     54 NMatT0=    0 NMatD0=    1 NMtDS0=    0 NMtDT0=    0
 Symmetry not used in FoFCou.
          Solving linear equations separately, MaxMat=       0.
          There are     1 degrees of freedom in the 1st order CPHF.  IDoFFX=0 NUNeed=     1.
 LinEq1:  Iter=  0 NonCon=     1 RMS=7.05D-03 Max=5.24D-02 NDo=     1
 AX will form     1 AO Fock derivatives at one time.
 LinEq1:  Iter=  1 NonCon=     1 RMS=5.44D-04 Max=1.76D-03 NDo=     1
 LinEq1:  Iter=  2 NonCon=     1 RMS=5.87D-05 Max=2.32D-04 NDo=     1
 LinEq1:  Iter=  3 NonCon=     1 RMS=6.75D-06 Max=3.60D-05 NDo=     1
 LinEq1:  Iter=  4 NonCon=     1 RMS=1.00D-06 Max=5.99D-06 NDo=     1
 LinEq1:  Iter=  5 NonCon=     1 RMS=1.04D-07 Max=4.16D-07 NDo=     1
 LinEq1:  Iter=  6 NonCon=     1 RMS=1.51D-08 Max=6.28D-08 NDo=     1
 LinEq1:  Iter=  7 NonCon=     1 RMS=2.11D-09 Max=7.05D-09 NDo=     1
 LinEq1:  Iter=  8 NonCon=     1 RMS=3.37D-10 Max=1.37D-09 NDo=     1
 LinEq1:  Iter=  9 NonCon=     0 RMS=4.28D-11 Max=1.56D-10 NDo=     1
 Linear equations converged to 1.000D-10 1.000D-09 after     9 iterations.
 End of Minotr F.D. properties file   721 does not exist.
 End of Minotr F.D. properties file   722 does not exist.
 End of Minotr F.D. properties file   788 does not exist.
 Leave Link 1002 at Tue Dec 15 17:09:42 2015, MaxMem=    33554432 cpu:         0.0
 (Enter /home/Applications/g09/g09/l601.exe)
 Copying SCF densities to generalized density rwf, IOpCl= 0 IROHF=0.

 **********************************************************************

            Population analysis using the SCF density.

 **********************************************************************

 Orbital symmetries:
       Occupied  (A) (A) (A) (A) (A) (A) (A) (A) (A) (A) (A) (A)
                 (A)
       Virtual   (A) (A) (A) (A) (A) (A) (A) (A) (A) (A) (A)
 The electronic state is 1-A.
 Alpha  occ. eigenvalues --   -1.88654  -1.15156  -0.92422  -0.80323  -0.78880
 Alpha  occ. eigenvalues --   -0.69765  -0.65504  -0.55863  -0.54982  -0.46446
 Alpha  occ. eigenvalues --   -0.44185  -0.39748  -0.27583
 Alpha virt. eigenvalues --    0.11122   0.19936   0.21808   0.27965   0.29441
 Alpha virt. eigenvalues --    0.29586   0.31480   0.33568   0.36152   0.38875
 Alpha virt. eigenvalues --    0.41298
     Molecular Orbital Coefficients:
                           1         2         3         4         5
                           O         O         O         O         O
     Eigenvalues --    -1.88654  -1.15156  -0.92422  -0.80323  -0.78880
   1 1   C  1S          0.06527   0.45718  -0.28534   0.27301  -0.08975
   2        1PX         0.07442   0.20034   0.17241  -0.16389  -0.14330
   3        1PY        -0.07366  -0.08626   0.18365   0.08396  -0.33774
   4        1PZ        -0.00013   0.00914  -0.00228   0.00522   0.00292
   5 2   C  1S          0.20049   0.26359  -0.47639  -0.29067   0.34210
   6        1PX         0.23405   0.08285   0.10267  -0.22227  -0.16195
   7        1PY        -0.05185   0.31478   0.00072   0.49518  -0.08469
   8        1PZ        -0.01524  -0.01276   0.03035   0.01683  -0.00988
   9 3   O  1S          0.86735  -0.26552  -0.01589   0.05155  -0.22393
  10        1PX        -0.00679  -0.04540   0.14874   0.27777   0.04538
  11        1PY         0.03293   0.14218   0.05901   0.05582   0.13335
  12        1PZ         0.00172   0.00394   0.00099  -0.00508   0.00883
  13 4   C  1S          0.21361   0.25362   0.49680   0.08909   0.42918
  14        1PX        -0.17319  -0.25479   0.06286   0.01229   0.17601
  15        1PY        -0.18544   0.21759   0.06483  -0.47974  -0.26020
  16        1PZ        -0.01239  -0.00677  -0.01960  -0.01678  -0.01319
  17 5   C  1S          0.07437   0.46671   0.27228  -0.17417  -0.20937
  18        1PX        -0.01844  -0.12245   0.28052  -0.22722   0.21042
  19        1PY        -0.11319  -0.17520  -0.07183  -0.02818  -0.26760
  20        1PZ        -0.00081   0.00555   0.00399  -0.00953  -0.00176
  21 6   H  1S          0.00135   0.12601   0.12753  -0.11999  -0.18030
  22 7   H  1S          0.04452   0.02438   0.25690   0.05384   0.29512
  23 8   H  1S          0.05116   0.03477  -0.27091  -0.21430   0.26072
  24 9   H  1S          0.00170   0.13076  -0.14783   0.21120  -0.07985
                           6         7         8         9        10
                           O         O         O         O         O
     Eigenvalues --    -0.69765  -0.65504  -0.55863  -0.54982  -0.46446
   1 1   C  1S          0.22157   0.00927   0.11971  -0.08373   0.00928
   2        1PX        -0.23071  -0.01899   0.03904  -0.17038   0.02110
   3        1PY         0.14794   0.01724  -0.10193  -0.38856  -0.01211
   4        1PZ        -0.01900   0.38734  -0.01883   0.02888   0.25494
   5 2   C  1S          0.05722   0.02798   0.10860  -0.09524   0.04194
   6        1PX        -0.41158  -0.00443   0.55716  -0.20563   0.05059
   7        1PY        -0.04296   0.00117   0.23565   0.44731   0.01992
   8        1PZ        -0.03489   0.53348  -0.07716   0.00229   0.68320
   9 3   O  1S          0.22384   0.01381  -0.00684   0.21047   0.00493
  10        1PX         0.05640   0.00631  -0.18566   0.02475  -0.01141
  11        1PY        -0.20990  -0.01793  -0.05223  -0.10906  -0.01088
  12        1PZ        -0.02951   0.19432   0.00172  -0.02282  -0.00285
  13 4   C  1S          0.07674   0.01937  -0.08980  -0.11072  -0.03534
  14        1PX         0.41367   0.01770   0.58781  -0.07586   0.06845
  15        1PY         0.23320  -0.00664   0.09121   0.48542   0.02529
  16        1PZ        -0.03259   0.59086   0.06223   0.01129  -0.64457
  17 5   C  1S          0.20961   0.00561  -0.13852  -0.10150  -0.00903
  18        1PX         0.12644   0.00038  -0.07625   0.33414  -0.01810
  19        1PY         0.25809   0.02712   0.03912  -0.24950   0.00074
  20        1PZ        -0.01639   0.41561   0.00861   0.02748  -0.19864
  21 6   H  1S          0.25397   0.02774  -0.06041  -0.14230  -0.01427
  22 7   H  1S          0.25123   0.02361   0.28927  -0.12164   0.01891
  23 8   H  1S          0.21421   0.01865  -0.26953  -0.13317  -0.00538
  24 9   H  1S          0.26212   0.02194   0.00931  -0.10889  -0.00769
                          11        12        13        14        15
                           O         O         O         V         V
     Eigenvalues --    -0.44185  -0.39748  -0.27583   0.11122   0.19936
   1 1   C  1S          0.11804   0.06693  -0.01426  -0.02448  -0.08532
   2        1PX        -0.40938   0.42658   0.01877   0.00259  -0.14328
   3        1PY         0.38667   0.12547   0.03773   0.02961  -0.04589
   4        1PZ        -0.01059  -0.02252   0.57094   0.67290   0.00179
   5 2   C  1S         -0.06870  -0.13473  -0.01003   0.00400  -0.01640
   6        1PX         0.22158  -0.27688  -0.00639  -0.00582  -0.06784
   7        1PY        -0.24423  -0.13890  -0.01831   0.01078  -0.01661
   8        1PZ         0.01806   0.01618  -0.38954  -0.22650   0.00491
   9 3   O  1S         -0.03595   0.09091  -0.00554  -0.00014   0.01262
  10        1PX        -0.11123   0.03881  -0.00651  -0.00681  -0.08402
  11        1PY         0.03086  -0.17000   0.00866   0.00091   0.10075
  12        1PZ         0.01037  -0.00761  -0.20333   0.00434  -0.00876
  13 4   C  1S          0.11224  -0.04972   0.00074   0.00103  -0.16088
  14        1PX        -0.12277   0.22011   0.01021  -0.00330  -0.45231
  15        1PY         0.22726   0.18651   0.00155  -0.00993   0.17804
  16        1PZ        -0.00710   0.05133  -0.36574   0.22847  -0.00139
  17 5   C  1S         -0.13144   0.02272  -0.01490   0.02189  -0.10609
  18        1PX         0.11097  -0.41875  -0.03933   0.02154  -0.23692
  19        1PY        -0.37286  -0.42473  -0.01456   0.00201   0.18411
  20        1PZ        -0.00458  -0.01673   0.58505  -0.66371  -0.01413
  21 6   H  1S         -0.29202  -0.37742  -0.01273  -0.01811  -0.03031
  22 7   H  1S         -0.01946   0.12721   0.00516  -0.00338   0.75730
  23 8   H  1S         -0.05691   0.12872   0.00396   0.00397  -0.07389
  24 9   H  1S          0.45104  -0.15530  -0.00107   0.00778  -0.06275
                          16        17        18        19        20
                           V         V         V         V         V
     Eigenvalues --     0.21808   0.27965   0.29441   0.29586   0.31480
   1 1   C  1S         -0.11233  -0.09975   0.00741   0.02083   0.17078
   2        1PX         0.09352  -0.13286  -0.20550   0.49593   0.10212
   3        1PY         0.34943  -0.16494   0.02583  -0.15027   0.51876
   4        1PZ        -0.02494   0.00966   0.03957   0.01499  -0.01120
   5 2   C  1S         -0.11312  -0.25589  -0.03131  -0.06712   0.36419
   6        1PX         0.22026   0.11086   0.03212  -0.01954  -0.16650
   7        1PY         0.44376  -0.00663   0.02488  -0.05607   0.08672
   8        1PZ        -0.00016   0.01461  -0.17733  -0.06280  -0.00717
   9 3   O  1S          0.01863  -0.01004   0.00152  -0.01861   0.01155
  10        1PX        -0.00119  -0.03274   0.01107   0.06791   0.00972
  11        1PY         0.15010   0.01981  -0.07435  -0.05492   0.04363
  12        1PZ        -0.01242  -0.07354   0.89538   0.31227   0.02230
  13 4   C  1S         -0.02794  -0.18894   0.06607  -0.30638  -0.18640
  14        1PX        -0.02393   0.05405   0.01777  -0.07779  -0.03385
  15        1PY         0.06496  -0.07155   0.04444  -0.14963  -0.06987
  16        1PZ         0.00290   0.01874  -0.18807  -0.06735  -0.00265
  17 5   C  1S         -0.12341  -0.06547   0.03715  -0.03649  -0.22517
  18        1PX         0.13684  -0.18836  -0.15019   0.41515   0.30073
  19        1PY         0.11770  -0.51900  -0.02563  -0.05160  -0.26498
  20        1PZ         0.00692  -0.02078   0.03417   0.02851   0.00144
  21 6   H  1S         -0.12534   0.65811   0.04167  -0.04170   0.27599
  22 7   H  1S          0.05190   0.07542  -0.04274   0.20543   0.10198
  23 8   H  1S          0.70519   0.24140   0.04670   0.01331  -0.24775
  24 9   H  1S         -0.07425   0.09688  -0.20129   0.51501  -0.34715
                          21        22        23        24
                           V         V         V         V
     Eigenvalues --     0.33568   0.36152   0.38875   0.41298
   1 1   C  1S          0.30275   0.57432   0.22411   0.04081
   2        1PX        -0.25472   0.15823  -0.07259  -0.04451
   3        1PY        -0.06287  -0.15851  -0.07727  -0.04687
   4        1PZ         0.00915   0.03204   0.01106   0.00712
   5 2   C  1S         -0.15458  -0.31535  -0.24038   0.11999
   6        1PX         0.20894   0.07750  -0.15731   0.18087
   7        1PY        -0.09591  -0.22363  -0.12762  -0.15678
   8        1PZ         0.01314   0.00381   0.00754  -0.01445
   9 3   O  1S         -0.07910  -0.01383   0.11047   0.01273
  10        1PX         0.12815  -0.00885  -0.30396   0.84988
  11        1PY        -0.38685  -0.07626   0.74656   0.33006
  12        1PZ        -0.10370  -0.01272   0.05390  -0.00287
  13 4   C  1S         -0.27897   0.24856  -0.21845  -0.15980
  14        1PX        -0.07866  -0.11002   0.19552   0.08282
  15        1PY        -0.27754   0.16111  -0.04865   0.23458
  16        1PZ         0.01308   0.00225   0.00092   0.01413
  17 5   C  1S          0.39678  -0.50518   0.19803  -0.01602
  18        1PX         0.24845   0.10040   0.12905  -0.04967
  19        1PY        -0.09776   0.16628  -0.01255   0.01265
  20        1PZ         0.01416  -0.02158   0.01095  -0.00483
  21 6   H  1S         -0.20201   0.14306  -0.11274  -0.00082
  22 7   H  1S          0.15542  -0.04119  -0.01238  -0.00233
  23 8   H  1S          0.13412   0.09785  -0.00542   0.00611
  24 9   H  1S         -0.32608  -0.17960  -0.13166  -0.01509
     Density Matrix:
                           1         2         3         4         5
   1 1   C  1S          0.93301
   2        1PX        -0.07365   1.11459
   3        1PY         0.12650  -0.06604   1.03620
   4        1PZ        -0.01569   0.00470   0.00870   1.08657
   5 2   C  1S          0.35357  -0.07542  -0.54882   0.03326   1.17559
   6        1PX        -0.04284   0.11062   0.08546   0.00335   0.21950
   7        1PY         0.45336  -0.05202  -0.53996   0.03061  -0.16719
   8        1PZ        -0.01422   0.00266   0.01919   0.31983   0.00867
   9 3   O  1S          0.01436  -0.00456  -0.02888   0.00168   0.00556
  10        1PX        -0.02834   0.00229   0.03848   0.00018  -0.33304
  11        1PY         0.00366  -0.01412  -0.07361   0.00478   0.11560
  12        1PZ         0.00084  -0.00728  -0.00119  -0.08317   0.02750
  13 4   C  1S         -0.00155   0.01131   0.03525  -0.00249  -0.00568
  14        1PX         0.02221   0.01112  -0.00273   0.00698   0.00317
  15        1PY         0.04531   0.02229   0.00380   0.00925  -0.04629
  16        1PZ         0.00977   0.00025  -0.01345  -0.29146  -0.00800
  17 5   C  1S          0.27263   0.46196   0.19319  -0.01990  -0.00054
  18        1PX        -0.48354  -0.56945  -0.28191  -0.02463  -0.03201
  19        1PY        -0.07976  -0.11553   0.06372   0.00140   0.01710
  20        1PZ        -0.02799  -0.00676   0.02780   0.89145  -0.00211
  21 6   H  1S          0.01252   0.02721   0.00439   0.00668   0.07735
  22 7   H  1S          0.07195   0.07542   0.02079   0.00258   0.04251
  23 8   H  1S          0.08588   0.00477  -0.11396   0.00710   0.56491
  24 9   H  1S          0.55641  -0.63077   0.48329  -0.00250   0.06629
                           6         7         8         9        10
   6        1PX         1.59661
   7        1PY        -0.07975   1.38257
   8        1PZ         0.00293   0.01002   1.82513
   9 3   O  1S          0.06409  -0.00958  -0.00064   1.96020
  10        1PX        -0.45375   0.21288   0.03714   0.06931   0.31160
  11        1PY         0.24928   0.04608  -0.02473  -0.24721   0.01747
  12        1PZ         0.04605  -0.01645   0.36322  -0.02100  -0.00493
  13 4   C  1S          0.02122  -0.03660  -0.00605   0.00909   0.21904
  14        1PX         0.00318   0.01485  -0.00025  -0.04957  -0.06544
  15        1PY        -0.02983   0.02061   0.00541  -0.04712  -0.30837
  16        1PZ        -0.00503   0.00315   0.02780   0.00007  -0.00930
  17 5   C  1S         -0.04346   0.03346   0.00817   0.01515   0.02338
  18        1PX         0.01479  -0.02047   0.01015   0.02090  -0.00946
  19        1PY         0.00617  -0.00745  -0.00321  -0.02359   0.00886
  20        1PZ        -0.00608   0.00301  -0.28471  -0.00024  -0.00657
  21 6   H  1S          0.01965   0.06094  -0.00778   0.00752   0.02400
  22 7   H  1S          0.04624  -0.00486  -0.00270   0.01212   0.05920
  23 8   H  1S         -0.53426  -0.51305   0.00636   0.01148  -0.03922
  24 9   H  1S          0.04840   0.01169   0.00109   0.00702  -0.03700
                          11        12        13        14        15
  11        1PY         0.26946
  12        1PZ         0.01313   0.16158
  13 4   C  1S          0.29446   0.02113   1.18360
  14        1PX        -0.33100  -0.02198  -0.06636   1.44204
  15        1PY        -0.32863  -0.03560  -0.27093   0.11420   1.53848
  16        1PZ        -0.03711   0.38253   0.00002  -0.00576   0.00353
  17 5   C  1S          0.02697  -0.00044   0.37689  -0.24042   0.40900
  18        1PX         0.05875   0.00750   0.37576  -0.07805   0.36109
  19        1PY        -0.07812   0.00512  -0.39597   0.22727  -0.32027
  20        1PZ         0.00540  -0.07524   0.02472  -0.01727   0.01182
  21 6   H  1S          0.02962   0.00631   0.07045  -0.05005  -0.02554
  22 7   H  1S         -0.02988   0.00188   0.54566   0.74036  -0.08671
  23 8   H  1S         -0.05360   0.00173   0.04224  -0.03178  -0.02594
  24 9   H  1S          0.01487   0.00745   0.07002  -0.04380   0.04065
                          16        17        18        19        20
  16        1PZ         1.81430
  17 5   C  1S         -0.00729   0.92643
  18        1PX        -0.00900  -0.01364   1.02585
  19        1PY         0.00184   0.12983   0.07363   1.14365
  20        1PZ         0.32052  -0.01229  -0.00811   0.00048   1.11203
  21 6   H  1S          0.00065   0.51723   0.25045   0.77807   0.01728
  22 7   H  1S          0.00887   0.08748   0.06245  -0.09588   0.00432
  23 8   H  1S         -0.00123   0.07052  -0.06953  -0.02237   0.00082
  24 9   H  1S         -0.00510   0.00587  -0.02196  -0.00698   0.00321
                          21        22        23        24
  21 6   H  1S          0.79262
  22 7   H  1S         -0.00428   0.67533
  23 8   H  1S          0.01366   0.01765   0.69517
  24 9   H  1S         -0.00836   0.01343   0.00306   0.79738
    Full Mulliken population analysis:
                           1         2         3         4         5
   1 1   C  1S          0.93301
   2        1PX         0.00000   1.11459
   3        1PY         0.00000   0.00000   1.03620
   4        1PZ         0.00000   0.00000   0.00000   1.08657
   5 2   C  1S          0.00000   0.00000   0.00000   0.00000   1.17559
   6        1PX         0.00000   0.00000   0.00000   0.00000   0.00000
   7        1PY         0.00000   0.00000   0.00000   0.00000   0.00000
   8        1PZ         0.00000   0.00000   0.00000   0.00000   0.00000
   9 3   O  1S          0.00000   0.00000   0.00000   0.00000   0.00000
  10        1PX         0.00000   0.00000   0.00000   0.00000   0.00000
  11        1PY         0.00000   0.00000   0.00000   0.00000   0.00000
  12        1PZ         0.00000   0.00000   0.00000   0.00000   0.00000
  13 4   C  1S          0.00000   0.00000   0.00000   0.00000   0.00000
  14        1PX         0.00000   0.00000   0.00000   0.00000   0.00000
  15        1PY         0.00000   0.00000   0.00000   0.00000   0.00000
  16        1PZ         0.00000   0.00000   0.00000   0.00000   0.00000
  17 5   C  1S          0.00000   0.00000   0.00000   0.00000   0.00000
  18        1PX         0.00000   0.00000   0.00000   0.00000   0.00000
  19        1PY         0.00000   0.00000   0.00000   0.00000   0.00000
  20        1PZ         0.00000   0.00000   0.00000   0.00000   0.00000
  21 6   H  1S          0.00000   0.00000   0.00000   0.00000   0.00000
  22 7   H  1S          0.00000   0.00000   0.00000   0.00000   0.00000
  23 8   H  1S          0.00000   0.00000   0.00000   0.00000   0.00000
  24 9   H  1S          0.00000   0.00000   0.00000   0.00000   0.00000
                           6         7         8         9        10
   6        1PX         1.59661
   7        1PY         0.00000   1.38257
   8        1PZ         0.00000   0.00000   1.82513
   9 3   O  1S          0.00000   0.00000   0.00000   1.96020
  10        1PX         0.00000   0.00000   0.00000   0.00000   0.31160
  11        1PY         0.00000   0.00000   0.00000   0.00000   0.00000
  12        1PZ         0.00000   0.00000   0.00000   0.00000   0.00000
  13 4   C  1S          0.00000   0.00000   0.00000   0.00000   0.00000
  14        1PX         0.00000   0.00000   0.00000   0.00000   0.00000
  15        1PY         0.00000   0.00000   0.00000   0.00000   0.00000
  16        1PZ         0.00000   0.00000   0.00000   0.00000   0.00000
  17 5   C  1S          0.00000   0.00000   0.00000   0.00000   0.00000
  18        1PX         0.00000   0.00000   0.00000   0.00000   0.00000
  19        1PY         0.00000   0.00000   0.00000   0.00000   0.00000
  20        1PZ         0.00000   0.00000   0.00000   0.00000   0.00000
  21 6   H  1S          0.00000   0.00000   0.00000   0.00000   0.00000
  22 7   H  1S          0.00000   0.00000   0.00000   0.00000   0.00000
  23 8   H  1S          0.00000   0.00000   0.00000   0.00000   0.00000
  24 9   H  1S          0.00000   0.00000   0.00000   0.00000   0.00000
                          11        12        13        14        15
  11        1PY         0.26946
  12        1PZ         0.00000   0.16158
  13 4   C  1S          0.00000   0.00000   1.18360
  14        1PX         0.00000   0.00000   0.00000   1.44204
  15        1PY         0.00000   0.00000   0.00000   0.00000   1.53848
  16        1PZ         0.00000   0.00000   0.00000   0.00000   0.00000
  17 5   C  1S          0.00000   0.00000   0.00000   0.00000   0.00000
  18        1PX         0.00000   0.00000   0.00000   0.00000   0.00000
  19        1PY         0.00000   0.00000   0.00000   0.00000   0.00000
  20        1PZ         0.00000   0.00000   0.00000   0.00000   0.00000
  21 6   H  1S          0.00000   0.00000   0.00000   0.00000   0.00000
  22 7   H  1S          0.00000   0.00000   0.00000   0.00000   0.00000
  23 8   H  1S          0.00000   0.00000   0.00000   0.00000   0.00000
  24 9   H  1S          0.00000   0.00000   0.00000   0.00000   0.00000
                          16        17        18        19        20
  16        1PZ         1.81430
  17 5   C  1S          0.00000   0.92643
  18        1PX         0.00000   0.00000   1.02585
  19        1PY         0.00000   0.00000   0.00000   1.14365
  20        1PZ         0.00000   0.00000   0.00000   0.00000   1.11203
  21 6   H  1S          0.00000   0.00000   0.00000   0.00000   0.00000
  22 7   H  1S          0.00000   0.00000   0.00000   0.00000   0.00000
  23 8   H  1S          0.00000   0.00000   0.00000   0.00000   0.00000
  24 9   H  1S          0.00000   0.00000   0.00000   0.00000   0.00000
                          21        22        23        24
  21 6   H  1S          0.79262
  22 7   H  1S          0.00000   0.67533
  23 8   H  1S          0.00000   0.00000   0.69517
  24 9   H  1S          0.00000   0.00000   0.00000   0.79738
     Gross orbital populations:
                           1
   1 1   C  1S          0.93301
   2        1PX         1.11459
   3        1PY         1.03620
   4        1PZ         1.08657
   5 2   C  1S          1.17559
   6        1PX         1.59661
   7        1PY         1.38257
   8        1PZ         1.82513
   9 3   O  1S          1.96020
  10        1PX         0.31160
  11        1PY         0.26946
  12        1PZ         0.16158
  13 4   C  1S          1.18360
  14        1PX         1.44204
  15        1PY         1.53848
  16        1PZ         1.81430
  17 5   C  1S          0.92643
  18        1PX         1.02585
  19        1PY         1.14365
  20        1PZ         1.11203
  21 6   H  1S          0.79262
  22 7   H  1S          0.67533
  23 8   H  1S          0.69517
  24 9   H  1S          0.79738
          Condensed to atoms (all electrons):
               1          2          3          4          5          6
     1  C    4.170371   0.000000   0.000000   0.000000   0.000000   0.000000
     2  C    0.000000   5.979903   0.000000   0.000000   0.000000   0.000000
     3  O    0.000000   0.000000   2.702842   0.000000   0.000000   0.000000
     4  C    0.000000   0.000000   0.000000   5.978428   0.000000   0.000000
     5  C    0.000000   0.000000   0.000000   0.000000   4.207962   0.000000
     6  H    0.000000   0.000000   0.000000   0.000000   0.000000   0.792618
     7  H    0.000000   0.000000   0.000000   0.000000   0.000000   0.000000
     8  H    0.000000   0.000000   0.000000   0.000000   0.000000   0.000000
     9  H    0.000000   0.000000   0.000000   0.000000   0.000000   0.000000
               7          8          9
     1  C    0.000000   0.000000   0.000000
     2  C    0.000000   0.000000   0.000000
     3  O    0.000000   0.000000   0.000000
     4  C    0.000000   0.000000   0.000000
     5  C    0.000000   0.000000   0.000000
     6  H    0.000000   0.000000   0.000000
     7  H    0.675326   0.000000   0.000000
     8  H    0.000000   0.695172   0.000000
     9  H    0.000000   0.000000   0.797379
 Mulliken charges:
               1
     1  C   -0.170371
     2  C   -1.979903
     3  O    3.297158
     4  C   -1.978428
     5  C   -0.207962
     6  H    0.207382
     7  H    0.324674
     8  H    0.304828
     9  H    0.202621
 Sum of Mulliken charges =   0.00000
 Mulliken charges with hydrogens summed into heavy atoms:
               1
     1  C    0.032250
     2  C   -1.675074
     3  O    3.297158
     4  C   -1.653753
     5  C   -0.000580
 Charge=              0.0000 electrons
 Dipole moment (field-independent basis, Debye):
    X=              3.9640    Y=            -11.2180    Z=             -1.0223  Tot=             11.9416
 N-N= 1.028396866279D+02 E-N=-1.675159540707D+02  KE=-1.541459496203D+01
 Orbital energies and kinetic energies (alpha):
                                 1                 2
   1         O                -1.886537         -1.306284
   2         O                -1.151565         -1.038607
   3         O                -0.924221         -0.899115
   4         O                -0.803231         -0.584642
   5         O                -0.788797         -0.691637
   6         O                -0.697647         -0.573905
   7         O                -0.655045         -0.529428
   8         O                -0.558632         -0.371674
   9         O                -0.549820         -0.362180
  10         O                -0.464456         -0.335933
  11         O                -0.441849         -0.430050
  12         O                -0.397479         -0.338601
  13         O                -0.275829         -0.245241
  14         V                 0.111218         -0.164471
  15         V                 0.199358         -0.185997
  16         V                 0.218077         -0.161582
  17         V                 0.279649         -0.172323
  18         V                 0.294415          0.402169
  19         V                 0.295860         -0.062705
  20         V                 0.314801         -0.111782
  21         V                 0.335683          0.008177
  22         V                 0.361524         -0.093122
  23         V                 0.388745          0.379419
  24         V                 0.412978          0.549304
 Total kinetic energy from orbitals=-1.541459496203D+01
 Leave Link  601 at Tue Dec 15 17:09:42 2015, MaxMem=    33554432 cpu:         0.0
 (Enter /home/Applications/g09/g09/l701.exe)
 Compute integral first derivatives.
 ... and contract with generalized density number  6.
 Leave Link  701 at Tue Dec 15 17:09:42 2015, MaxMem=    33554432 cpu:         0.0
 (Enter /home/Applications/g09/g09/l702.exe)
 L702 exits ... SP integral derivatives will be done elsewhere.
 Leave Link  702 at Tue Dec 15 17:09:42 2015, MaxMem=    33554432 cpu:         0.0
 (Enter /home/Applications/g09/g09/l703.exe)
 Compute integral first derivatives, UseDBF=F ICtDFT=           0.
 Integral derivatives from FoFJK, PRISM(SPDF).
 Calling FoFJK, ICntrl=  10005127 FMM=F ISym2X=0 I1Cent= 0 IOpClX= 0 NMat=1 NMatS=1 NMatT=0.
 FoFJK:  IHMeth= 8 ICntrl=10005127 DoSepK=F KAlg= 0 I1Cent=   0 FoldK=F
 IRaf=         0 NMat=   1 IRICut=       1 DoRegI=T DoRafI=F ISym2E= 0.
 FoFCou: FMM=F IPFlag=           0 FMFlag=      100000 FMFlg1=         800
         NFxFlg=           0 DoJE=F BraDBF=F KetDBF=F FulRan=T
         wScrn=  0.000000 ICntrl=10005127 IOpCl=  0 I1Cent=           0 NGrid=           0
         NMat0=    1 NMatS0=      1 NMatT0=    0 NMatD0=    1 NMtDS0=    0 NMtDT0=    0
 Symmetry not used in FoFCou.
 Leave Link  703 at Tue Dec 15 17:09:42 2015, MaxMem=    33554432 cpu:         0.0
 (Enter /home/Applications/g09/g09/l716.exe)
 Dipole        = 1.65633825D+00-4.80211306D+00-3.64961368D-01
 ***** Axes restored to original set *****
 -------------------------------------------------------------------
 Center     Atomic                   Forces (Hartrees/Bohr)
 Number     Number              X              Y              Z
 -------------------------------------------------------------------
      1        6           0.131602003    0.036687752    0.006821853
      2        6          -0.275856859    0.063601228    0.009675471
      3        8           0.227905129   -0.006625817   -0.024275497
      4        6          -0.339019382    0.013424646    0.013095947
      5        6           0.235907600   -0.014617262    0.002776463
      6        1           0.006893847    0.006501927   -0.000332265
      7        1          -0.000890500    0.065347233   -0.003459585
      8        1          -0.035216671   -0.132992158   -0.005669697
      9        1           0.048674833   -0.031327548    0.001367311
 -------------------------------------------------------------------
 Cartesian Forces:  Max     0.339019382 RMS     0.113751788
 Z-matrix is all fixed cartesians, so copy forces.
 Force constants in Cartesian coordinates: 
                1             2             3             4             5 
      1  0.938630D+00
      2 -0.338229D-01  0.718118D+00
      3  0.235185D-01  0.151145D-01  0.192424D+00
      4 -0.526718D+00 -0.107881D+00 -0.301589D-01  0.949295D+00
      5 -0.884468D-01 -0.218424D+00 -0.128073D-01  0.136797D+00  0.875731D+00
      6 -0.273625D-01 -0.102935D-01 -0.110662D+00  0.921556D-02  0.255980D-01
      7 -0.804541D-02  0.269911D-01  0.296082D-02 -0.232232D+00  0.110256D+00
      8 -0.613482D-02  0.207396D-01  0.138111D-02  0.147644D+00 -0.268863D+00
      9 -0.112636D-02  0.290742D-02  0.252898D-02  0.188069D-01 -0.193942D-01
     10  0.109391D-01  0.542068D-03  0.489710D-03  0.212426D-01  0.166382D-01
     11  0.338389D-01  0.162919D-02  0.224514D-02 -0.161994D-01 -0.126867D-01
     12  0.494035D-03  0.188242D-03  0.106430D-02 -0.213595D-02 -0.174993D-02
     13 -0.155613D+00  0.205125D-01 -0.325395D-03  0.969476D-02 -0.333099D-01
     14 -0.231687D-02 -0.333595D+00 -0.394166D-02  0.455621D-03 -0.160047D-02
     15 -0.590152D-03  0.254989D-02 -0.660755D-01  0.708642D-03 -0.343248D-02
     16  0.148319D-01  0.719395D-03 -0.374270D-03 -0.634087D-05  0.000000D+00
     17 -0.216509D-01 -0.105279D-02  0.143878D-02  0.000000D+00  0.000000D+00
     18 -0.436235D-03 -0.551516D-04  0.114753D-01 -0.118161D-03 -0.115240D-04
     19  0.133825D-04  0.177793D-05 -0.381042D-03  0.119777D-04 -0.254804D-05
     20  0.108883D-04  0.144655D-05 -0.310023D-03  0.232463D-05  0.000000D+00
     21 -0.293337D-03 -0.389711D-04  0.835220D-02  0.254683D-03 -0.541793D-04
     22  0.807942D-02 -0.277816D-01  0.229951D-03 -0.216228D+00 -0.159221D+00
     23 -0.458451D-02  0.156738D-01  0.293100D-03 -0.153881D+00 -0.398054D+00
     24 -0.102160D-02 -0.417317D-02  0.360249D-01  0.635197D-02  0.822289D-02
     25 -0.282117D+00  0.120719D+00  0.404060D-02 -0.505996D-02  0.172893D-01
     26  0.123107D+00 -0.203091D+00 -0.341359D-02 -0.693736D-02  0.238983D-01
     27  0.681764D-02 -0.619917D-02 -0.751321D-01 -0.292473D-02  0.362880D-02
                6             7             8             9            10 
      6  0.204182D+00
      7  0.149552D-01  0.456254D+00
      8 -0.185444D-01  0.221085D-01  0.552776D+00
      9 -0.391634D-01 -0.283429D-01  0.704179D-02  0.451597D-01
     10 -0.154490D-02 -0.249021D+00 -0.171165D+00  0.135898D-01  0.973205D+00
     11  0.123377D-02 -0.129444D+00 -0.308773D+00  0.112798D-01 -0.946238D-01
     12 -0.121550D-02  0.119516D-01  0.117058D-01 -0.404965D-01  0.314852D-02
     13  0.235459D-03 -0.926123D-02  0.694255D-02 -0.748269D-03 -0.584013D+00
     14 -0.130092D-03 -0.284135D-01  0.214352D-01 -0.203556D-02  0.137899D+00
     15 -0.654938D-03  0.191213D-02 -0.508097D-03  0.559920D-02 -0.182478D-01
     16  0.104997D-03  0.000000D+00 -0.236051D-05 -0.418502D-04 -0.522107D-02
     17  0.000000D+00 -0.968051D-05  0.355473D-04  0.630229D-03  0.747663D-02
     18  0.195662D-02 -0.112320D-03  0.412444D-03  0.731235D-02 -0.170748D-02
     19  0.145832D-03  0.210642D-01 -0.160003D-01 -0.866229D-03 -0.167143D+00
     20  0.283031D-04  0.105319D-01 -0.800367D-02 -0.516055D-03  0.103238D+00
     21  0.310085D-02 -0.124358D-02  0.120343D-02  0.583284D-02  0.417055D-02
     22  0.387963D-02  0.212320D-01  0.165802D-01 -0.101429D-02  0.129242D-04
     23  0.251137D-02 -0.120381D-01 -0.940669D-02  0.649828D-03 -0.512269D-05
     24 -0.876138D-01 -0.186857D-02 -0.197636D-02  0.645138D-02  0.186551D-03
     25  0.370732D-03  0.804309D-05  0.271183D-04 -0.256713D-03 -0.174648D-05
     26 -0.402630D-03  0.176459D-04  0.594956D-04 -0.563209D-03  0.000000D+00
     27  0.300699D-01 -0.212279D-03 -0.715728D-03  0.677536D-02 -0.849755D-04
               11            12            13            14            15 
     11  0.855735D+00
     12 -0.143596D-01  0.205674D+00
     13  0.115324D+00 -0.180844D-01  0.945117D+00
     14 -0.238488D+00  0.673315D-02 -0.457735D-01  0.700422D+00
     15  0.819131D-02 -0.114961D+00  0.843115D-02 -0.112510D-01  0.194058D+00
     16 -0.159853D-01  0.144669D-02 -0.231068D+00 -0.896441D-01  0.834856D-02
     17  0.231291D-01  0.218347D-03 -0.907818D-01 -0.162707D+00  0.512717D-02
     18 -0.217206D-02  0.298906D-01  0.112462D-01  0.765682D-02 -0.717864D-01
     19  0.107092D+00  0.297251D-02  0.872308D-02  0.269950D-01  0.351614D-03
     20 -0.320548D+00 -0.266897D-02  0.435628D-02  0.134305D-01 -0.312717D-03
     21 -0.636743D-02 -0.846465D-01 -0.154910D-03  0.305607D-02  0.340297D-01
     22 -0.274940D-05  0.157356D-03  0.365573D-04  0.356533D-05 -0.605346D-03
     23  0.108976D-05 -0.623703D-04 -0.261630D-04 -0.255161D-05  0.433229D-03
     24 -0.396854D-04  0.227131D-02 -0.465895D-03 -0.454375D-04  0.771468D-02
     25  0.000000D+00  0.497277D-04  0.163838D-01  0.794361D-03 -0.308817D-03
     26  0.000000D+00 -0.476588D-05  0.227558D-01  0.110439D-02 -0.797314D-03
     27 -0.112894D-04  0.241951D-02 -0.133867D-03 -0.422919D-04  0.120768D-01
               16            17            18            19            20 
     16  0.221470D+00
     17  0.104915D+00  0.140554D+00
     18 -0.939300D-02 -0.631170D-02  0.370152D-01
     19 -0.334226D-05  0.503317D-04  0.583983D-03  0.137334D+00
     20 -0.271933D-05  0.409508D-04  0.475139D-03 -0.118136D+00  0.315079D+00
     21  0.732603D-04 -0.110324D-02 -0.128005D-01 -0.280667D-02  0.330432D-02
     22  0.000000D+00  0.000000D+00  0.000000D+00  0.000000D+00  0.000000D+00
     23  0.000000D+00  0.000000D+00  0.000000D+00  0.000000D+00  0.000000D+00
     24  0.000000D+00  0.000000D+00  0.000000D+00  0.000000D+00  0.000000D+00
     25 -0.337839D-05  0.000000D+00 -0.629561D-04  0.000000D+00  0.000000D+00
     26  0.000000D+00  0.000000D+00  0.603369D-05  0.000000D+00  0.000000D+00
     27 -0.164377D-03  0.112203D-05 -0.306314D-02  0.000000D+00  0.000000D+00
               21            22            23            24            25 
     21  0.461314D-01
     22  0.000000D+00  0.186906D+00
     23  0.000000D+00  0.170507D+00  0.391727D+00
     24  0.000000D+00 -0.368216D-02 -0.308454D-02  0.483400D-01
     25  0.000000D+00 -0.392098D-04  0.280614D-04  0.499700D-03  0.270829D+00
     26  0.000000D+00 -0.860235D-04  0.615646D-04  0.109630D-02 -0.138857D+00
     27  0.000000D+00  0.103486D-02 -0.740617D-03 -0.131884D-01 -0.433227D-02
               26            27 
     26  0.177967D+00
     27  0.407917D-02  0.400421D-01
 Leave Link  716 at Tue Dec 15 17:09:42 2015, MaxMem=    33554432 cpu:         0.0
 (Enter /home/Applications/g09/g09/l103.exe)

 GradGradGradGradGradGradGradGradGradGradGradGradGradGradGradGradGradGrad
 Berny optimization.
 Search for a local minimum.
 Step number   1 out of a maximum of    2
 All quantities printed in internal units (Hartrees-Bohrs-Radians)
 Second derivative matrix not updated -- first step.
 ITU=  0
     Eigenvalues ---    0.01649   0.02537   0.06596   0.07462   0.08050
     Eigenvalues ---    0.08385   0.12640   0.13150   0.15700   0.23978
     Eigenvalues ---    0.24780   0.32911   0.38227   0.45736   0.63302
     Eigenvalues ---    0.77693   0.96245   1.22703   1.29622   1.65100
     Eigenvalues ---    1.70235
 Quadratic step=1.118D+00 exceeds max=3.000D-01 adjusted using Lamda=-8.643D-01.
 Angle between NR and scaled steps=  36.68 degrees.
 Angle between quadratic step and forces=  17.76 degrees.
 Linear search not attempted -- first point.
 TrRot=  0.002975  0.003474 -0.000024 -0.000017 -0.000142 -0.000017
 MatCor failed.
 Variable       Old X    -DE/DX   Delta X   Delta X   Delta X     New X
                                 (Linear)    (Quad)   (Total)
    X1        1.86823   0.13160   0.00000   0.05033   0.05325   1.92148
    Y1       -1.44476   0.03669   0.00000   0.00621   0.00962  -1.43514
    Z1        0.06017   0.00682   0.00000   0.00210   0.00235   0.06252
    X2       -0.57066  -0.27586   0.00000  -0.13760  -0.13469  -0.70534
    Y2       -2.15529   0.06360   0.00000   0.01278   0.01627  -2.13902
    Z2       -0.09130   0.00968   0.00000   0.00926   0.00913  -0.08216
    X3       -2.24896   0.22791   0.00000   0.11802   0.12098  -2.12798
    Y3        0.00463  -0.00663   0.00000  -0.00845  -0.00491  -0.00028
    Z3        0.08429  -0.02428   0.00000  -0.01607  -0.01640   0.06789
    X4       -0.63517  -0.33902   0.00000  -0.14721  -0.14416  -0.77933
    Y4        2.13433   0.01342   0.00000   0.01239   0.01589   2.15022
    Z4       -0.01105   0.01310   0.00000   0.01217   0.01204   0.00099
    X5        1.73200   0.23591   0.00000   0.09018   0.09319   1.82519
    Y5        1.36838  -0.01462   0.00000   0.01200   0.01542   1.38379
    Z5        0.06852   0.00278   0.00000   0.00014   0.00037   0.06889
    X6        3.51040   0.00689   0.00000   0.02249   0.02556   3.53596
    Y6        2.58858   0.00650   0.00000   0.01416   0.01751   2.60609
    Z6       -0.02647  -0.00033   0.00000  -0.00237  -0.00189  -0.02836
    X7       -1.53693  -0.00089   0.00000  -0.02426  -0.02114  -1.55808
    Y7        3.94095   0.06535   0.00000   0.06614   0.06966   4.01061
    Z7        0.01487  -0.00346   0.00000  -0.00209  -0.00234   0.01254
    X8       -1.49544  -0.03522   0.00000  -0.04574  -0.04289  -1.53833
    Y8       -3.78934  -0.13299   0.00000  -0.11278  -0.10925  -3.89859
    Z8       -0.07210  -0.00567   0.00000  -0.00424  -0.00449  -0.07658
    X9        3.51049   0.04867   0.00000   0.04702   0.04990   3.56039
    Y9       -2.62738  -0.03133   0.00000  -0.03358  -0.03023  -2.65760
    Z9        0.02409   0.00137   0.00000   0.00074   0.00122   0.02531
         Item               Value     Threshold  Converged?
 Maximum Force            0.339019     0.000450     NO 
 RMS     Force            0.113752     0.000300     NO 
 Maximum Displacement     0.144161     0.001800     NO 
 RMS     Displacement     0.057711     0.001200     NO 
 Predicted change in Energy=-1.234311D-01
 GradGradGradGradGradGradGradGradGradGradGradGradGradGradGradGradGradGrad

 Leave Link  103 at Tue Dec 15 17:09:42 2015, MaxMem=    33554432 cpu:         0.0
 (Enter /home/Applications/g09/g09/l9999.exe)
 1\1\GINC-DUSTIN-DESKTOP\Force\RAM1-FC\STO-3G\C4H4O1\DUSTIN\15-Dec-2015
 \0\\#P AM1(Input,print) CIS(Singlets,NStates=15) pop(full) force\\AM1-
 Reparam Input\\0,1\C,0.988626,-0.764534,0.031843\C,-0.301978,-1.14053,
 -0.048312\O,-1.190098,0.00245,0.044603\C,-0.336119,1.129439,-0.005846\
 C,0.916533,0.724113,0.036257\H,1.857624,1.369815,-0.014008\H,-0.81331,
 2.085461,0.00787\H,-0.791352,-2.005232,-0.038153\H,1.857672,-1.390348,
 0.012749\\Version=ES64L-G09RevD.01\State=1-A\HF=1.7793036\RMSD=2.587e-
 09\RMSF=1.138e-01\Dipole=-5.0791994,0.1230179,0.3514869\PG=C01 [X(C4H4
 O1)]\\@


 EVERY WORD THAT YOU WRITE IS A BLOW THAT SMITES THE DEVIL.
     -- ST. BERNARD OF CLAIRVAUX
 Job cpu time:       0 days  0 hours  0 minutes  0.7 seconds.
 File lengths (MBytes):  RWF=      7 Int=      0 D2E=      0 Chk=      2 Scr=      1
 Normal termination of Gaussian 09 at Tue Dec 15 17:09:42 2015.
