 Entering Gaussian System, Link 0=g09
 Input=FuranDFT_21.com
 Output=FuranDFT_21.log
 Initial command:
 /home/Applications/g09/g09/l1.exe "/home/Applications/g09/scratch/Gau-5629.inp" -scrdir="/home/Applications/g09/scratch/"
 Entering Link 1 = /home/Applications/g09/g09/l1.exe PID=      5631.
  
 Copyright (c) 1988,1990,1992,1993,1995,1998,2003,2009,2013,
            Gaussian, Inc.  All Rights Reserved.
  
 This is part of the Gaussian(R) 09 program.  It is based on
 the Gaussian(R) 03 system (copyright 2003, Gaussian, Inc.),
 the Gaussian(R) 98 system (copyright 1998, Gaussian, Inc.),
 the Gaussian(R) 94 system (copyright 1995, Gaussian, Inc.),
 the Gaussian 92(TM) system (copyright 1992, Gaussian, Inc.),
 the Gaussian 90(TM) system (copyright 1990, Gaussian, Inc.),
 the Gaussian 88(TM) system (copyright 1988, Gaussian, Inc.),
 the Gaussian 86(TM) system (copyright 1986, Carnegie Mellon
 University), and the Gaussian 82(TM) system (copyright 1983,
 Carnegie Mellon University). Gaussian is a federally registered
 trademark of Gaussian, Inc.
  
 This software contains proprietary and confidential information,
 including trade secrets, belonging to Gaussian, Inc.
  
 This software is provided under written license and may be
 used, copied, transmitted, or stored only in accord with that
 written license.
  
 The following legend is applicable only to US Government
 contracts under FAR:
  
                    RESTRICTED RIGHTS LEGEND
  
 Use, reproduction and disclosure by the US Government is
 subject to restrictions as set forth in subparagraphs (a)
 and (c) of the Commercial Computer Software - Restricted
 Rights clause in FAR 52.227-19.
  
 Gaussian, Inc.
 340 Quinnipiac St., Bldg. 40, Wallingford CT 06492
  
  
 ---------------------------------------------------------------
 Warning -- This program may not be used in any manner that
 competes with the business of Gaussian, Inc. or will provide
 assistance to any competitor of Gaussian, Inc.  The licensee
 of this program is prohibited from giving any competitor of
 Gaussian, Inc. access to this program.  By using this program,
 the user acknowledges that Gaussian, Inc. is engaged in the
 business of creating and licensing software in the field of
 computational chemistry and represents and warrants to the
 licensee that it is not a competitor of Gaussian, Inc. and that
 it will not use this program in any manner prohibited above.
 ---------------------------------------------------------------
  

 Cite this work as:
 Gaussian 09, Revision D.01,
 M. J. Frisch, G. W. Trucks, H. B. Schlegel, G. E. Scuseria, 
 M. A. Robb, J. R. Cheeseman, G. Scalmani, V. Barone, B. Mennucci, 
 G. A. Petersson, H. Nakatsuji, M. Caricato, X. Li, H. P. Hratchian, 
 A. F. Izmaylov, J. Bloino, G. Zheng, J. L. Sonnenberg, M. Hada, 
 M. Ehara, K. Toyota, R. Fukuda, J. Hasegawa, M. Ishida, T. Nakajima, 
 Y. Honda, O. Kitao, H. Nakai, T. Vreven, J. A. Montgomery, Jr., 
 J. E. Peralta, F. Ogliaro, M. Bearpark, J. J. Heyd, E. Brothers, 
 K. N. Kudin, V. N. Staroverov, T. Keith, R. Kobayashi, J. Normand, 
 K. Raghavachari, A. Rendell, J. C. Burant, S. S. Iyengar, J. Tomasi, 
 M. Cossi, N. Rega, J. M. Millam, M. Klene, J. E. Knox, J. B. Cross, 
 V. Bakken, C. Adamo, J. Jaramillo, R. Gomperts, R. E. Stratmann, 
 O. Yazyev, A. J. Austin, R. Cammi, C. Pomelli, J. W. Ochterski, 
 R. L. Martin, K. Morokuma, V. G. Zakrzewski, G. A. Voth, 
 P. Salvador, J. J. Dannenberg, S. Dapprich, A. D. Daniels, 
 O. Farkas, J. B. Foresman, J. V. Ortiz, J. Cioslowski, 
 and D. J. Fox, Gaussian, Inc., Wallingford CT, 2013.
 
 ******************************************
 Gaussian 09:  ES64L-G09RevD.01 24-Apr-2013
                15-Dec-2015 
 ******************************************
 -------------------------------------------------------
 #P B3LYP/3-21G CIS(Singlets,NStates=15) pop(full) force
 -------------------------------------------------------
 1/10=7,30=1,38=1/1,3;
 2/12=2,17=6,18=5,40=1/2;
 3/5=5,11=9,16=1,25=1,30=1,71=1,74=-5/1,2,8,3;
 4//1;
 5/5=2,38=5/2;
 8/6=1,10=1,108=15/1;
 9/15=2,41=15,42=1,48=1/14;
 10/5=4/2;
 6/7=3,18=1/1;
 7/12=6,13=5,29=1/1,2,3,16;
 1/10=7,30=1/3;
 99//99;
 Leave Link    1 at Tue Dec 15 16:14:40 2015, MaxMem=           0 cpu:         0.0
 (Enter /home/Applications/g09/g09/l101.exe)
 --------
 FuranDFT
 --------
 Symbolic Z-matrix:
 Charge =  0 Multiplicity = 1
 6                     0.98104  -0.71996  -0.03848 
 6                    -0.35537  -1.0892    0.03066 
 8                    -1.17801   0.03665   0.00255 
 6                    -0.39473   1.07917   0.02944 
 6                     1.0049    0.75598   0.0167 
 1                     1.7973    1.39652  -0.00434 
 1                    -0.86185   2.08012   0.03552 
 1                    -0.82866  -2.09203  -0.03742 
 1                     1.78957  -1.37628   0.041 
 
 NAtoms=      9 NQM=        9 NQMF=       0 NMMI=      0 NMMIF=      0
                NMic=       0 NMicF=      0.
                    Isotopes and Nuclear Properties:
 (Nuclear quadrupole moments (NQMom) in fm**2, nuclear magnetic moments (NMagM)
  in nuclear magnetons)

  Atom         1           2           3           4           5           6           7           8           9
 IAtWgt=          12          12          16          12          12           1           1           1           1
 AtmWgt=  12.0000000  12.0000000  15.9949146  12.0000000  12.0000000   1.0078250   1.0078250   1.0078250   1.0078250
 NucSpn=           0           0           0           0           0           1           1           1           1
 AtZEff=   0.0000000   0.0000000   0.0000000   0.0000000   0.0000000   0.0000000   0.0000000   0.0000000   0.0000000
 NQMom=    0.0000000   0.0000000   0.0000000   0.0000000   0.0000000   0.0000000   0.0000000   0.0000000   0.0000000
 NMagM=    0.0000000   0.0000000   0.0000000   0.0000000   0.0000000   2.7928460   2.7928460   2.7928460   2.7928460
 AtZNuc=   6.0000000   6.0000000   8.0000000   6.0000000   6.0000000   1.0000000   1.0000000   1.0000000   1.0000000
 Leave Link  101 at Tue Dec 15 16:14:40 2015, MaxMem=    33554432 cpu:         0.0
 (Enter /home/Applications/g09/g09/l103.exe)

 GradGradGradGradGradGradGradGradGradGradGradGradGradGradGradGradGradGrad
 Berny optimization.
 Initialization pass.
 Trust Radius=3.00D-01 FncErr=1.00D-07 GrdErr=1.00D-07
 Number of steps in this run=      2 maximum allowed number of steps=      2.
 GradGradGradGradGradGradGradGradGradGradGradGradGradGradGradGradGradGrad

 Leave Link  103 at Tue Dec 15 16:14:40 2015, MaxMem=    33554432 cpu:         0.0
 (Enter /home/Applications/g09/g09/l202.exe)
                          Input orientation:                          
 ---------------------------------------------------------------------
 Center     Atomic      Atomic             Coordinates (Angstroms)
 Number     Number       Type             X           Y           Z
 ---------------------------------------------------------------------
      1          6           0        0.981038   -0.719956   -0.038484
      2          6           0       -0.355373   -1.089199    0.030660
      3          8           0       -1.178013    0.036646    0.002547
      4          6           0       -0.394732    1.079171    0.029436
      5          6           0        1.004896    0.755981    0.016696
      6          1           0        1.797302    1.396519   -0.004344
      7          1           0       -0.861854    2.080124    0.035523
      8          1           0       -0.828656   -2.092030   -0.037421
      9          1           0        1.789573   -1.376284    0.040996
 ---------------------------------------------------------------------
                    Distance matrix (angstroms):
                    1          2          3          4          5
     1  C    0.000000
     2  C    1.388206   0.000000
     3  O    2.288150   1.394652   0.000000
     4  C    2.265880   2.168728   1.304266   0.000000
     5  C    1.477161   2.292426   2.298420   1.436514   0.000000
     6  H    2.268682   3.288469   3.271361   2.215144   1.019136
     7  H    3.352935   3.209541   2.068054   1.104603   2.288769
     8  H    2.271031   1.110991   2.157524   3.201449   3.387626
     9  H    1.044420   2.164097   3.287007   3.286424   2.272193
                    6          7          8          9
     6  H    0.000000
     7  H    2.745909   0.000000
     8  H    4.366546   4.172924   0.000000
     9  H    2.773184   4.356243   2.715431   0.000000
 Stoichiometry    C4H4O
 Framework group  C1[X(C4H4O)]
 Deg. of freedom    21
 Full point group                 C1      NOp   1
 Largest Abelian subgroup         C1      NOp   1
 Largest concise Abelian subgroup C1      NOp   1
                         Standard orientation:                         
 ---------------------------------------------------------------------
 Center     Atomic      Atomic             Coordinates (Angstroms)
 Number     Number       Type             X           Y           Z
 ---------------------------------------------------------------------
      1          6           0        1.010083    0.697276   -0.032860
      2          6           0        0.930391   -0.687172    0.030939
      3          8           0       -0.399434   -1.105088   -0.013396
      4          6           0       -1.135891   -0.028866    0.008723
      5          6           0       -0.380748    1.193153    0.008364
      6          1           0       -0.733018    2.149220   -0.013539
      7          1           0       -2.233786   -0.150229    0.002140
      8          1           0        1.729140   -1.456914   -0.030691
      9          1           0        1.890128    1.252281    0.058256
 ---------------------------------------------------------------------
 Rotational constants (GHZ):      9.3753332      8.8315712      4.5504030
 Leave Link  202 at Tue Dec 15 16:14:40 2015, MaxMem=    33554432 cpu:         0.0
 (Enter /home/Applications/g09/g09/l301.exe)
 Standard basis: 3-21G (6D, 7F)
 Ernie: Thresh=  0.10000D-02 Tol=  0.10000D-05 Strict=F.
 There are    53 symmetry adapted cartesian basis functions of A   symmetry.
 There are    53 symmetry adapted basis functions of A   symmetry.
    53 basis functions,    87 primitive gaussians,    53 cartesian basis functions
    18 alpha electrons       18 beta electrons
       nuclear repulsion energy       158.9292250822 Hartrees.
 IExCor=  402 DFT=T Ex+Corr=B3LYP ExCW=0 ScaHFX=  0.200000
 ScaDFX=  0.800000  0.720000  1.000000  0.810000 ScalE2=  1.000000  1.000000
 IRadAn=      0 IRanWt=     -1 IRanGd=            0 ICorTp=0 IEmpDi=  4
 NAtoms=    9 NActive=    9 NUniq=    9 SFac= 1.00D+00 NAtFMM=   60 NAOKFM=F Big=F
 Integral buffers will be    131072 words long.
 Regular integral format.
 Two-electron integral symmetry is turned on.
 Leave Link  301 at Tue Dec 15 16:14:40 2015, MaxMem=    33554432 cpu:         0.0
 (Enter /home/Applications/g09/g09/l302.exe)
 NPDir=0 NMtPBC=     1 NCelOv=     1 NCel=       1 NClECP=     1 NCelD=      1
         NCelK=      1 NCelE2=     1 NClLst=     1 CellRange=     0.0.
 One-electron integrals computed using PRISM.
 NBasis=    53 RedAO= T EigKep=  4.30D-03  NBF=    53
 NBsUse=    53 1.00D-06 EigRej= -1.00D+00 NBFU=    53
 Precomputing XC quadrature grid using
 IXCGrd= 4 IRadAn=           0 IRanWt=          -1 IRanGd=           0 AccXCQ= 0.00D+00.
 Generated NRdTot=       0 NPtTot=           0 NUsed=           0 NTot=          32
 NSgBfM=    53    53    53    53    53 MxSgAt=     9 MxSgA2=     9.
 Leave Link  302 at Tue Dec 15 16:14:40 2015, MaxMem=    33554432 cpu:         0.1
 (Enter /home/Applications/g09/g09/l308.exe)
 Leave Link  308 at Tue Dec 15 16:14:40 2015, MaxMem=    33554432 cpu:         0.0
 (Enter /home/Applications/g09/g09/l303.exe)
 DipDrv:  MaxL=1.
 Leave Link  303 at Tue Dec 15 16:14:40 2015, MaxMem=    33554432 cpu:         0.0
 (Enter /home/Applications/g09/g09/l401.exe)
 ExpMin= 1.83D-01 ExpMax= 3.22D+02 ExpMxC= 3.22D+02 IAcc=1 IRadAn=         1 AccDes= 0.00D+00
 Harris functional with IExCor=  402 and IRadAn=       1 diagonalized for initial guess.
 HarFok:  IExCor=  402 AccDes= 0.00D+00 IRadAn=         1 IDoV= 1 UseB2=F ITyADJ=14
 ICtDFT=  3500011 ScaDFX=  1.000000  1.000000  1.000000  1.000000
 FoFCou: FMM=F IPFlag=           0 FMFlag=      100000 FMFlg1=           0
         NFxFlg=           0 DoJE=T BraDBF=F KetDBF=T FulRan=T
         wScrn=  0.000000 ICntrl=     500 IOpCl=  0 I1Cent=   200000004 NGrid=           0
         NMat0=    1 NMatS0=      1 NMatT0=    0 NMatD0=    1 NMtDS0=    0 NMtDT0=    0
 Petite list used in FoFCou.
 Harris En= -228.719401101212    
 JPrj=0 DoOrth=F DoCkMO=F.
 Leave Link  401 at Tue Dec 15 16:14:40 2015, MaxMem=    33554432 cpu:         0.2
 (Enter /home/Applications/g09/g09/l502.exe)
 Closed shell SCF:
 Using DIIS extrapolation, IDIIS=  1040.
 Integral symmetry usage will be decided dynamically.
 Keep R1 ints in memory in canonical form, NReq=1925595.
 IVT=       27707 IEndB=       27707 NGot=    33554432 MDV=    32502130
 LenX=    32502130 LenY=    32498880
 Requested convergence on RMS density matrix=1.00D-08 within 128 cycles.
 Requested convergence on MAX density matrix=1.00D-06.
 Requested convergence on             energy=1.00D-06.
 No special actions if energy rises.
 FoFCou: FMM=F IPFlag=           0 FMFlag=           0 FMFlg1=           0
         NFxFlg=           0 DoJE=F BraDBF=F KetDBF=F FulRan=T
         wScrn=  0.000000 ICntrl=     600 IOpCl=  0 I1Cent=           0 NGrid=           0
         NMat0=    1 NMatS0=   1431 NMatT0=    0 NMatD0=    1 NMtDS0=    0 NMtDT0=    0
 Symmetry not used in FoFCou.
 Integral accuracy reduced to 1.0D-05 until final iterations.

 Cycle   1  Pass 0  IDiag  1:
 E= -228.658207536591    
 DIIS: error= 2.97D-02 at cycle   1 NSaved=   1.
 NSaved= 1 IEnMin= 1 EnMin= -228.658207536591     IErMin= 1 ErrMin= 2.97D-02
 ErrMax= 2.97D-02  0.00D+00 EMaxC= 1.00D-01 BMatC= 7.18D-02 BMatP= 7.18D-02
 IDIUse=3 WtCom= 7.03D-01 WtEn= 2.97D-01
 Coeff-Com:  0.100D+01
 Coeff-En:   0.100D+01
 Coeff:      0.100D+01
 Gap=     0.210 Goal=   None    Shift=    0.000
 GapD=    0.210 DampG=1.000 DampE=0.500 DampFc=0.5000 IDamp=-1.
 Damping current iteration by 5.00D-01
 RMSDP=1.23D-02 MaxDP=1.06D-01              OVMax= 2.24D-01

 Cycle   2  Pass 0  IDiag  1:
 E= -228.681556270124     Delta-E=       -0.023348733533 Rises=F Damp=T
 DIIS: error= 1.40D-02 at cycle   2 NSaved=   2.
 NSaved= 2 IEnMin= 2 EnMin= -228.681556270124     IErMin= 2 ErrMin= 1.40D-02
 ErrMax= 1.40D-02  0.00D+00 EMaxC= 1.00D-01 BMatC= 1.19D-02 BMatP= 7.18D-02
 IDIUse=3 WtCom= 8.60D-01 WtEn= 1.40D-01
 Coeff-Com:  0.180D+00 0.820D+00
 Coeff-En:   0.307D+00 0.693D+00
 Coeff:      0.198D+00 0.802D+00
 Gap=     0.234 Goal=   None    Shift=    0.000
 RMSDP=4.37D-03 MaxDP=3.91D-02 DE=-2.33D-02 OVMax= 1.92D-01

 Cycle   3  Pass 0  IDiag  1:
 E= -228.724439319665     Delta-E=       -0.042883049541 Rises=F Damp=F
 DIIS: error= 1.52D-02 at cycle   3 NSaved=   3.
 NSaved= 3 IEnMin= 3 EnMin= -228.724439319665     IErMin= 2 ErrMin= 1.40D-02
 ErrMax= 1.52D-02  0.00D+00 EMaxC= 1.00D-01 BMatC= 1.10D-02 BMatP= 1.19D-02
 IDIUse=3 WtCom= 8.48D-01 WtEn= 1.52D-01
 Coeff-Com:  0.126D-01 0.487D+00 0.501D+00
 Coeff-En:   0.000D+00 0.000D+00 0.100D+01
 Coeff:      0.107D-01 0.413D+00 0.577D+00
 Gap=     0.236 Goal=   None    Shift=    0.000
 RMSDP=2.63D-03 MaxDP=2.29D-02 DE=-4.29D-02 OVMax= 5.01D-02

 Cycle   4  Pass 0  IDiag  1:
 E= -228.733221680995     Delta-E=       -0.008782361330 Rises=F Damp=F
 DIIS: error= 6.98D-03 at cycle   4 NSaved=   4.
 NSaved= 4 IEnMin= 4 EnMin= -228.733221680995     IErMin= 4 ErrMin= 6.98D-03
 ErrMax= 6.98D-03  0.00D+00 EMaxC= 1.00D-01 BMatC= 1.79D-03 BMatP= 1.10D-02
 IDIUse=3 WtCom= 9.30D-01 WtEn= 6.98D-02
 Coeff-Com:  0.793D-02 0.638D-01 0.300D+00 0.628D+00
 Coeff-En:   0.000D+00 0.000D+00 0.148D+00 0.852D+00
 Coeff:      0.738D-02 0.594D-01 0.289D+00 0.644D+00
 Gap=     0.241 Goal=   None    Shift=    0.000
 RMSDP=7.71D-04 MaxDP=8.01D-03 DE=-8.78D-03 OVMax= 1.52D-02

 Cycle   5  Pass 0  IDiag  1:
 E= -228.734656765079     Delta-E=       -0.001435084085 Rises=F Damp=F
 DIIS: error= 1.63D-03 at cycle   5 NSaved=   5.
 NSaved= 5 IEnMin= 5 EnMin= -228.734656765079     IErMin= 5 ErrMin= 1.63D-03
 ErrMax= 1.63D-03  0.00D+00 EMaxC= 1.00D-01 BMatC= 1.15D-04 BMatP= 1.79D-03
 IDIUse=3 WtCom= 9.84D-01 WtEn= 1.63D-02
 Coeff-Com:  0.536D-02 0.458D-02 0.139D+00 0.393D+00 0.458D+00
 Coeff-En:   0.000D+00 0.000D+00 0.000D+00 0.000D+00 0.100D+01
 Coeff:      0.527D-02 0.451D-02 0.137D+00 0.386D+00 0.467D+00
 Gap=     0.240 Goal=   None    Shift=    0.000
 RMSDP=1.50D-04 MaxDP=1.68D-03 DE=-1.44D-03 OVMax= 2.47D-03

 Cycle   6  Pass 0  IDiag  1:
 E= -228.734744200193     Delta-E=       -0.000087435114 Rises=F Damp=F
 DIIS: error= 1.21D-04 at cycle   6 NSaved=   6.
 NSaved= 6 IEnMin= 6 EnMin= -228.734744200193     IErMin= 6 ErrMin= 1.21D-04
 ErrMax= 1.21D-04  0.00D+00 EMaxC= 1.00D-01 BMatC= 8.32D-07 BMatP= 1.15D-04
 IDIUse=3 WtCom= 9.99D-01 WtEn= 1.21D-03
 Coeff-Com:  0.161D-02-0.463D-02 0.105D-01 0.485D-01 0.112D+00 0.832D+00
 Coeff-En:   0.000D+00 0.000D+00 0.000D+00 0.000D+00 0.000D+00 0.100D+01
 Coeff:      0.161D-02-0.463D-02 0.105D-01 0.485D-01 0.112D+00 0.832D+00
 Gap=     0.240 Goal=   None    Shift=    0.000
 RMSDP=2.84D-05 MaxDP=2.84D-04 DE=-8.74D-05 OVMax= 6.14D-04

 Cycle   7  Pass 0  IDiag  1:
 E= -228.734744957828     Delta-E=       -0.000000757634 Rises=F Damp=F
 DIIS: error= 7.35D-05 at cycle   7 NSaved=   7.
 NSaved= 7 IEnMin= 7 EnMin= -228.734744957828     IErMin= 7 ErrMin= 7.35D-05
 ErrMax= 7.35D-05  0.00D+00 EMaxC= 1.00D-01 BMatC= 1.67D-07 BMatP= 8.32D-07
 IDIUse=1 WtCom= 1.00D+00 WtEn= 0.00D+00
 Coeff-Com:  0.928D-03-0.292D-02 0.425D-02 0.229D-01 0.585D-01 0.499D+00
 Coeff-Com:  0.417D+00
 Coeff:      0.928D-03-0.292D-02 0.425D-02 0.229D-01 0.585D-01 0.499D+00
 Coeff:      0.417D+00
 Gap=     0.240 Goal=   None    Shift=    0.000
 RMSDP=8.80D-06 MaxDP=8.77D-05 DE=-7.58D-07 OVMax= 2.56D-04

 Initial convergence to 1.0D-05 achieved.  Increase integral accuracy.
 Cycle   8  Pass 1  IDiag  1:
 E= -228.734741339262     Delta-E=        0.000003618566 Rises=F Damp=F
 DIIS: error= 1.81D-05 at cycle   1 NSaved=   1.
 NSaved= 1 IEnMin= 1 EnMin= -228.734741339262     IErMin= 1 ErrMin= 1.81D-05
 ErrMax= 1.81D-05  0.00D+00 EMaxC= 1.00D-01 BMatC= 1.42D-08 BMatP= 1.42D-08
 IDIUse=1 WtCom= 1.00D+00 WtEn= 0.00D+00
 Coeff-Com:  0.100D+01
 Coeff:      0.100D+01
 Gap=     0.240 Goal=   None    Shift=    0.000
 RMSDP=8.80D-06 MaxDP=8.77D-05 DE= 3.62D-06 OVMax= 7.58D-05

 Cycle   9  Pass 1  IDiag  1:
 E= -228.734741347082     Delta-E=       -0.000000007821 Rises=F Damp=F
 DIIS: error= 1.82D-05 at cycle   2 NSaved=   2.
 NSaved= 2 IEnMin= 2 EnMin= -228.734741347082     IErMin= 1 ErrMin= 1.81D-05
 ErrMax= 1.82D-05  0.00D+00 EMaxC= 1.00D-01 BMatC= 1.06D-08 BMatP= 1.42D-08
 IDIUse=1 WtCom= 1.00D+00 WtEn= 0.00D+00
 Coeff-Com:  0.450D+00 0.550D+00
 Coeff:      0.450D+00 0.550D+00
 Gap=     0.240 Goal=   None    Shift=    0.000
 RMSDP=3.11D-06 MaxDP=3.60D-05 DE=-7.82D-09 OVMax= 9.46D-05

 Cycle  10  Pass 1  IDiag  1:
 E= -228.734741354123     Delta-E=       -0.000000007041 Rises=F Damp=F
 DIIS: error= 1.28D-05 at cycle   3 NSaved=   3.
 NSaved= 3 IEnMin= 3 EnMin= -228.734741354123     IErMin= 3 ErrMin= 1.28D-05
 ErrMax= 1.28D-05  0.00D+00 EMaxC= 1.00D-01 BMatC= 4.33D-09 BMatP= 1.06D-08
 IDIUse=1 WtCom= 1.00D+00 WtEn= 0.00D+00
 Coeff-Com: -0.680D-02 0.389D+00 0.618D+00
 Coeff:     -0.680D-02 0.389D+00 0.618D+00
 Gap=     0.240 Goal=   None    Shift=    0.000
 RMSDP=1.31D-06 MaxDP=1.22D-05 DE=-7.04D-09 OVMax= 3.17D-05

 Cycle  11  Pass 1  IDiag  1:
 E= -228.734741358437     Delta-E=       -0.000000004314 Rises=F Damp=F
 DIIS: error= 3.21D-06 at cycle   4 NSaved=   4.
 NSaved= 4 IEnMin= 4 EnMin= -228.734741358437     IErMin= 4 ErrMin= 3.21D-06
 ErrMax= 3.21D-06  0.00D+00 EMaxC= 1.00D-01 BMatC= 2.88D-10 BMatP= 4.33D-09
 IDIUse=1 WtCom= 1.00D+00 WtEn= 0.00D+00
 Coeff-Com: -0.204D-01 0.239D+00 0.402D+00 0.379D+00
 Coeff:     -0.204D-01 0.239D+00 0.402D+00 0.379D+00
 Gap=     0.240 Goal=   None    Shift=    0.000
 RMSDP=2.71D-07 MaxDP=2.50D-06 DE=-4.31D-09 OVMax= 5.32D-06

 Cycle  12  Pass 1  IDiag  1:
 E= -228.734741358665     Delta-E=       -0.000000000228 Rises=F Damp=F
 DIIS: error= 2.28D-07 at cycle   5 NSaved=   5.
 NSaved= 5 IEnMin= 5 EnMin= -228.734741358665     IErMin= 5 ErrMin= 2.28D-07
 ErrMax= 2.28D-07  0.00D+00 EMaxC= 1.00D-01 BMatC= 1.47D-12 BMatP= 2.88D-10
 IDIUse=1 WtCom= 1.00D+00 WtEn= 0.00D+00
 Coeff-Com: -0.603D-02 0.574D-01 0.971D-01 0.118D+00 0.733D+00
 Coeff:     -0.603D-02 0.574D-01 0.971D-01 0.118D+00 0.733D+00
 Gap=     0.240 Goal=   None    Shift=    0.000
 RMSDP=4.09D-08 MaxDP=4.47D-07 DE=-2.28D-10 OVMax= 8.71D-07

 Cycle  13  Pass 1  IDiag  1:
 E= -228.734741358664     Delta-E=        0.000000000000 Rises=F Damp=F
 DIIS: error= 1.25D-07 at cycle   6 NSaved=   6.
 NSaved= 6 IEnMin= 5 EnMin= -228.734741358665     IErMin= 6 ErrMin= 1.25D-07
 ErrMax= 1.25D-07  0.00D+00 EMaxC= 1.00D-01 BMatC= 6.85D-13 BMatP= 1.47D-12
 IDIUse=1 WtCom= 1.00D+00 WtEn= 0.00D+00
 Coeff-Com: -0.907D-03 0.643D-02 0.107D-01 0.223D-01 0.435D+00 0.527D+00
 Coeff:     -0.907D-03 0.643D-02 0.107D-01 0.223D-01 0.435D+00 0.527D+00
 Gap=     0.240 Goal=   None    Shift=    0.000
 RMSDP=1.68D-08 MaxDP=2.21D-07 DE= 4.55D-13 OVMax= 4.62D-07

 Cycle  14  Pass 1  IDiag  1:
 E= -228.734741358667     Delta-E=       -0.000000000002 Rises=F Damp=F
 DIIS: error= 2.78D-08 at cycle   7 NSaved=   7.
 NSaved= 7 IEnMin= 7 EnMin= -228.734741358667     IErMin= 7 ErrMin= 2.78D-08
 ErrMax= 2.78D-08  0.00D+00 EMaxC= 1.00D-01 BMatC= 3.85D-14 BMatP= 6.85D-13
 IDIUse=1 WtCom= 1.00D+00 WtEn= 0.00D+00
 Coeff-Com: -0.375D-04-0.146D-02-0.263D-02-0.102D-02 0.145D+00 0.258D+00
 Coeff-Com:  0.602D+00
 Coeff:     -0.375D-04-0.146D-02-0.263D-02-0.102D-02 0.145D+00 0.258D+00
 Coeff:      0.602D+00
 Gap=     0.240 Goal=   None    Shift=    0.000
 RMSDP=3.91D-09 MaxDP=3.78D-08 DE=-2.44D-12 OVMax= 5.32D-08

 SCF Done:  E(RB3LYP) =  -228.734741359     A.U. after   14 cycles
            NFock= 14  Conv=0.39D-08     -V/T= 2.0092
 KE= 2.266539163799D+02 PE=-8.501230865370D+02 EE= 2.358052037162D+02
 Leave Link  502 at Tue Dec 15 16:14:45 2015, MaxMem=    33554432 cpu:         4.5
 (Enter /home/Applications/g09/g09/l801.exe)
 DoSCS=F DFT=T ScalE2(SS,OS)=  1.000000  1.000000
 ExpMin= 1.83D-01 ExpMax= 3.22D+02 ExpMxC= 3.22D+02 IAcc=3 IRadAn=         5 AccDes= 0.00D+00
 HarFok:  IExCor=  205 AccDes= 0.00D+00 IRadAn=         5 IDoV=-2 UseB2=F ITyADJ=14
 ICtDFT= 12500011 ScaDFX=  1.000000  1.000000  1.000000  1.000000
 Largest valence mixing into a core orbital is  1.79D-04
 Largest core mixing into a valence orbital is  4.53D-05
 Range of M.O.s used for correlation:     6    53
 NBasis=    53 NAE=    18 NBE=    18 NFC=     5 NFV=     0
 NROrb=     48 NOA=    13 NOB=    13 NVA=    35 NVB=    35
 Leave Link  801 at Tue Dec 15 16:14:45 2015, MaxMem=    33554432 cpu:         0.2
 (Enter /home/Applications/g09/g09/l914.exe)
 RHF ground state
 MDV=    33554432 DFT=T DoStab=F Mixed=T DoRPA=F DoScal=F NonHer=F
 Keep R1, R2, and R3 ints in memory in canonical form, NReq=5596273.
 FoFCou: FMM=F IPFlag=           0 FMFlag=           0 FMFlg1=           0
         NFxFlg=           0 DoJE=F BraDBF=F KetDBF=F FulRan=T
         wScrn=  0.000000 ICntrl=     600 IOpCl=  0 I1Cent=           0 NGrid=           0
         NMat0=    1 NMatS0=   1431 NMatT0=    0 NMatD0=    1 NMtDS0=    0 NMtDT0=    0
 Symmetry not used in FoFCou.
 Making orbital integer symmetry assigments:
 Orbital symmetries:
       Occupied  (A) (A) (A) (A) (A) (A) (A) (A) (A) (A) (A) (A)
                 (A) (A) (A) (A) (A) (A)
       Virtual   (A) (A) (A) (A) (A) (A) (A) (A) (A) (A) (A) (A)
                 (A) (A) (A) (A) (A) (A) (A) (A) (A) (A) (A) (A)
                 (A) (A) (A) (A) (A) (A) (A) (A) (A) (A) (A)
    60 initial guesses have been made.
 Convergence on wavefunction:    0.000001000000000
 Davidson Disk Diagonalization:  ConvIn= 1.00D-06 SkipCon=T Conv= 1.00D-06.
 Max sub-space:   240 roots to seek:    60 dimension of matrix:          910
 Iteration     1 Dimension    60 NMult     0 NNew     60
 CISAX will form    60 AO SS matrices at one time.
 NMat=    60 NSing=    60 JSym2X= 0.
 New state      1 was old state      2
 New state      2 was old state      1
 New state      3 was old state      7
 New state      4 was old state      5
 New state      5 was old state      6
 New state      6 was old state      8
 New state      7 was old state      4
 New state      8 was old state     10
 New state      9 was old state     12
 New state     10 was old state      9
 New state     11 was old state     13
 New state     12 was old state     14
 New state     13 was old state     11
 New state     14 was old state     15
 New state     15 was old state      3
 Excitation Energies [eV] at current iteration:
 Root      1 :     6.878925954887333
 Root      2 :     7.816099131688691
 Root      3 :     8.629001911653853
 Root      4 :     8.671136628259514
 Root      5 :     8.809827386335652
 Root      6 :     9.446390758483972
 Root      7 :     9.590864669426418
 Root      8 :     9.824137034365554
 Root      9 :     9.956448804436532
 Root     10 :    10.016672562810130
 Root     11 :    10.180965887245100
 Root     12 :    10.274391113658450
 Root     13 :    10.386638243813190
 Root     14 :    10.520830417941380
 Root     15 :    10.659605853621930
 Root     16 :    10.966909411827200
 Root     17 :    11.075189670954430
 Root     18 :    11.280120555328290
 Root     19 :    11.405307425619060
 Root     20 :    11.481947771077180
 Root     21 :    11.728085111057580
 Root     22 :    11.789993730613060
 Root     23 :    12.341928813210530
 Root     24 :    12.498386102433270
 Root     25 :    12.591057078252780
 Root     26 :    12.945579053991780
 Root     27 :    13.235469027366030
 Root     28 :    13.486425487150160
 Root     29 :    13.626796142871440
 Root     30 :    13.634706201792700
 Root     31 :    13.839917213935500
 Root     32 :    13.868060410279340
 Root     33 :    14.009040650078830
 Root     34 :    14.073606098453670
 Root     35 :    14.339905876240780
 Root     36 :    14.519987218229820
 Root     37 :    14.644622699128300
 Root     38 :    14.704746894391060
 Root     39 :    14.910353847026900
 Root     40 :    14.943149446672320
 Root     41 :    15.045733783581150
 Root     42 :    15.160570546645300
 Root     43 :    15.163790220972640
 Root     44 :    15.245092851949600
 Root     45 :    15.358881374781030
 Root     46 :    15.412937380389890
 Root     47 :    15.520100524770390
 Root     48 :    15.558176907077430
 Root     49 :    15.663133729089360
 Root     50 :    15.711995353483100
 Root     51 :    15.771263566018470
 Root     52 :    15.938509844930650
 Root     53 :    15.973082157397480
 Root     54 :    16.158942815575400
 Root     55 :    16.280230688092620
 Root     56 :    16.579256448410630
 Root     57 :    16.758413101784670
 Root     58 :    17.077452309280300
 Root     59 :    17.407486068101760
 Root     60 :    18.023222470739070
 Iteration     2 Dimension   120 NMult    60 NNew     60
 CISAX will form    60 AO SS matrices at one time.
 NMat=    60 NSing=    60 JSym2X= 0.
 Root      1 not converged, maximum delta is    0.205497728088615
 Root      2 not converged, maximum delta is    0.169942640692171
 Root      3 not converged, maximum delta is    0.034433085460227
 Root      4 not converged, maximum delta is    0.033707844460746
 Root      5 not converged, maximum delta is    0.039137495292493
 New state      6 was old state      7
 Root      6 not converged, maximum delta is    0.177405070619462
 New state      7 was old state     15
 Root      7 not converged, maximum delta is    0.274669434677337
 New state      8 was old state      6
 Root      8 not converged, maximum delta is    0.184498191585960
 New state      9 was old state      8
 Root      9 not converged, maximum delta is    0.155591287563588
 New state     10 was old state      9
 Root     10 not converged, maximum delta is    0.173147731843778
 New state     11 was old state     10
 Root     11 not converged, maximum delta is    0.209360883638804
 New state     12 was old state     11
 Root     12 not converged, maximum delta is    0.092320744980936
 New state     13 was old state     12
 Root     13 not converged, maximum delta is    0.036198971103854
 New state     14 was old state     13
 Root     14 not converged, maximum delta is    0.046843387438331
 New state     15 was old state     14
 Root     15 not converged, maximum delta is    0.107539037087835
 Excitation Energies [eV] at current iteration:
 Root      1 :     6.713905448444700   Change is   -0.165020506442633
 Root      2 :     7.022441854818973   Change is   -0.793657276869719
 Root      3 :     8.597607428612768   Change is   -0.031394483041085
 Root      4 :     8.645130168399540   Change is   -0.026006459859976
 Root      5 :     8.790833601443719   Change is   -0.018993784891933
 Root      6 :     9.012927738954192   Change is   -0.577936930472227
 Root      7 :     9.354948938856635   Change is   -1.304656914765291
 Root      8 :     9.447627431201951   Change is    0.001236672717980
 Root      9 :     9.797699265114874   Change is   -0.026437769250680
 Root     10 :     9.958711044795745   Change is    0.002262240359213
 Root     11 :    10.014638788676690   Change is   -0.002033774133441
 Root     12 :    10.171652758460510   Change is   -0.009313128784586
 Root     13 :    10.264014546792460   Change is   -0.010376566865984
 Root     14 :    10.368219511380840   Change is   -0.018418732432352
 Root     15 :    10.500993336125880   Change is   -0.019837081815499
 Root     16 :    10.947467011529960   Change is   -0.019442400297238
 Root     17 :    11.057064655554120   Change is   -0.018125015400312
 Root     18 :    11.258813182482330   Change is   -0.021307372845958
 Root     19 :    11.378314010086850   Change is   -0.026993415532210
 Root     20 :    11.444039485063580   Change is   -0.037908286013594
 Root     21 :    11.690093607578510   Change is   -0.037991503479068
 Root     22 :    11.772664055648190   Change is   -0.017329674964866
 Root     23 :    12.128481864649930   Change is   -0.213446948560600
 Root     24 :    12.352397335131360   Change is   -0.145988767301910
 Root     25 :    12.566463802881900   Change is   -0.024593275370880
 Root     26 :    12.885443814439910   Change is   -0.060135239551871
 Root     27 :    12.966770186165050   Change is   -0.519655300985106
 Root     28 :    13.122017839973270   Change is   -0.717899373962227
 Root     29 :    13.247660804339270   Change is    0.012191776973237
 Root     30 :    13.586113968580390   Change is   -0.040682174291048
 Root     31 :    13.597918763830150   Change is   -0.036787437962553
 Root     32 :    13.840315703516850   Change is   -0.027744706762491
 Root     33 :    13.931226017344420   Change is   -0.077814632734418
 Root     34 :    13.996122502833000   Change is   -0.077483595620668
 Root     35 :    14.034619148798920   Change is   -0.485368069430905
 Root     36 :    14.263495087702760   Change is   -0.076410788538024
 Root     37 :    14.510349619170510   Change is   -0.134273079957790
 Root     38 :    14.580266403106150   Change is   -0.362883043566170
 Root     39 :    14.649304033110760   Change is   -0.055442861280301
 Root     40 :    14.868804651060890   Change is   -0.041549195966009
 Root     41 :    14.949945462803040   Change is   -0.095788320778108
 Root     42 :    15.029785617527240   Change is   -0.215307234422357
 Root     43 :    15.085215457008440   Change is   -0.078574763964205
 Root     44 :    15.126557715046380   Change is   -0.034012831598916
 Root     45 :    15.145812862709030   Change is   -0.213068512072006
 Root     46 :    15.170001872523790   Change is   -0.493131856565572
 Root     47 :    15.341237539274180   Change is   -0.071699841115710
 Root     48 :    15.467057274948560   Change is   -0.053043249821832
 Root     49 :    15.523267367345460   Change is   -0.034909539731964
 Root     50 :    15.535215535392860   Change is   -0.745015152699751
 Root     51 :    15.635963010024160   Change is   -0.135300555994306
 Root     52 :    15.685876748847500   Change is   -0.026118604635608
 Root     53 :    15.757437028123980   Change is   -0.181072816806668
 Root     54 :    15.872434557433220   Change is   -0.100647599964263
 Root     55 :    15.903107155326350   Change is   -0.255835660249048
 Root     56 :    16.288009791472620   Change is   -0.291246656938008
 Root     57 :    16.482470696794210   Change is   -0.925015371307549
 Root     58 :    16.546845309761720   Change is   -0.530606999518579
 Root     59 :    16.622313950163350   Change is   -0.136099151621316
 Root     60 :    16.772656121292170   Change is   -1.250566349446905
 Iteration     3 Dimension   135 NMult   120 NNew     15
 CISAX will form    15 AO SS matrices at one time.
 NMat=    15 NSing=    15 JSym2X= 0.
 Root      1 not converged, maximum delta is    0.001208833908829
 Root      2 not converged, maximum delta is    0.002571794170140
 Root      3 not converged, maximum delta is    0.000460530635900
 Root      4 not converged, maximum delta is    0.000581005335442
 Root      5 not converged, maximum delta is    0.000585073642945
 Root      6 not converged, maximum delta is    0.002782555287780
 Root      7 not converged, maximum delta is    0.010624297690887
 Root      8 not converged, maximum delta is    0.006793509318560
 Root      9 not converged, maximum delta is    0.000348480477472
 Root     10 not converged, maximum delta is    0.001355456784526
 Root     11 not converged, maximum delta is    0.001126747761320
 Root     12 not converged, maximum delta is    0.000343596603020
 Root     13 not converged, maximum delta is    0.000158172814430
 Root     14 not converged, maximum delta is    0.000419323131941
 Root     15 not converged, maximum delta is    0.000244562272675
 Excitation Energies [eV] at current iteration:
 Root      1 :     6.712960844477085   Change is   -0.000944603967616
 Root      2 :     7.020648780106379   Change is   -0.001793074712594
 Root      3 :     8.597514558101745   Change is   -0.000092870511024
 Root      4 :     8.645070021763601   Change is   -0.000060146635939
 Root      5 :     8.790747146405758   Change is   -0.000086455037960
 Root      6 :     9.010558659056374   Change is   -0.002369079897818
 Root      7 :     9.350983620219424   Change is   -0.003965318637211
 Root      8 :     9.446966257080497   Change is   -0.000661174121454
 Root      9 :     9.797646845697665   Change is   -0.000052419417209
 Root     10 :     9.958562527609194   Change is   -0.000148517186549
 Root     11 :    10.014492919226280   Change is   -0.000145869450411
 Root     12 :    10.171579792401060   Change is   -0.000072966059449
 Root     13 :    10.263997474541610   Change is   -0.000017072250853
 Root     14 :    10.368176735240340   Change is   -0.000042776140496
 Root     15 :    10.500962763185080   Change is   -0.000030572940801
 Iteration     4 Dimension   150 NMult   135 NNew     15
 CISAX will form    15 AO SS matrices at one time.
 NMat=    15 NSing=    15 JSym2X= 0.
 Root      1 not converged, maximum delta is    0.000035821829246
 Root      2 not converged, maximum delta is    0.000077899816997
 Root      3 not converged, maximum delta is    0.000010259794389
 Root      4 not converged, maximum delta is    0.000011052025569
 Root      5 not converged, maximum delta is    0.000010232105418
 Root      6 not converged, maximum delta is    0.000058750951357
 Root      7 not converged, maximum delta is    0.000084952179907
 Root      8 not converged, maximum delta is    0.000033900889604
 Root      9 not converged, maximum delta is    0.000009845510031
 Root     10 not converged, maximum delta is    0.000019306933156
 Root     11 not converged, maximum delta is    0.000015651745137
 Root     12 not converged, maximum delta is    0.000010926330192
 Root     13 not converged, maximum delta is    0.000009147476894
 Root     14 not converged, maximum delta is    0.000006973740616
 Root     15 not converged, maximum delta is    0.000004206301703
 Excitation Energies [eV] at current iteration:
 Root      1 :     6.712959782689992   Change is   -0.000001061787092
 Root      2 :     7.020646787340194   Change is   -0.000001992766185
 Root      3 :     8.597514452669115   Change is   -0.000000105432629
 Root      4 :     8.645069952174719   Change is   -0.000000069588881
 Root      5 :     8.790747043203337   Change is   -0.000000103202420
 Root      6 :     9.010555254129208   Change is   -0.000003404927165
 Root      7 :     9.350978095726044   Change is   -0.000005524493381
 Root      8 :     9.446965386300297   Change is   -0.000000870780200
 Root      9 :     9.797646764805291   Change is   -0.000000080892374
 Root     10 :     9.958562329324055   Change is   -0.000000198285140
 Root     11 :    10.014492729492050   Change is   -0.000000189734231
 Root     12 :    10.171579710039830   Change is   -0.000000082361233
 Root     13 :    10.263997452639930   Change is   -0.000000021901673
 Root     14 :    10.368176701882550   Change is   -0.000000033357795
 Root     15 :    10.500962745213540   Change is   -0.000000017971542
 Iteration     5 Dimension   165 NMult   150 NNew     15
 CISAX will form    15 AO SS matrices at one time.
 NMat=    15 NSing=    15 JSym2X= 0.
 Root      1 not converged, maximum delta is    0.000001102021368
 Root      2 not converged, maximum delta is    0.000001788954780
 Root      3 has converged.
 Root      4 has converged.
 Root      5 has converged.
 Root      6 not converged, maximum delta is    0.000002507009364
 Root      7 not converged, maximum delta is    0.000002452957220
 Root      8 has converged.
 Root      9 has converged.
 Root     10 has converged.
 Root     11 has converged.
 Root     12 has converged.
 Root     13 has converged.
 Root     14 has converged.
 Root     15 has converged.
 Excitation Energies [eV] at current iteration:
 Root      1 :     6.712959781742682   Change is   -0.000000000947311
 Root      2 :     7.020646785914675   Change is   -0.000000001425519
 Root      3 :     8.597514452591728   Change is   -0.000000000077388
 Root      4 :     8.645069952117145   Change is   -0.000000000057574
 Root      5 :     8.790747043133416   Change is   -0.000000000069921
 Root      6 :     9.010555251356793   Change is   -0.000000002772415
 Root      7 :     9.350978091059405   Change is   -0.000000004666639
 Root      8 :     9.446965385608499   Change is   -0.000000000691799
 Root      9 :     9.797646764729935   Change is   -0.000000000075356
 Root     10 :     9.958562329143200   Change is   -0.000000000180855
 Root     11 :    10.014492729282620   Change is   -0.000000000209433
 Root     12 :    10.171579709950750   Change is   -0.000000000089078
 Root     13 :    10.263997452612460   Change is   -0.000000000027478
 Root     14 :    10.368176701847280   Change is   -0.000000000035262
 Root     15 :    10.500962745194940   Change is   -0.000000000018595
 Iteration     6 Dimension   169 NMult   165 NNew      4
 CISAX will form     4 AO SS matrices at one time.
 NMat=     4 NSing=     4 JSym2X= 0.
 Root      1 has converged.
 Root      2 has converged.
 Root      3 has converged.
 Root      4 has converged.
 Root      5 has converged.
 Root      6 has converged.
 Root      7 has converged.
 Root      8 has converged.
 Root      9 has converged.
 Root     10 has converged.
 Root     11 has converged.
 Root     12 has converged.
 Root     13 has converged.
 Root     14 has converged.
 Root     15 has converged.
 Excitation Energies [eV] at current iteration:
 Root      1 :     6.712959781742405   Change is   -0.000000000000276
 Root      2 :     7.020646785914115   Change is   -0.000000000000559
 Root      3 :     8.597514452591701   Change is   -0.000000000000027
 Root      4 :     8.645069952117128   Change is   -0.000000000000017
 Root      5 :     8.790747043133388   Change is   -0.000000000000029
 Root      6 :     9.010555251355122   Change is   -0.000000000001671
 Root      7 :     9.350978091055437   Change is   -0.000000000003968
 Root      8 :     9.446965385607960   Change is   -0.000000000000538
 Root      9 :     9.797646764729896   Change is   -0.000000000000039
 Root     10 :     9.958562329143069   Change is   -0.000000000000131
 Root     11 :    10.014492729282380   Change is   -0.000000000000231
 Root     12 :    10.171579709950700   Change is   -0.000000000000048
 Root     13 :    10.263997452612450   Change is   -0.000000000000009
 Root     14 :    10.368176701847270   Change is   -0.000000000000011
 Root     15 :    10.500962745194940   Change is   -0.000000000000003
 Convergence achieved on expansion vectors.
 ***********************************************************************
 Excited states from <AA,BB:AA,BB> singles matrix:
 ***********************************************************************
 
 1PDM for each excited state written to RWF  633
 Ground to excited state transition densities written to RWF  633
 Ground to excited state transition electric dipole moments (Au):
       state          X           Y           Z        Dip. S.      Osc.
         1         0.5487     -0.1748      0.0419      0.3334      0.0548
         2        -0.9731      0.1468     -0.0476      0.9707      0.1670
         3        -0.0063      0.1796     -0.1456      0.0535      0.0113
         4         0.0213     -0.1364     -0.0247      0.0197      0.0042
         5        -0.0267     -0.1848     -0.0728      0.0401      0.0086
         6        -0.5520      0.8055      0.0559      0.9566      0.2112
         7         0.5420      1.1922     -0.1059      1.7264      0.3955
         8         0.2500      0.4367     -0.0260      0.2539      0.0588
         9         0.0323     -0.1002     -0.0007      0.0111      0.0027
        10         0.1222      0.1972      0.0206      0.0542      0.0132
        11         0.1425      0.1767      0.0334      0.0526      0.0129
        12         0.0382      0.1102     -0.0248      0.0142      0.0035
        13        -0.0425      0.0172      0.0226      0.0026      0.0007
        14         0.0829     -0.0525     -0.0895      0.0177      0.0045
        15         0.0266      0.0374      0.1228      0.0172      0.0044
 Ground to excited state transition velocity dipole moments (Au):
       state          X           Y           Z        Dip. S.      Osc.
         1         0.0116      0.0408      0.0010      0.0018      0.0049
         2         0.0016      0.0049     -0.0017      0.0000      0.0001
         3         0.0062      0.0010      0.0743      0.0056      0.0117
         4        -0.0084      0.0054      0.0200      0.0005      0.0010
         5        -0.0050     -0.0016      0.0139      0.0002      0.0005
         6         0.0571     -0.0159     -0.0055      0.0035      0.0071
         7        -0.0209     -0.0162     -0.0230      0.0012      0.0024
         8        -0.0201      0.0002      0.0280      0.0012      0.0023
         9        -0.0066      0.0000     -0.0119      0.0002      0.0003
        10        -0.0142     -0.0085      0.0271      0.0010      0.0018
        11        -0.0112     -0.0069      0.0352      0.0014      0.0026
        12         0.0026     -0.0030     -0.0041      0.0000      0.0001
        13         0.0121     -0.0048     -0.0100      0.0003      0.0005
        14        -0.0149      0.0053     -0.0210      0.0007      0.0012
        15        -0.0050      0.0001     -0.0165      0.0003      0.0005
 Ground to excited state transition magnetic dipole moments (Au):
       state          X           Y           Z
         1        -0.0325      0.0239      0.2213
         2        -0.0052     -0.0118     -0.3252
         3        -1.3523      0.7188      0.0085
         4        -0.5790      0.0556     -0.0468
         5        -0.1199     -0.5311     -0.0243
         6         0.0364      0.0196      0.2300
         7         0.0437     -0.1567     -0.1391
         8         0.1724     -0.0565     -0.0570
         9         0.3966      0.9051     -0.0254
        10        -0.1320      0.4196     -0.0120
        11         0.1306     -0.1351     -0.0508
        12         0.2590     -0.2557     -0.0292
        13         0.3393      0.0163     -0.0181
        14        -0.0912     -0.0084      0.0004
        15        -0.0381     -0.0565      0.0215
 Ground to excited state transition velocity quadrupole moments (Au):
       state          XX          YY          ZZ          XY          XZ          YZ
         1         0.0474     -0.0262     -0.0163      0.0493      0.0054     -0.0038
         2        -0.1277      0.1191      0.0007     -0.1395     -0.0009      0.0031
         3         0.0317     -0.0089     -0.0056     -0.0034     -0.1202     -0.1434
         4        -0.0381      0.0180      0.0041      0.0052      0.1476     -0.0987
         5        -0.0422      0.0303      0.0056      0.0270     -0.0512     -0.0400
         6         0.2515     -0.2010     -0.0168      0.1553      0.0124     -0.0146
         7         0.1264     -0.0483     -0.0323     -0.2587      0.0122      0.0288
         8         0.0291     -0.0323     -0.0150     -0.0693      0.0189     -0.0544
         9        -0.0315      0.0308      0.0013     -0.0210     -0.0446      0.0557
        10         0.0165      0.0175     -0.0161     -0.0896     -0.0368     -0.0453
        11         0.0340      0.0012     -0.0071     -0.0557      0.0719      0.0334
        12         0.0146      0.0001     -0.0012     -0.0213      0.0094      0.1216
        13         0.0103      0.0081     -0.0018     -0.0114      0.0005      0.0233
        14        -0.0333      0.0438     -0.0068     -0.0259     -0.0126     -0.1024
        15         0.0230     -0.0130      0.0044     -0.0181     -0.0019     -0.0223
 <0|del|b> * <b|rxdel|0> + <0|del|b> * <b|delr+rdel|0>
 Rotatory Strengths (R) in cgs (10**-40 erg-esu-cm/Gauss)
       state          XX          YY          ZZ    R(velocity)    E-M Angle
         1         1.4576     -0.3654      1.2359      0.7761       85.12
         2         0.9950      0.4222     -0.1034      0.4380       74.27
         3         1.3702     -9.4262     -7.7471     -5.2677       93.54
         4        -1.4766      5.1424      5.6794      3.1151       71.23
         5         0.8792      0.0889      1.4506      0.8062       82.14
         6        -2.3853      0.8908      2.5684      0.3580       87.93
         7        12.2375     -4.3881      2.0862      3.3119       49.91
         8        -3.6099     -2.0654     -4.6514     -3.4422      140.70
         9         0.4986     -2.8927     -2.2585     -1.5509      100.14
        10        -6.4139      4.4709     -1.9523     -1.2984       98.28
        11        -2.2272     -1.5992     -0.6247     -1.4837      108.43
        12         0.9346      0.9557      1.0213      0.9705       41.81
        13         0.2058      4.1782      3.5119      2.6320       41.02
        14         0.5177      2.1691     -0.2594      0.8091       57.09
        15        -0.0599     -0.3192      0.0654     -0.1046       97.99
 1/2[<0|r|b>*<b|rxdel|0> + (<0|rxdel|b>*<b|r|0>)*]
 Rotatory Strengths (R) in cgs (10**-40 erg-esu-cm/Gauss)
       state          XX          YY          ZZ     R(length)
         1        12.6169      2.9526     -6.5635      3.0020
         2        -3.5476      1.2229    -10.9534     -4.4260
         3        -6.0165    -91.2831      0.8781    -32.1405
         4         8.7223      5.3651     -0.8159      4.4238
         5        -2.2617    -69.3895     -1.2509    -24.3007
         6        14.2126    -11.1632     -9.0831     -2.0112
         7       -16.7480    132.1029    -10.4207     34.9780
         8       -30.4776     17.4494     -1.0482     -4.6922
         9        -9.0597     64.1623     -0.0125     18.3634
        10        11.4065    -58.5151      0.1750    -15.6445
        11       -13.1563     16.8889      1.2022      1.6449
        12        -7.0056     19.9283     -0.5118      4.1370
        13        10.2044     -0.1978      0.2896      3.4321
        14         5.3491     -0.3111      0.0235      1.6872
        15         0.7163      1.4932     -1.8702      0.1131
  1/2[<0|del|b>*<b|r|0> + (<0|r|b>*<b|del|0>)*] (Au)
       state          X           Y           Z        Dip. S.   Osc.(frdel)
         1         0.0064     -0.0071      0.0000      0.0007      0.0005
         2        -0.0016      0.0007      0.0001      0.0008      0.0005
         3         0.0000      0.0002     -0.0108      0.0107      0.0071
         4        -0.0002     -0.0007     -0.0005      0.0014      0.0009
         5         0.0001      0.0003     -0.0010      0.0006      0.0004
         6        -0.0315     -0.0128     -0.0003      0.0447      0.0298
         7        -0.0113     -0.0193      0.0024      0.0282      0.0188
         8        -0.0050      0.0001     -0.0007      0.0057      0.0038
         9        -0.0002      0.0000      0.0000      0.0002      0.0001
        10        -0.0017     -0.0017      0.0006      0.0029      0.0019
        11        -0.0016     -0.0012      0.0012      0.0016      0.0011
        12         0.0001     -0.0003      0.0001      0.0001      0.0001
        13        -0.0005     -0.0001     -0.0002      0.0008      0.0005
        14        -0.0012     -0.0003      0.0019     -0.0004     -0.0002
        15        -0.0001      0.0000     -0.0020      0.0022      0.0014

 Excitation energies and oscillator strengths:
 
 Excited State   1:      Singlet-A      6.7130 eV  184.69 nm  f=0.0548  <S**2>=0.000
      17 -> 19         0.40022
      18 -> 19        -0.36282
      18 -> 20         0.44027
 This state for optimization and/or second-order correction.
 Total Energy, E(CIS) =  -228.488044615    
 Copying the excited state density for this state as the 1-particle RhoCI density.
 
 Excited State   2:      Singlet-A      7.0206 eV  176.60 nm  f=0.1670  <S**2>=0.000
      17 -> 19         0.26862
      18 -> 19         0.57986
      18 -> 20         0.25625
 
 Excited State   3:      Singlet-A      8.5975 eV  144.21 nm  f=0.0113  <S**2>=0.000
      16 -> 19         0.65395
      18 -> 21        -0.21818
 
 Excited State   4:      Singlet-A      8.6451 eV  143.42 nm  f=0.0042  <S**2>=0.000
      16 -> 19         0.23549
      18 -> 21         0.64981
 
 Excited State   5:      Singlet-A      8.7907 eV  141.04 nm  f=0.0086  <S**2>=0.000
      18 -> 22         0.68736
 
 Excited State   6:      Singlet-A      9.0106 eV  137.60 nm  f=0.2112  <S**2>=0.000
      17 -> 19         0.20112
      17 -> 20         0.58467
      18 -> 20        -0.23759
      18 -> 21         0.10088
 
 Excited State   7:      Singlet-A      9.3510 eV  132.59 nm  f=0.3955  <S**2>=0.000
      17 -> 19         0.38692
      17 -> 20        -0.30712
      17 -> 21        -0.13977
      18 -> 20        -0.34277
      18 -> 23        -0.22902
 
 Excited State   8:      Singlet-A      9.4470 eV  131.24 nm  f=0.0588  <S**2>=0.000
      15 -> 19        -0.10157
      17 -> 19         0.14384
      17 -> 20        -0.11738
      18 -> 20        -0.12566
      18 -> 23         0.63655
 
 Excited State   9:      Singlet-A      9.7976 eV  126.54 nm  f=0.0027  <S**2>=0.000
      14 -> 19         0.31770
      15 -> 19        -0.14459
      16 -> 20         0.59369
 
 Excited State  10:      Singlet-A      9.9586 eV  124.50 nm  f=0.0132  <S**2>=0.000
      15 -> 19         0.61845
      16 -> 20         0.14492
      17 -> 21         0.22619
      18 -> 24        -0.11724
 
 Excited State  11:      Singlet-A     10.0145 eV  123.80 nm  f=0.0129  <S**2>=0.000
      15 -> 19        -0.25502
      17 -> 21         0.63357
      18 -> 23        -0.13019
 
 Excited State  12:      Singlet-A     10.1716 eV  121.89 nm  f=0.0035  <S**2>=0.000
      17 -> 22         0.67756
      18 -> 24        -0.13799
 
 Excited State  13:      Singlet-A     10.2640 eV  120.80 nm  f=0.0007  <S**2>=0.000
      14 -> 19         0.61932
      16 -> 20        -0.31416
 
 Excited State  14:      Singlet-A     10.3682 eV  119.58 nm  f=0.0045  <S**2>=0.000
      15 -> 19         0.10266
      17 -> 21         0.10272
      17 -> 22         0.12983
      18 -> 24         0.63951
      18 -> 25        -0.20913
 
 Excited State  15:      Singlet-A     10.5010 eV  118.07 nm  f=0.0044  <S**2>=0.000
      18 -> 24         0.20882
      18 -> 25         0.65556
 SavETr:  write IOETrn=   770 NScale= 10 NData=  16 NLR=1 NState=   15 LETran=     280.
 The selected state is a singlet
 CISAX will form     1 AO SS matrices at one time.
 NMat=     1 NSing=     1 JSym2X= 0.
 CISAX will form     1 AO SS matrices at one time.
 NMat=     1 NSing=     1 JSym2X= 0.
 Leave Link  914 at Tue Dec 15 16:15:19 2015, MaxMem=    33554432 cpu:        33.0
 (Enter /home/Applications/g09/g09/l1002.exe)
 Minotr:  Closed shell wavefunction.
          Computing CIS/TD-HF/TD-KS derivatives.
          Using Z-Vector for PSCF gradient.
          Skipping F1 and S1 gradient terms here.
          IDoAtm=111111111
          Frozen-core window.
          Direct CPHF calculation.
          Differentiating once with respect to electric field.
                with respect to dipole field.
          Differentiating once with respect to nuclear coordinates.
          Requested convergence is 1.0D-10 RMS, and 1.0D-09 maximum.
          NewPWx=F KeepS1=T KeepF1=T KeepIn=T MapXYZ=F SortEE=F KeepMc=T.
          MDV=      33554290 using IRadAn=       0.
 Using stored XC quadrature information.
 Keep R1 ints in memory in canonical form, NReq=1898913.
 FoFCou: FMM=F IPFlag=           0 FMFlag=           0 FMFlg1=           0
         NFxFlg=           0 DoJE=F BraDBF=F KetDBF=F FulRan=T
         wScrn=  0.000000 ICntrl=     600 IOpCl=  0 I1Cent=           0 NGrid=           0
         NMat0=    1 NMatS0=   1431 NMatT0=    0 NMatD0=    1 NMtDS0=    0 NMtDT0=    0
 Symmetry not used in FoFCou.
          Solving linear equations separately, MaxMat=       0.
          There are     1 degrees of freedom in the 1st order CPHF.  IDoFFX=0 NUNeed=     1.
 LinEq1:  Iter=  0 NonCon=     1 RMS=4.24D-02 Max=6.35D-01 NDo=     1
 AX will form     1 AO Fock derivatives at one time.
 LinEq1:  Iter=  1 NonCon=     1 RMS=1.40D-02 Max=1.81D-01 NDo=     1
 LinEq1:  Iter=  2 NonCon=     1 RMS=1.14D-02 Max=1.33D-01 NDo=     1
 LinEq1:  Iter=  3 NonCon=     1 RMS=4.99D-03 Max=5.55D-02 NDo=     1
 LinEq1:  Iter=  4 NonCon=     1 RMS=3.98D-03 Max=4.07D-02 NDo=     1
 LinEq1:  Iter=  5 NonCon=     1 RMS=1.08D-03 Max=8.11D-03 NDo=     1
 LinEq1:  Iter=  6 NonCon=     1 RMS=4.40D-04 Max=3.51D-03 NDo=     1
 LinEq1:  Iter=  7 NonCon=     1 RMS=9.83D-05 Max=5.84D-04 NDo=     1
 LinEq1:  Iter=  8 NonCon=     1 RMS=7.83D-05 Max=8.82D-04 NDo=     1
 LinEq1:  Iter=  9 NonCon=     1 RMS=1.39D-05 Max=9.12D-05 NDo=     1
 LinEq1:  Iter= 10 NonCon=     1 RMS=1.50D-06 Max=9.39D-06 NDo=     1
 LinEq1:  Iter= 11 NonCon=     1 RMS=1.83D-07 Max=1.13D-06 NDo=     1
 LinEq1:  Iter= 12 NonCon=     1 RMS=1.98D-08 Max=1.10D-07 NDo=     1
 LinEq1:  Iter= 13 NonCon=     1 RMS=2.46D-09 Max=1.35D-08 NDo=     1
 LinEq1:  Iter= 14 NonCon=     1 RMS=2.98D-10 Max=1.31D-09 NDo=     1
 LinEq1:  Iter= 15 NonCon=     0 RMS=3.93D-11 Max=2.40D-10 NDo=     1
 Linear equations converged to 1.000D-10 1.000D-09 after    15 iterations.
 End of Minotr F.D. properties file   721 does not exist.
 End of Minotr F.D. properties file   722 does not exist.
 End of Minotr F.D. properties file   788 does not exist.
 Leave Link 1002 at Tue Dec 15 16:15:29 2015, MaxMem=    33554432 cpu:        10.3
 (Enter /home/Applications/g09/g09/l601.exe)
 Copying SCF densities to generalized density rwf, IOpCl= 0 IROHF=0.

 **********************************************************************

            Population analysis using the SCF density.

 **********************************************************************

 Orbital symmetries:
       Occupied  (A) (A) (A) (A) (A) (A) (A) (A) (A) (A) (A) (A)
                 (A) (A) (A) (A) (A) (A)
       Virtual   (A) (A) (A) (A) (A) (A) (A) (A) (A) (A) (A) (A)
                 (A) (A) (A) (A) (A) (A) (A) (A) (A) (A) (A) (A)
                 (A) (A) (A) (A) (A) (A) (A) (A) (A) (A) (A)
 The electronic state is 1-A.
 Alpha  occ. eigenvalues --  -19.12613 -10.18622 -10.18110 -10.13237 -10.12813
 Alpha  occ. eigenvalues --   -1.14249  -0.79404  -0.74258  -0.60932  -0.56278
 Alpha  occ. eigenvalues --   -0.54444  -0.45733  -0.45280  -0.41471  -0.40492
 Alpha  occ. eigenvalues --   -0.35831  -0.27509  -0.22424
 Alpha virt. eigenvalues --    0.01594   0.06214   0.13280   0.14927   0.16755
 Alpha virt. eigenvalues --    0.19631   0.20654   0.23788   0.32883   0.39991
 Alpha virt. eigenvalues --    0.44060   0.68448   0.70035   0.71325   0.73029
 Alpha virt. eigenvalues --    0.76948   0.78521   0.78762   0.80560   0.83617
 Alpha virt. eigenvalues --    0.94408   0.96393   1.01861   1.04504   1.17927
 Alpha virt. eigenvalues --    1.21048   1.29082   1.37540   1.49979   1.57873
 Alpha virt. eigenvalues --    1.62254   1.71899   1.93736   2.07839   3.19587
     Molecular Orbital Coefficients:
                           1         2         3         4         5
                           O         O         O         O         O
     Eigenvalues --   -19.12613 -10.18622 -10.18110 -10.13237 -10.12813
   1 1   C  1S          0.00014  -0.00043  -0.01196   0.97786   0.12618
   2        2S          0.00063  -0.00013  -0.00523   0.10911   0.01063
   3        2PX        -0.00088   0.00034  -0.00033  -0.00136   0.00055
   4        2PY         0.00100   0.00052   0.00243  -0.00096   0.00012
   5        2PZ        -0.00006   0.00001  -0.00006   0.00037   0.00010
   6        3S         -0.00258  -0.01403   0.03394  -0.09897   0.01971
   7        3PX         0.00625   0.00353  -0.00304   0.02462  -0.01805
   8        3PY         0.00467   0.00801  -0.01750   0.01673   0.00092
   9        3PZ         0.00035  -0.00065   0.00066  -0.00209  -0.00001
  10 2   C  1S         -0.00045  -0.03908   0.98474   0.01137   0.00229
  11        2S         -0.00059  -0.00741   0.10608  -0.00289  -0.00084
  12        2PX        -0.00225   0.00090  -0.00235   0.00016  -0.00020
  13        2PY        -0.00095  -0.00106   0.00059  -0.00166  -0.00137
  14        2PZ        -0.00007  -0.00006  -0.00037   0.00005  -0.00002
  15        3S          0.01485   0.01715  -0.07185   0.03633  -0.00217
  16        3PX        -0.01284  -0.01152   0.00329  -0.00769   0.00199
  17        3PY         0.00375   0.01517  -0.01720   0.02103   0.00108
  18        3PZ        -0.00058  -0.00001   0.00148  -0.00072   0.00031
  19 3   O  1S          0.98281   0.00035   0.00023   0.00007   0.00010
  20        2S          0.10815   0.00183   0.00187   0.00034   0.00052
  21        2PX         0.00104   0.00002   0.00087  -0.00003   0.00001
  22        2PY         0.00424   0.00030   0.00060  -0.00007  -0.00004
  23        2PZ         0.00017   0.00004   0.00009   0.00004  -0.00001
  24        3S         -0.06205  -0.00168  -0.00088  -0.00310  -0.00458
  25        3PX        -0.00283   0.00048  -0.00118  -0.00241   0.00076
  26        3PY        -0.01399  -0.00437  -0.00352  -0.00082  -0.00290
  27        3PZ        -0.00050  -0.00026  -0.00043  -0.00016  -0.00002
  28 4   C  1S         -0.00025   0.98471   0.03795  -0.00029   0.00901
  29        2S         -0.00001   0.10615   0.00091  -0.00021  -0.00269
  30        2PX         0.00139   0.00247  -0.00112  -0.00040  -0.00078
  31        2PY        -0.00241  -0.00150  -0.00041  -0.00087  -0.00110
  32        2PZ        -0.00001  -0.00001  -0.00005   0.00008  -0.00003
  33        3S          0.01859  -0.06662   0.01266  -0.01016   0.03325
  34        3PX         0.01483  -0.01044   0.01835  -0.00375   0.01749
  35        3PY        -0.00723  -0.01155   0.00357  -0.00117   0.01179
  36        3PZ        -0.00027  -0.00008   0.00030  -0.00031  -0.00011
  37 5   C  1S          0.00018  -0.00929  -0.00113  -0.12675   0.97784
  38        2S          0.00085  -0.00398  -0.00018  -0.01731   0.10830
  39        2PX         0.00137   0.00134   0.00012  -0.00044   0.00049
  40        2PY         0.00012   0.00115   0.00061   0.00091  -0.00135
  41        2PZ         0.00005   0.00001   0.00000   0.00003  -0.00012
  42        3S         -0.00339   0.02788  -0.01220   0.04106  -0.08910
  43        3PX        -0.00432  -0.00813  -0.00052   0.01600  -0.00764
  44        3PY         0.00909  -0.01292   0.01009  -0.01700   0.02637
  45        3PZ        -0.00030  -0.00003  -0.00001  -0.00028   0.00072
  46 6   H  1S         -0.00117  -0.00114  -0.00062   0.00041  -0.00489
  47        2S         -0.00432   0.00086  -0.00225   0.00397   0.00600
  48 7   H  1S          0.00025  -0.00303   0.00125   0.00007  -0.00027
  49        2S          0.00360   0.00911   0.00749   0.00032   0.00442
  50 8   H  1S          0.00033   0.00146  -0.00295  -0.00025  -0.00018
  51        2S          0.00314   0.00651   0.00866   0.00438   0.00080
  52 9   H  1S         -0.00097  -0.00020  -0.00115  -0.00400  -0.00079
  53        2S         -0.00311  -0.00076   0.00171   0.00590   0.00535
                           6         7         8         9        10
                           O         O         O         O         O
     Eigenvalues --    -1.14249  -0.79404  -0.74258  -0.60932  -0.56278
   1 1   C  1S         -0.02114  -0.15618   0.03347   0.10840   0.06428
   2        2S          0.02029   0.16700  -0.03664  -0.11112  -0.06304
   3        2PX        -0.01443  -0.06122  -0.04380  -0.11279   0.02791
   4        2PY        -0.02229  -0.04712   0.07439   0.04867  -0.17106
   5        2PZ         0.00099   0.00943  -0.00242  -0.01115  -0.00595
   6        3S          0.02833   0.32254  -0.05814  -0.36110  -0.22495
   7        3PX        -0.02982  -0.03470   0.00627  -0.01745   0.01335
   8        3PY        -0.02431  -0.02176  -0.01121   0.04213  -0.06068
   9        3PZ        -0.00057   0.00623  -0.00056  -0.00858  -0.00502
  10 2   C  1S         -0.06483  -0.08488   0.13444  -0.00172  -0.10599
  11        2S          0.07212   0.09651  -0.14232  -0.00221   0.11625
  12        2PX        -0.07895   0.01554   0.04081  -0.12062   0.10148
  13        2PY        -0.00283   0.11322   0.02584  -0.16288  -0.02678
  14        2PZ        -0.00324  -0.00477   0.00876  -0.00074  -0.00914
  15        3S          0.05489   0.15488  -0.34428   0.05115   0.33634
  16        3PX         0.02895  -0.00010   0.01412  -0.05716   0.06045
  17        3PY        -0.01969   0.03915  -0.02740  -0.03917   0.00714
  18        3PZ         0.00013  -0.00310   0.00555  -0.00099  -0.00665
  19 3   O  1S         -0.21371   0.07613   0.02373  -0.01036   0.06104
  20        2S          0.19461  -0.07433  -0.02113   0.00826  -0.06110
  21        2PX         0.01755   0.05547  -0.21918   0.23716   0.02067
  22        2PY         0.11685   0.01027   0.08349  -0.08013   0.02402
  23        2PZ         0.00407  -0.00129  -0.00109   0.00258  -0.00165
  24        3S          0.68543  -0.27894  -0.08990   0.04343  -0.26065
  25        3PX         0.02971   0.04186  -0.18507   0.20807   0.01671
  26        3PY         0.14468  -0.00154   0.06174  -0.06546   0.01714
  27        3PZ         0.00535  -0.00084  -0.00162   0.00223  -0.00086
  28 4   C  1S         -0.08411  -0.02509  -0.14750   0.02052  -0.10748
  29        2S          0.09148   0.03132   0.16142  -0.02309   0.11873
  30        2PX         0.07558   0.03574   0.02217   0.01981  -0.10743
  31        2PY        -0.07506   0.11739  -0.01286   0.19597   0.07588
  32        2PZ        -0.00161   0.00057  -0.00243   0.00266   0.00051
  33        3S          0.06034   0.02822   0.34879  -0.08642   0.33605
  34        3PX        -0.04825   0.01710   0.02546  -0.00075  -0.05220
  35        3PY         0.01373   0.02284   0.02963   0.05451   0.05492
  36        3PZ         0.00046   0.00039  -0.00022   0.00066  -0.00027
  37 5   C  1S         -0.02074  -0.13031  -0.09200  -0.11414   0.04656
  38        2S          0.01894   0.13861   0.09774   0.11639  -0.04605
  39        2PX        -0.00224   0.04694  -0.05080  -0.08951  -0.14082
  40        2PY        -0.02590  -0.05607  -0.04186   0.03852  -0.10899
  41        2PZ        -0.00038  -0.00215  -0.00149  -0.00270   0.00293
  42        3S          0.03106   0.26923   0.19490   0.37001  -0.15639
  43        3PX         0.02161   0.00738   0.01906  -0.02511  -0.05457
  44        3PY        -0.04516  -0.03803  -0.00877  -0.02677  -0.04282
  45        3PZ         0.00078  -0.00180  -0.00148  -0.00148   0.00204
  46 6   H  1S          0.00779   0.06019   0.05533   0.12737  -0.06949
  47        2S          0.02115   0.01482   0.01650   0.07050  -0.03712
  48 7   H  1S          0.01274   0.00321   0.08290  -0.03180   0.14169
  49        2S         -0.02405   0.00195   0.03175  -0.01903   0.08029
  50 8   H  1S          0.00906   0.03006  -0.07581   0.01033   0.13627
  51        2S         -0.01902   0.00804  -0.03026   0.01328   0.07859
  52 9   H  1S          0.00670   0.07061  -0.02133  -0.11967  -0.09050
  53        2S          0.01472   0.01590  -0.00595  -0.06360  -0.05175
                          11        12        13        14        15
                           O         O         O         O         O
     Eigenvalues --    -0.54444  -0.45733  -0.45280  -0.41471  -0.40492
   1 1   C  1S         -0.02682  -0.03161   0.03281  -0.01091   0.02167
   2        2S          0.02418   0.03370  -0.03330   0.01518  -0.02148
   3        2PX         0.14322   0.04581  -0.02107  -0.07457   0.31217
   4        2PY         0.11747   0.08307  -0.06273  -0.25128  -0.01517
   5        2PZ         0.00329   0.06567   0.06464  -0.00019   0.00518
   6        3S          0.12553   0.11185  -0.12798   0.02640  -0.11606
   7        3PX         0.10332   0.04959  -0.00747  -0.06541   0.19543
   8        3PY         0.06083   0.05310  -0.02969  -0.12820   0.01809
   9        3PZ         0.00633   0.04864   0.04698  -0.00121   0.00029
  10 2   C  1S         -0.01554   0.03191  -0.03423  -0.02800  -0.00289
  11        2S          0.01393  -0.03501   0.03767   0.03538   0.00565
  12        2PX         0.13014  -0.15411   0.12672  -0.11256  -0.08535
  13        2PY        -0.13362  -0.00358  -0.00426   0.28119   0.04167
  14        2PZ        -0.00046   0.11477   0.12592  -0.00132  -0.00697
  15        3S          0.07769  -0.10694   0.11923   0.09507   0.01671
  16        3PX         0.07401  -0.10756   0.07762  -0.09280  -0.03163
  17        3PY        -0.12126   0.00148   0.01043   0.18306   0.09960
  18        3PZ        -0.00312   0.10718   0.12067   0.00121  -0.00734
  19 3   O  1S         -0.04417  -0.00586   0.01136  -0.00744   0.02411
  20        2S          0.04299   0.00468  -0.01048   0.00696  -0.02914
  21        2PX        -0.06189   0.16827  -0.14496   0.01332   0.12397
  22        2PY        -0.18701  -0.09833   0.09693  -0.04036   0.24811
  23        2PZ        -0.00353   0.26136   0.30456   0.00971  -0.01997
  24        3S          0.16543   0.01933  -0.04126   0.02917  -0.05638
  25        3PX        -0.05756   0.16141  -0.14035   0.00686   0.12854
  26        3PY        -0.17010  -0.09298   0.09242  -0.03667   0.25929
  27        3PZ        -0.00316   0.26152   0.30639   0.00973  -0.01967
  28 4   C  1S         -0.00432  -0.03071   0.02235   0.03282  -0.02161
  29        2S          0.00242   0.03047  -0.02057  -0.04037   0.02625
  30        2PX        -0.19102  -0.13809   0.13000  -0.20904   0.08986
  31        2PY        -0.03219   0.10965  -0.10001  -0.10165   0.02978
  32        2PZ        -0.00081   0.13368   0.15102   0.00465  -0.01050
  33        3S          0.03672   0.11656  -0.09634  -0.11229   0.07643
  34        3PX        -0.14568  -0.08786   0.07759  -0.15170   0.08040
  35        3PY        -0.06149   0.04318  -0.03663  -0.07843   0.10528
  36        3PZ        -0.00050   0.11995   0.13955   0.00424  -0.01020
  37 5   C  1S         -0.03593   0.03041  -0.02608   0.01039   0.02842
  38        2S          0.03168  -0.03329   0.02750  -0.01291  -0.02676
  39        2PX        -0.04296   0.01017  -0.01951  -0.00570  -0.26108
  40        2PY         0.19489  -0.10833   0.09845   0.22552   0.12139
  41        2PZ        -0.00115   0.06213   0.06691  -0.00083   0.00256
  42        3S          0.16838  -0.08994   0.08980  -0.02673  -0.14683
  43        3PX        -0.03742   0.00907  -0.00445  -0.03725  -0.13754
  44        3PY         0.09956  -0.07530   0.05681   0.13728   0.10163
  45        3PZ        -0.00238   0.04350   0.04777   0.00021   0.00127
  46 6   H  1S          0.13598  -0.10559   0.09594   0.14008   0.11317
  47        2S          0.07245  -0.07067   0.07144   0.11825   0.10421
  48 7   H  1S          0.09745   0.11415  -0.10242   0.11035  -0.04042
  49        2S          0.04407   0.08829  -0.08191   0.10055  -0.03386
  50 8   H  1S          0.10431  -0.10900   0.09621  -0.15612  -0.06552
  51        2S          0.05193  -0.07968   0.08124  -0.14319  -0.05588
  52 9   H  1S          0.11812   0.09260  -0.06768  -0.12793   0.15947
  53        2S          0.05820   0.05606  -0.05226  -0.11728   0.14686
                          16        17        18        19        20
                           O         O         O         V         V
     Eigenvalues --    -0.35831  -0.27509  -0.22424   0.01594   0.06214
   1 1   C  1S          0.00538   0.00991   0.00412  -0.00325   0.01053
   2        2S         -0.00519  -0.01186  -0.00565   0.00062  -0.00418
   3        2PX        -0.11506  -0.01387  -0.00324   0.00451  -0.02094
   4        2PY         0.18076   0.00604   0.00256   0.01611  -0.01325
   5        2PZ        -0.01275   0.32048   0.12870  -0.17622   0.33930
   6        3S         -0.06366  -0.03132  -0.00308   0.02612  -0.10794
   7        3PX        -0.12440  -0.02434  -0.01106   0.00812  -0.05896
   8        3PY         0.13936   0.00401  -0.01028   0.03381  -0.03043
   9        3PZ        -0.01512   0.33465   0.13494  -0.29369   0.63562
  10 2   C  1S         -0.02083  -0.00521  -0.00828  -0.00972   0.00950
  11        2S          0.02401   0.00596   0.01040   0.00398  -0.00342
  12        2PX        -0.09095   0.00048  -0.00117   0.00592  -0.00049
  13        2PY        -0.17046   0.00070   0.00291  -0.00654   0.02347
  14        2PZ        -0.00504   0.14400   0.31751   0.31174  -0.21320
  15        3S          0.08254   0.01651   0.02354   0.09536  -0.10438
  16        3PX        -0.01850   0.00467   0.00620   0.02257  -0.00514
  17        3PY        -0.03277  -0.00048  -0.01039  -0.00324   0.03594
  18        3PZ        -0.00392   0.11338   0.35487   0.46049  -0.39754
  19 3   O  1S          0.06285   0.00065   0.00078   0.00120  -0.00293
  20        2S         -0.06198  -0.00071  -0.00137  -0.00201   0.00221
  21        2PX         0.12567   0.00304  -0.00476  -0.00168   0.00843
  22        2PY         0.30565   0.00950  -0.00456   0.00224  -0.00320
  23        2PZ         0.00762  -0.27247   0.05889  -0.29658  -0.01590
  24        3S         -0.24477  -0.00285  -0.00246  -0.00577   0.02223
  25        3PX         0.13836   0.00493  -0.00181   0.00121   0.01469
  26        3PY         0.33389   0.00999  -0.00484   0.00275  -0.00408
  27        3PZ         0.00887  -0.31023   0.07431  -0.41133  -0.02618
  28 4   C  1S         -0.01187   0.00130   0.00096  -0.00329   0.00147
  29        2S          0.01652  -0.00191  -0.00146   0.00090   0.00079
  30        2PX        -0.11715  -0.00635  -0.00074   0.00053   0.00358
  31        2PY        -0.21220  -0.00808   0.00574  -0.00142  -0.00085
  32        2PZ        -0.00720   0.01089  -0.31947   0.33019   0.22265
  33        3S          0.02935  -0.00203  -0.00233   0.02769  -0.02097
  34        3PX        -0.08026  -0.00027   0.00293   0.00370   0.00508
  35        3PY        -0.04747  -0.00381   0.00238  -0.00674  -0.00614
  36        3PZ        -0.00498  -0.01305  -0.33973   0.48893   0.38838
  37 5   C  1S          0.01865  -0.00298   0.00140   0.00440   0.00182
  38        2S         -0.01649   0.00452  -0.00082  -0.00529   0.00241
  39        2PX         0.21533   0.01838  -0.00511  -0.00655   0.00683
  40        2PY         0.13506   0.00624  -0.00370   0.00293  -0.00853
  41        2PZ        -0.01377   0.25543  -0.24314  -0.16158  -0.33872
  42        3S         -0.12474  -0.00134  -0.01136  -0.02623  -0.03996
  43        3PX         0.17292   0.00873  -0.00908  -0.00815  -0.00244
  44        3PY         0.08871   0.00880   0.00090  -0.00650  -0.01659
  45        3PZ        -0.00914   0.27113  -0.27169  -0.26056  -0.63173
  46 6   H  1S          0.01895   0.00030   0.00109   0.00181   0.00991
  47        2S          0.03862  -0.00003  -0.00159   0.01007   0.03530
  48 7   H  1S          0.13338   0.00583  -0.00002  -0.00452   0.00361
  49        2S          0.13687   0.00952   0.00100  -0.01477   0.02302
  50 8   H  1S          0.07307   0.00307  -0.00629  -0.01611   0.01894
  51        2S          0.07762   0.00342  -0.01160  -0.05525   0.08667
  52 9   H  1S         -0.00633  -0.00052   0.00267  -0.01044   0.02530
  53        2S          0.01727   0.00070   0.00747  -0.02858   0.09742
                          21        22        23        24        25
                           V         V         V         V         V
     Eigenvalues --     0.13280   0.14927   0.16755   0.19631   0.20654
   1 1   C  1S          0.00280   0.03666  -0.07206  -0.11098   0.06397
   2        2S          0.01043  -0.02713   0.06474   0.07474  -0.01331
   3        2PX        -0.04022  -0.14535  -0.03541   0.07183   0.01447
   4        2PY        -0.07696  -0.08239   0.01005   0.13743  -0.07960
   5        2PZ        -0.03107  -0.02526   0.00601   0.03414  -0.01321
   6        3S         -0.20471  -0.46871   0.55517   1.35778  -1.15538
   7        3PX        -0.00950  -0.55617   0.14951   0.43933   0.37113
   8        3PY        -0.17523  -0.26673   0.20879   0.62266  -0.20391
   9        3PZ        -0.08496  -0.07758   0.00528   0.11146  -0.06218
  10 2   C  1S          0.11834  -0.03866   0.07248  -0.00392   0.03952
  11        2S         -0.08582   0.03346  -0.05495  -0.01274  -0.04481
  12        2PX        -0.00670  -0.27349  -0.15464   0.02977   0.21288
  13        2PY         0.16190  -0.04359   0.14134  -0.10983   0.06568
  14        2PZ         0.04328   0.00404   0.02174  -0.01158   0.00725
  15        3S         -1.18229   0.11799  -0.77954   0.29075  -0.18191
  16        3PX        -0.16449  -0.57128  -0.65036  -0.11695   0.50721
  17        3PY         0.46442  -0.18535   0.50124  -0.24121   0.23030
  18        3PZ         0.10150   0.02750   0.04635  -0.06112   0.02405
  19 3   O  1S         -0.05850   0.08835  -0.01444   0.00920  -0.01997
  20        2S          0.04570  -0.06056   0.00954  -0.00535   0.00545
  21        2PX         0.06622  -0.14372   0.03920  -0.04486   0.21464
  22        2PY         0.03768  -0.12487   0.01937  -0.00063  -0.09097
  23        2PZ        -0.00676  -0.00905  -0.00478   0.00304   0.00469
  24        3S          0.45322  -0.75518   0.13212  -0.08119   0.22006
  25        3PX         0.09840  -0.25081   0.02139  -0.14982   0.41966
  26        3PY         0.04391  -0.22695   0.05646   0.01490  -0.13388
  27        3PZ        -0.01086  -0.01879  -0.00871   0.00668   0.01079
  28 4   C  1S          0.09359  -0.01706  -0.06285   0.00673  -0.10631
  29        2S         -0.06531   0.01286   0.04746   0.01527   0.07181
  30        2PX         0.13325   0.02553  -0.24188   0.12435   0.01393
  31        2PY         0.06874  -0.10070   0.02710   0.03346   0.03332
  32        2PZ        -0.00183  -0.00514  -0.00326  -0.00068  -0.00690
  33        3S         -0.98877   0.04180   0.76402  -0.41060   1.22119
  34        3PX         0.46781  -0.10434  -0.83089   0.13478  -0.05750
  35        3PY         0.17422  -0.37836   0.14214   0.10869   0.21875
  36        3PZ        -0.00559  -0.01878  -0.00749  -0.00011  -0.01982
  37 5   C  1S          0.00343   0.05509   0.04810   0.10780   0.05177
  38        2S          0.00485  -0.03940  -0.04764  -0.07475  -0.04188
  39        2PX         0.01139  -0.04859  -0.05550  -0.04584   0.26372
  40        2PY        -0.07276  -0.10539   0.08723  -0.14920  -0.07701
  41        2PZ         0.01541   0.01354   0.00274   0.00092   0.00935
  42        3S         -0.16433  -0.62841  -0.26715  -1.31142  -0.70555
  43        3PX         0.02185  -0.12581  -0.06863  -0.10377   1.20144
  44        3PY        -0.15807  -0.44909   0.01715  -0.80765  -0.41663
  45        3PZ         0.03568   0.05271   0.00365  -0.00782   0.02059
  46 6   H  1S          0.02260   0.07547  -0.00111   0.04037   0.03368
  47        2S          0.31891   0.87317   0.01792   1.48968   1.28243
  48 7   H  1S          0.09759  -0.03665  -0.06565  -0.01535   0.01747
  49        2S          1.13880  -0.20052  -1.31763   0.37368  -0.55959
  50 8   H  1S          0.09733   0.00575   0.07400   0.01582  -0.02475
  51        2S          1.19022   0.27406   1.32119  -0.26007  -0.14416
  52 9   H  1S          0.00951   0.10634  -0.03190  -0.02509  -0.05086
  53        2S          0.26487   1.12035  -0.53051  -1.44151   0.28643
                          26        27        28        29        30
                           V         V         V         V         V
     Eigenvalues --     0.23788   0.32883   0.39991   0.44060   0.68448
   1 1   C  1S         -0.02672   0.06425   0.03605  -0.12249   0.04112
   2        2S          0.01450  -0.02986   0.00591   0.02331  -0.00300
   3        2PX         0.24999   0.13899  -0.09286  -0.22866   0.36007
   4        2PY        -0.10324   0.08017   0.25459  -0.10873  -0.48470
   5        2PZ         0.01481   0.00750   0.00048  -0.01886   0.01737
   6        3S          0.59429  -0.90637  -1.05221   2.63768   0.06131
   7        3PX         1.11627   0.37398  -0.28860  -2.02687  -0.21626
   8        3PY        -0.62934   1.02466   1.77700  -1.00224   0.66461
   9        3PZ         0.05886  -0.01304  -0.05004   0.06602  -0.01720
  10 2   C  1S          0.06358  -0.07450  -0.04154   0.09159   0.00899
  11        2S         -0.04006   0.01009  -0.00102  -0.04354   0.02991
  12        2PX        -0.10638  -0.11571   0.09225   0.28544   0.40051
  13        2PY        -0.07404   0.21668   0.17472   0.00832   0.45403
  14        2PZ         0.00750  -0.00548  -0.00082  -0.00506   0.03350
  15        3S         -1.00791   1.17362   1.25964  -1.56855   0.41964
  16        3PX        -0.47439  -0.63904   0.51771   0.82075  -0.55661
  17        3PY        -0.47850   0.93450   1.63699  -1.40520  -0.43445
  18        3PZ         0.02686  -0.05689  -0.05419   0.06399  -0.03018
  19 3   O  1S          0.08360   0.05466   0.02201   0.01315   0.00022
  20        2S         -0.03961  -0.02689  -0.00687  -0.00281   0.03227
  21        2PX         0.13990  -0.11391   0.22895   0.20141   0.14391
  22        2PY        -0.10117  -0.14965  -0.10062  -0.07597   0.06328
  23        2PZ        -0.01085  -0.00080   0.00825   0.00583  -0.00118
  24        3S         -0.89788  -0.66670  -0.32692  -0.19445  -0.17991
  25        3PX         0.27120  -0.27787   0.57939   0.38887  -0.11374
  26        3PY        -0.29100  -0.42195  -0.29907  -0.20181   0.01913
  27        3PZ        -0.02214  -0.00373   0.01390   0.00064  -0.00092
  28 4   C  1S         -0.04200  -0.07543   0.01039  -0.09624   0.02813
  29        2S          0.03751  -0.00035  -0.02151   0.03760  -0.03241
  30        2PX         0.13930   0.23624   0.01563   0.21017  -0.02967
  31        2PY        -0.22122   0.21239  -0.15465  -0.13609  -0.38595
[...]
               1          2          3          4          5          6
     1  C    5.218430   0.468229  -0.066219  -0.122636   0.421615  -0.026156
     2  C    0.468229   5.117397   0.286735  -0.154561  -0.130394   0.004233
     3  O   -0.066219   0.286735   8.096658   0.280940  -0.066208   0.001807
     4  C   -0.122636  -0.154561   0.280940   5.043490   0.465134  -0.026452
     5  C    0.421615  -0.130394  -0.066208   0.465134   5.242270   0.391530
     6  H   -0.026156   0.004233   0.001807  -0.026452   0.391530   0.469498
     7  H    0.002631   0.004668  -0.031126   0.379153  -0.038933  -0.000027
     8  H   -0.038159   0.380310  -0.022580   0.003394   0.002603  -0.000029
     9  H    0.385358  -0.031434   0.001854   0.004419  -0.025560  -0.000804
               7          8          9
     1  C    0.002631  -0.038159   0.385358
     2  C    0.004668   0.380310  -0.031434
     3  O   -0.031126  -0.022580   0.001854
     4  C    0.379153   0.003394   0.004419
     5  C   -0.038933   0.002603  -0.025560
     6  H   -0.000027  -0.000029  -0.000804
     7  H    0.471032  -0.000052  -0.000025
     8  H   -0.000052   0.462357  -0.000304
     9  H   -0.000025  -0.000304   0.472960
 Mulliken charges:
               1
     1  C   -0.243094
     2  C    0.054818
     3  O   -0.481862
     4  C    0.127120
     5  C   -0.262057
     6  H    0.186400
     7  H    0.212680
     8  H    0.212459
     9  H    0.193535
 Sum of Mulliken charges =   0.00000
 Mulliken charges with hydrogens summed into heavy atoms:
               1
     1  C   -0.049559
     2  C    0.267277
     3  O   -0.481862
     4  C    0.339801
     5  C   -0.075656
 Electronic spatial extent (au):  <R**2>=            296.9442
 Charge=              0.0000 electrons
 Dipole moment (field-independent basis, Debye):
    X=              0.2400    Y=              0.5805    Z=              0.0088  Tot=              0.6282
 Quadrupole moment (field-independent basis, Debye-Ang):
   XX=            -24.0066   YY=            -27.7080   ZZ=            -32.0617
   XY=             -1.3009   XZ=              0.0475   YZ=              0.1116
 Traceless Quadrupole moment (field-independent basis, Debye-Ang):
   XX=              3.9188   YY=              0.2174   ZZ=             -4.1362
   XY=             -1.3009   XZ=              0.0475   YZ=              0.1116
 Octapole moment (field-independent basis, Debye-Ang**2):
  XXX=             -3.0424  YYY=              0.6127  ZZZ=             -0.1255  XYY=              2.7026
  XXY=             -2.5333  XXZ=              0.0828  XZZ=             -1.2656  YZZ=             -3.2830
  YYZ=             -0.1054  XYZ=              0.3692
 Hexadecapole moment (field-independent basis, Debye-Ang**3):
 XXXX=           -155.3556 YYYY=           -159.1336 ZZZZ=            -31.4455 XXXY=              3.2198
 XXXZ=              0.4229 YYYX=             -6.5553 YYYZ=              0.2320 ZZZX=              0.1045
 ZZZY=              0.2531 XXYY=            -50.4646 XXZZ=            -39.6071 YYZZ=            -36.0268
 XXYZ=              0.7135 YYXZ=              0.0784 ZZXY=              1.3762
 N-N= 1.589292250822D+02 E-N=-8.501230883365D+02  KE= 2.266539163799D+02
 Orbital energies and kinetic energies (alpha):
                                 1                 2
   1         O               -19.126133         28.828837
   2         O               -10.186224         15.802201
   3         O               -10.181103         15.803284
   4         O               -10.132367         15.806613
   5         O               -10.128134         15.807915
   6         O                -1.142494          2.574165
   7         O                -0.794041          1.696656
   8         O                -0.742584          1.807278
   9         O                -0.609320          1.653152
  10         O                -0.562777          1.472237
  11         O                -0.544439          1.235522
  12         O                -0.457328          1.576031
  13         O                -0.452799          1.628177
  14         O                -0.414706          1.354687
  15         O                -0.404923          1.641705
  16         O                -0.358309          1.984477
  17         O                -0.275092          1.430997
  18         O                -0.224237          1.223025
  19         V                 0.015936          1.852889
  20         V                 0.062142          1.489852
  21         V                 0.132796          1.420569
  22         V                 0.149273          1.673987
  23         V                 0.167546          1.267040
  24         V                 0.196310          1.285756
  25         V                 0.206543          1.778986
  26         V                 0.237878          1.824325
  27         V                 0.328833          2.057452
  28         V                 0.399907          1.850253
  29         V                 0.440602          2.749793
  30         V                 0.684481          2.641296
  31         V                 0.700352          2.518003
  32         V                 0.713249          2.693952
  33         V                 0.730288          2.528740
  34         V                 0.769476          2.522491
  35         V                 0.785211          2.624600
  36         V                 0.787620          2.611864
  37         V                 0.805600          2.708983
  38         V                 0.836174          2.558698
  39         V                 0.944085          2.899210
  40         V                 0.963930          3.132745
  41         V                 1.018615          3.086657
  42         V                 1.045043          3.048501
  43         V                 1.179272          2.683090
  44         V                 1.210478          2.882554
  45         V                 1.290821          2.465411
  46         V                 1.375404          2.956588
  47         V                 1.499789          4.914439
  48         V                 1.578733          3.451741
  49         V                 1.622539          3.656368
  50         V                 1.718985          4.397270
  51         V                 1.937357          3.979631
  52         V                 2.078387          4.253002
  53         V                 3.195873          6.823765
 Total kinetic energy from orbitals= 2.266539163799D+02
 No NMR shielding tensors so no spin-rotation constants.
 Leave Link  601 at Tue Dec 15 16:15:29 2015, MaxMem=    33554432 cpu:         0.1
 (Enter /home/Applications/g09/g09/l701.exe)
 Compute integral first derivatives.
 ... and contract with generalized density number  6.
 Leave Link  701 at Tue Dec 15 16:15:29 2015, MaxMem=    33554432 cpu:         0.1
 (Enter /home/Applications/g09/g09/l702.exe)
 L702 exits ... SP integral derivatives will be done elsewhere.
 Leave Link  702 at Tue Dec 15 16:15:29 2015, MaxMem=    33554432 cpu:         0.0
 (Enter /home/Applications/g09/g09/l703.exe)
 Compute integral first derivatives, UseDBF=F ICtDFT=           0.
 Integral derivatives from FoFJK, PRISM(SPDF).
 Calling FoFJK, ICntrl=  10005127 FMM=F ISym2X=0 I1Cent= 0 IOpClX= 0 NMat=1 NMatS=1 NMatT=0.
 FoFJK:  IHMeth= 1 ICntrl=10005127 DoSepK=F KAlg= 0 I1Cent=   0 FoldK=F
 IRaf=         0 NMat=   1 IRICut=       1 DoRegI=T DoRafI=F ISym2E= 0.
 FoFCou: FMM=F IPFlag=           0 FMFlag=      100000 FMFlg1=         800
         NFxFlg=           0 DoJE=F BraDBF=F KetDBF=F FulRan=T
         wScrn=  0.000000 ICntrl=10005127 IOpCl=  0 I1Cent=           0 NGrid=           0
         NMat0=    1 NMatS0=      1 NMatT0=    0 NMatD0=    1 NMtDS0=    0 NMtDT0=    0
 Symmetry not used in FoFCou.
 Leave Link  703 at Tue Dec 15 16:15:31 2015, MaxMem=    33554432 cpu:         1.6
 (Enter /home/Applications/g09/g09/l716.exe)
 Dipole        =-4.26466907D-01 4.84898381D-01-2.39258074D-03
 ***** Axes restored to original set *****
 -------------------------------------------------------------------
 Center     Atomic                   Forces (Hartrees/Bohr)
 Number     Number              X              Y              Z
 -------------------------------------------------------------------
      1        6           0.040160109    0.010135393   -0.008003968
      2        6          -0.016463206   -0.084278710    0.003224690
      3        8          -0.063766331   -0.008446877   -0.000995174
      4        6           0.017348202    0.100201328    0.003018098
      5        6          -0.046320274   -0.043219782    0.001029733
      6        1           0.036380830    0.030753627   -0.000802184
      7        1           0.006351332   -0.016928809   -0.001307083
      8        1           0.005970646    0.024445692    0.000135512
      9        1           0.020338691   -0.012661862    0.003700375
 -------------------------------------------------------------------
 Cartesian Forces:  Max     0.100201328 RMS     0.034149433
 Z-matrix is all fixed cartesians, so copy forces.
 Force constants in Cartesian coordinates: 
                1             2             3             4             5 
      1  0.874004D+00
      2 -0.610203D-01  0.747136D+00
      3  0.118433D-02 -0.101054D-01  0.172386D+00
      4 -0.452555D+00 -0.881933D-01  0.234826D-01  0.831522D+00
      5 -0.685911D-01 -0.198645D+00  0.739090D-02  0.118101D-01  0.807373D+00
      6  0.248310D-01  0.626549D-02 -0.848686D-01 -0.728083D-02  0.302454D-02
      7 -0.781554D-02  0.280298D-01 -0.138187D-02 -0.261541D+00  0.140137D+00
      8 -0.567669D-02  0.204025D-01 -0.679018D-03  0.185345D+00 -0.335628D+00
      9  0.135966D-02 -0.293012D-02  0.752704D-02 -0.103033D-01  0.946012D-02
     10  0.743195D-02 -0.113984D-03  0.864071D-04  0.247846D-01  0.181324D-01
     11  0.320937D-01 -0.509918D-03 -0.236698D-03 -0.186524D-01 -0.136517D-01
     12  0.178393D-02 -0.341691D-03  0.104218D-02  0.124470D-02  0.107076D-02
     13 -0.157702D+00  0.685690D-02 -0.318607D-03  0.893899D-02 -0.327472D-01
     14 -0.125306D-01 -0.348239D+00 -0.121045D-01 -0.121280D-03  0.407887D-03
     15  0.545289D-04 -0.167782D-01 -0.671294D-01 -0.579335D-03  0.324886D-02
     16  0.185633D-01 -0.286090D-03 -0.373937D-03  0.102227D-04 -0.629533D-05
     17 -0.230504D-01  0.336086D-03  0.976676D-03 -0.680916D-05  0.419321D-05
     18 -0.261097D-02 -0.542915D-03  0.156506D-01  0.177709D-03 -0.109437D-03
     19  0.000000D+00 -0.115335D-05  0.308432D-04  0.352723D-05  0.000000D+00
     20  0.000000D+00  0.000000D+00 -0.734526D-05  0.297153D-05  0.000000D+00
     21  0.167202D-05 -0.133676D-03  0.357480D-02 -0.217959D-03  0.000000D+00
     22  0.679927D-02 -0.250042D-01 -0.211192D-02 -0.145869D+00 -0.873768D-01
     23 -0.320895D-02  0.115143D-01 -0.533578D-03 -0.839269D-01 -0.282348D+00
     24  0.000000D+00  0.421788D-02  0.225412D-01 -0.870530D-02 -0.201436D-01
     25 -0.288726D+00  0.139732D+00 -0.205979D-01 -0.529395D-02  0.186414D-01
     26  0.141984D+00 -0.231995D+00  0.152989D-01 -0.625745D-02  0.224871D-01
     27 -0.266050D-01  0.203486D-01 -0.707236D-01  0.218168D-02 -0.394175D-02
                6             7             8             9            10 
      6  0.163686D+00
      7 -0.664165D-02  0.580744D+00
      8  0.694169D-02  0.878872D-01  0.769874D+00
      9 -0.452880D-01  0.158356D-01  0.360059D-02  0.554114D-01
     10  0.904448D-03 -0.348130D+00 -0.271038D+00 -0.940165D-02  0.856275D+00
     11 -0.649089D-03 -0.227529D+00 -0.461334D+00 -0.981390D-02  0.994831D-01
     12 -0.486181D-03 -0.880096D-02 -0.106772D-01 -0.468442D-01  0.489947D-02
     13 -0.212566D-02 -0.673522D-02  0.503998D-02 -0.756572D-04 -0.388135D+00
     14  0.523694D-04 -0.290882D-01  0.218642D-01  0.170262D-03  0.623735D-01
     15 -0.169705D-02 -0.116379D-02  0.247054D-03  0.104276D-01  0.363923D-02
     16  0.163965D-03  0.000000D+00 -0.169478D-05  0.609482D-04 -0.432191D-02
     17 -0.109214D-03  0.000000D+00 -0.219239D-05  0.788434D-04  0.535148D-02
     18  0.285034D-02  0.125915D-04 -0.130573D-03  0.469572D-02  0.148292D-03
     19 -0.102977D-03  0.225219D-01 -0.169258D-01  0.170727D-03 -0.147915D+00
     20 -0.867538D-04  0.105063D-01 -0.789513D-02  0.561632D-04  0.858075D-01
     21  0.636331D-02  0.689178D-03 -0.617518D-03  0.386619D-02 -0.139288D-03
     22 -0.697600D-02  0.209521D-01  0.153663D-01  0.227768D-02  0.106630D-04
     23 -0.145812D-01 -0.997268D-02 -0.732161D-02 -0.138973D-02  0.434292D-05
     24 -0.616773D-01  0.124315D-02  0.102413D-02  0.463670D-02 -0.138097D-03
     25 -0.277227D-02  0.283279D-05  0.396591D-05  0.759307D-04  0.000000D+00
     26 -0.857877D-03  0.286435D-04  0.401010D-04  0.767766D-03  0.000000D+00
     27  0.211176D-01  0.207714D-03  0.290800D-03  0.556761D-02  0.119518D-05
               11            12            13            14            15 
     11  0.923642D+00
     12  0.135914D-01  0.155585D+00
     13  0.423424D-01  0.405377D-03  0.837147D+00
     14 -0.182029D+00 -0.150766D-02  0.110989D+00  0.748166D+00
     15 -0.198591D-02 -0.768331D-01 -0.106739D-01  0.956819D-02  0.162414D+00
     16 -0.187478D-01  0.787995D-03 -0.317182D+00 -0.156216D+00  0.733208D-02
     17  0.231910D-01 -0.393251D-03 -0.157520D+00 -0.251354D+00  0.337231D-02
     18 -0.557319D-04  0.177053D-01  0.937133D-02  0.465636D-02 -0.659556D-01
     19  0.909976D-01  0.315267D-03  0.575788D-02  0.249333D-01  0.544636D-04
     20 -0.289311D+00 -0.152536D-02  0.268608D-02  0.116359D-01 -0.868410D-04
     21 -0.754330D-03 -0.567564D-01  0.162731D-03 -0.229422D-04  0.184598D-01
     22  0.000000D+00 -0.311305D-03  0.261447D-04 -0.161004D-04  0.419343D-03
     23  0.000000D+00 -0.126791D-03 -0.342336D-04  0.210817D-04 -0.549084D-03
     24  0.000000D+00  0.403175D-02  0.322508D-03 -0.198606D-03  0.517282D-02
     25  0.121336D-04 -0.324481D-03  0.178845D-01 -0.323394D-03  0.917365D-03
     26  0.337624D-05 -0.902884D-04  0.223871D-01 -0.472680D-03  0.296367D-02
     27 -0.955529D-04  0.255530D-02  0.293186D-02 -0.613465D-03  0.151411D-01
               16            17            18            19            20 
     16  0.302897D+00
     17  0.175249D+00  0.227831D+00
     18 -0.762434D-02 -0.399257D-02  0.360653D-01
     19  0.000000D+00  0.000000D+00 -0.555375D-04  0.119632D+00
     20  0.000000D+00  0.000000D+00  0.132261D-04 -0.990030D-01  0.285570D+00
     21 -0.835482D-04 -0.108079D-03 -0.643692D-02 -0.412786D-03  0.163691D-02
     22  0.000000D+00  0.000000D+00  0.000000D+00  0.000000D+00  0.000000D+00
     23  0.000000D+00  0.000000D+00  0.000000D+00  0.000000D+00  0.000000D+00
     24  0.000000D+00  0.000000D+00  0.000000D+00  0.000000D+00  0.000000D+00
     25  0.334177D-04 -0.222590D-04  0.580927D-03  0.000000D+00  0.000000D+00
     26  0.929865D-05 -0.619366D-05  0.161646D-03  0.000000D+00  0.000000D+00
     27 -0.263166D-03  0.175290D-03 -0.457482D-02  0.000000D+00  0.000000D+00
               21            22            23            24            25 
     21  0.309292D-01
     22  0.000000D+00  0.118091D+00
     23  0.000000D+00  0.971261D-01  0.278010D+00
     24  0.000000D+00  0.739310D-02  0.162757D-01  0.338174D-01
     25  0.000000D+00 -0.942234D-05  0.123375D-04 -0.116229D-03  0.276109D+00
     26  0.000000D+00 -0.952731D-04  0.124750D-03 -0.117524D-02 -0.158057D+00
     27  0.000000D+00 -0.690892D-03  0.904648D-03 -0.852251D-02  0.222366D-01
               26            27 
     26  0.209819D+00
     27 -0.170686D-01  0.394393D-01
 Leave Link  716 at Tue Dec 15 16:15:31 2015, MaxMem=    33554432 cpu:         0.0
 (Enter /home/Applications/g09/g09/l103.exe)

 GradGradGradGradGradGradGradGradGradGradGradGradGradGradGradGradGradGrad
 Berny optimization.
 Search for a local minimum.
 Step number   1 out of a maximum of    2
 All quantities printed in internal units (Hartrees-Bohrs-Radians)
 Second derivative matrix not updated -- first step.
 ITU=  0
     Eigenvalues ---    0.01373   0.02621   0.07014   0.07099   0.07434
     Eigenvalues ---    0.07777   0.11029   0.12659   0.14975   0.22754
     Eigenvalues ---    0.24363   0.26109   0.32171   0.41315   0.59580
     Eigenvalues ---    0.85988   1.09068   1.27127   1.31484   1.43671
     Eigenvalues ---    1.66896
 Quadratic step=3.119D-01 exceeds max=3.000D-01 adjusted using Lamda=-5.895D-03.
 Angle between NR and scaled steps=   2.21 degrees.
 Angle between quadratic step and forces=  48.70 degrees.
 Linear search not attempted -- first point.
 TrRot= -0.012981 -0.005533  0.003737 -0.180332  0.003323  0.180206
 Variable       Old X    -DE/DX   Delta X   Delta X   Delta X     New X
                                 (Linear)    (Quad)   (Total)
    X1        1.85389   0.04016   0.00000   0.08232   0.06887   1.92276
    Y1       -1.36052   0.01014   0.00000  -0.06222  -0.06794  -1.42846
    Z1       -0.07272  -0.00800   0.00000  -0.01195  -0.01539  -0.08811
    X2       -0.67156  -0.01646   0.00000  -0.00567  -0.01874  -0.69030
    Y2       -2.05829  -0.08428   0.00000  -0.09673  -0.10221  -2.16050
    Z2        0.05794   0.00322   0.00000  -0.00488  -0.00021   0.05773
    X3       -2.22612  -0.06377   0.00000  -0.06256  -0.07542  -2.30154
    Y3        0.06925  -0.00845   0.00000   0.02260   0.01734   0.08659
    Z3        0.00481  -0.00100   0.00000   0.02450   0.03578   0.04059
    X4       -0.74594   0.01735   0.00000  -0.03504  -0.04755  -0.79349
    Y4        2.03934   0.10020   0.00000   0.12448   0.11901   2.15835
    Z4        0.05563   0.00302   0.00000   0.00299   0.01057   0.06620
    X5        1.89898  -0.04632   0.00000  -0.04303  -0.05575   1.84323
    Y5        1.42860  -0.04322   0.00000  -0.02877  -0.03455   1.39405
    Z5        0.03155   0.00103   0.00000  -0.00240  -0.00390   0.02765
    X6        3.39641   0.03638   0.00000   0.03908   0.02640   3.42281
    Y6        2.63904   0.03075   0.00000   0.03922   0.03326   2.67230
    Z6       -0.00821  -0.00080   0.00000   0.00282  -0.00308  -0.01129
    X7       -1.62867   0.00635   0.00000   0.00624  -0.00611  -1.63478
    Y7        3.93086  -0.01693   0.00000   0.08255   0.07719   4.00806
    Z7        0.06713  -0.00131   0.00000  -0.03004  -0.01861   0.04852
    X8       -1.56593   0.00597   0.00000  -0.03810  -0.05191  -1.61784
    Y8       -3.95336   0.02445   0.00000   0.00474  -0.00053  -3.95390
    Z8       -0.07072   0.00014   0.00000  -0.03201  -0.02538  -0.09609
    X9        3.38180   0.02034   0.00000   0.17319   0.16021   3.54201
    Y9       -2.60080  -0.01266   0.00000  -0.03552  -0.04156  -2.64236
    Z9        0.07747   0.00370   0.00000   0.02966   0.02021   0.09768
         Item               Value     Threshold  Converged?
 Maximum Force            0.100201     0.000450     NO 
 RMS     Force            0.034149     0.000300     NO 
 Maximum Displacement     0.160209     0.001800     NO 
 RMS     Displacement     0.057029     0.001200     NO 
 Predicted change in Energy=-1.784290D-02
 GradGradGradGradGradGradGradGradGradGradGradGradGradGradGradGradGradGrad

 Leave Link  103 at Tue Dec 15 16:15:31 2015, MaxMem=    33554432 cpu:         0.0
 (Enter /home/Applications/g09/g09/l9999.exe)
 1\1\GINC-DUSTIN-DESKTOP\Force\RB3LYP-FC\3-21G\C4H4O1\DUSTIN\15-Dec-201
 5\0\\#P B3LYP/3-21G CIS(Singlets,NStates=15) pop(full) force\\FuranDFT
 \\0,1\C,0.981038,-0.719956,-0.038484\C,-0.355373,-1.089199,0.03066\O,-
 1.178013,0.036646,0.002547\C,-0.394732,1.079171,0.029436\C,1.004896,0.
 755981,0.016696\H,1.797302,1.396519,-0.004344\H,-0.861854,2.080124,0.0
 35523\H,-0.828656,-2.09203,-0.037421\H,1.789573,-1.376284,0.040996\\Ve
 rsion=ES64L-G09RevD.01\State=1-A\HF=-228.7347414\RMSD=3.909e-09\RMSF=3
 .415e-02\Dipole=0.3224723,0.5594793,0.0008161\PG=C01 [X(C4H4O1)]\\@


 RESEARCH IS WHAT I AM DOING WHEN I DON'T KNOW WHAT I AM DOING.
     -- WERNER VON BRAUN
 Job cpu time:       0 days  0 hours  0 minutes 50.4 seconds.
 File lengths (MBytes):  RWF=     14 Int=      0 D2E=      0 Chk=      3 Scr=      1
 Normal termination of Gaussian 09 at Tue Dec 15 16:15:31 2015.
