 Entering Gaussian System, Link 0=g09
 Input=FuranAM1Best1.com
 Output=FuranAM1Best1.log
 Initial command:
 /home/Applications/g09/g09/l1.exe "/home/Applications/g09/scratch/Gau-23876.inp" -scrdir="/home/Applications/g09/scratch/"
 Entering Link 1 = /home/Applications/g09/g09/l1.exe PID=     23878.
  
 Copyright (c) 1988,1990,1992,1993,1995,1998,2003,2009,2013,
            Gaussian, Inc.  All Rights Reserved.
  
 This is part of the Gaussian(R) 09 program.  It is based on
 the Gaussian(R) 03 system (copyright 2003, Gaussian, Inc.),
 the Gaussian(R) 98 system (copyright 1998, Gaussian, Inc.),
 the Gaussian(R) 94 system (copyright 1995, Gaussian, Inc.),
 the Gaussian 92(TM) system (copyright 1992, Gaussian, Inc.),
 the Gaussian 90(TM) system (copyright 1990, Gaussian, Inc.),
 the Gaussian 88(TM) system (copyright 1988, Gaussian, Inc.),
 the Gaussian 86(TM) system (copyright 1986, Carnegie Mellon
 University), and the Gaussian 82(TM) system (copyright 1983,
 Carnegie Mellon University). Gaussian is a federally registered
 trademark of Gaussian, Inc.
  
 This software contains proprietary and confidential information,
 including trade secrets, belonging to Gaussian, Inc.
  
 This software is provided under written license and may be
 used, copied, transmitted, or stored only in accord with that
 written license.
  
 The following legend is applicable only to US Government
 contracts under FAR:
  
                    RESTRICTED RIGHTS LEGEND
  
 Use, reproduction and disclosure by the US Government is
 subject to restrictions as set forth in subparagraphs (a)
 and (c) of the Commercial Computer Software - Restricted
 Rights clause in FAR 52.227-19.
  
 Gaussian, Inc.
 340 Quinnipiac St., Bldg. 40, Wallingford CT 06492
  
  
 ---------------------------------------------------------------
 Warning -- This program may not be used in any manner that
 competes with the business of Gaussian, Inc. or will provide
 assistance to any competitor of Gaussian, Inc.  The licensee
 of this program is prohibited from giving any competitor of
 Gaussian, Inc. access to this program.  By using this program,
 the user acknowledges that Gaussian, Inc. is engaged in the
 business of creating and licensing software in the field of
 computational chemistry and represents and warrants to the
 licensee that it is not a competitor of Gaussian, Inc. and that
 it will not use this program in any manner prohibited above.
 ---------------------------------------------------------------
  

 Cite this work as:
 Gaussian 09, Revision D.01,
 M. J. Frisch, G. W. Trucks, H. B. Schlegel, G. E. Scuseria, 
 M. A. Robb, J. R. Cheeseman, G. Scalmani, V. Barone, B. Mennucci, 
 G. A. Petersson, H. Nakatsuji, M. Caricato, X. Li, H. P. Hratchian, 
 A. F. Izmaylov, J. Bloino, G. Zheng, J. L. Sonnenberg, M. Hada, 
 M. Ehara, K. Toyota, R. Fukuda, J. Hasegawa, M. Ishida, T. Nakajima, 
 Y. Honda, O. Kitao, H. Nakai, T. Vreven, J. A. Montgomery, Jr., 
 J. E. Peralta, F. Ogliaro, M. Bearpark, J. J. Heyd, E. Brothers, 
 K. N. Kudin, V. N. Staroverov, T. Keith, R. Kobayashi, J. Normand, 
 K. Raghavachari, A. Rendell, J. C. Burant, S. S. Iyengar, J. Tomasi, 
 M. Cossi, N. Rega, J. M. Millam, M. Klene, J. E. Knox, J. B. Cross, 
 V. Bakken, C. Adamo, J. Jaramillo, R. Gomperts, R. E. Stratmann, 
 O. Yazyev, A. J. Austin, R. Cammi, C. Pomelli, J. W. Ochterski, 
 R. L. Martin, K. Morokuma, V. G. Zakrzewski, G. A. Voth, 
 P. Salvador, J. J. Dannenberg, S. Dapprich, A. D. Daniels, 
 O. Farkas, J. B. Foresman, J. V. Ortiz, J. Cioslowski, 
 and D. J. Fox, Gaussian, Inc., Wallingford CT, 2013.
 
 ******************************************
 Gaussian 09:  ES64L-G09RevD.01 24-Apr-2013
                 1-Dec-2015 
 ******************************************
 ----------------------------
 #P AM1(Input,print) Opt Freq
 ----------------------------
 1/14=-1,18=20,19=15,26=1,38=1/1,3;
 2/9=110,12=2,17=6,18=5,40=1/2;
 3/5=2,16=1,25=1,41=700000,71=1,135=100,136=1/1,2,3;
 4/35=1/1;
 5/5=2,35=1,38=5/2;
 6/7=2,8=2,9=2,10=2,28=1/1;
 7//1,2,3,16;
 1/14=-1,18=20,19=15,26=1/3(2);
 2/9=110/2;
 99//99;
 2/9=110/2;
 3/5=2,16=1,25=1,41=700000,71=1,135=20,136=1/1,2,3;
 4/5=5,16=3,35=1/1;
 5/5=2,35=1,38=5/2;
 7//1,2,3,16;
 1/14=-1,18=20,19=15,26=1/3(-5);
 2/9=110/2;
 6/7=2,8=2,9=2,10=2,19=2,28=1/1;
 99/9=1/99;
 Leave Link    1 at Tue Dec  1 17:37:44 2015, MaxMem=           0 cpu:         0.0
 (Enter /home/Applications/g09/g09/l101.exe)
 -----------------
 AM1-Reparam Input
 -----------------
 Symbolic Z-matrix:
 Charge =  0 Multiplicity = 1
 6                     0.99719  -0.76317  -0.03298 
 6                    -0.31667  -1.12906  -0.02975 
 8                    -1.15448   0.03243  -0.01007 
 6                    -0.3594    1.05761   0.03446 
 6                     1.0037    0.72317  -0.00134 
 1                     1.79462   1.3962   -0.00214 
 1                    -0.82299   2.08928   0.04339 
 1                    -0.86073  -2.08059  -0.02464 
 1                     1.77699  -1.3643    0.03144 
 
 NAtoms=      9 NQM=        9 NQMF=       0 NMMI=      0 NMMIF=      0
                NMic=       0 NMicF=      0.
                    Isotopes and Nuclear Properties:
 (Nuclear quadrupole moments (NQMom) in fm**2, nuclear magnetic moments (NMagM)
  in nuclear magnetons)

  Atom         1           2           3           4           5           6           7           8           9
 IAtWgt=          12          12          16          12          12           1           1           1           1
 AtmWgt=  12.0000000  12.0000000  15.9949146  12.0000000  12.0000000   1.0078250   1.0078250   1.0078250   1.0078250
 NucSpn=           0           0           0           0           0           1           1           1           1
 AtZEff=   0.0000000   0.0000000   0.0000000   0.0000000   0.0000000   0.0000000   0.0000000   0.0000000   0.0000000
 NQMom=    0.0000000   0.0000000   0.0000000   0.0000000   0.0000000   0.0000000   0.0000000   0.0000000   0.0000000
 NMagM=    0.0000000   0.0000000   0.0000000   0.0000000   0.0000000   2.7928460   2.7928460   2.7928460   2.7928460
 AtZNuc=   6.0000000   6.0000000   8.0000000   6.0000000   6.0000000   1.0000000   1.0000000   1.0000000   1.0000000
 Leave Link  101 at Tue Dec  1 17:37:44 2015, MaxMem=    33554432 cpu:         0.0
 (Enter /home/Applications/g09/g09/l103.exe)

 GradGradGradGradGradGradGradGradGradGradGradGradGradGradGradGradGradGrad
 Berny optimization.
 Initialization pass.
                           ----------------------------
                           !    Initial Parameters    !
                           ! (Angstroms and Degrees)  !
 --------------------------                            --------------------------
 ! Name  Definition              Value          Derivative Info.                !
 --------------------------------------------------------------------------------
 ! R1    R(1,2)                  1.3639         estimate D2E/DX2                !
 ! R2    R(1,5)                  1.4867         estimate D2E/DX2                !
 ! R3    R(1,9)                  0.9867         estimate D2E/DX2                !
 ! R4    R(2,3)                  1.4323         estimate D2E/DX2                !
 ! R5    R(2,8)                  1.0961         estimate D2E/DX2                !
 ! R6    R(3,4)                  1.2981         estimate D2E/DX2                !
 ! R7    R(4,5)                  1.404          estimate D2E/DX2                !
 ! R8    R(4,7)                  1.1311         estimate D2E/DX2                !
 ! R9    R(5,6)                  1.0385         estimate D2E/DX2                !
 ! A1    A(2,1,5)              105.8057         estimate D2E/DX2                !
 ! A2    A(2,1,9)              126.7075         estimate D2E/DX2                !
 ! A3    A(5,1,9)              127.1742         estimate D2E/DX2                !
 ! A4    A(1,2,3)              110.242          estimate D2E/DX2                !
 ! A5    A(1,2,8)              135.3213         estimate D2E/DX2                !
 ! A6    A(3,2,8)              114.4299         estimate D2E/DX2                !
 ! A7    A(2,3,4)              106.4173         estimate D2E/DX2                !
 ! A8    A(3,4,5)              113.9315         estimate D2E/DX2                !
 ! A9    A(3,4,7)              118.0058         estimate D2E/DX2                !
 ! A10   A(5,4,7)              127.9819         estimate D2E/DX2                !
 ! A11   A(1,5,4)              103.5595         estimate D2E/DX2                !
 ! A12   A(1,5,6)              130.6343         estimate D2E/DX2                !
 ! A13   A(4,5,6)              125.8062         estimate D2E/DX2                !
 ! D1    D(5,1,2,3)              0.5172         estimate D2E/DX2                !
 ! D2    D(5,1,2,8)           -178.452          estimate D2E/DX2                !
 ! D3    D(9,1,2,3)            174.4377         estimate D2E/DX2                !
 ! D4    D(9,1,2,8)             -4.5315         estimate D2E/DX2                !
 ! D5    D(2,1,5,4)              0.7224         estimate D2E/DX2                !
 ! D6    D(2,1,5,6)           -179.3819         estimate D2E/DX2                !
 ! D7    D(9,1,5,4)           -173.1606         estimate D2E/DX2                !
 ! D8    D(9,1,5,6)              6.7351         estimate D2E/DX2                !
 ! D9    D(1,2,3,4)             -1.6721         estimate D2E/DX2                !
 ! D10   D(8,2,3,4)            177.5318         estimate D2E/DX2                !
 ! D11   D(2,3,4,5)              2.2311         estimate D2E/DX2                !
 ! D12   D(2,3,4,7)            179.225          estimate D2E/DX2                !
 ! D13   D(3,4,5,1)             -1.8981         estimate D2E/DX2                !
 ! D14   D(3,4,5,6)            178.1995         estimate D2E/DX2                !
 ! D15   D(7,4,5,1)           -178.5304         estimate D2E/DX2                !
 ! D16   D(7,4,5,6)              1.5672         estimate D2E/DX2                !
 --------------------------------------------------------------------------------
 Trust Radius=3.00D-01 FncErr=1.00D-07 GrdErr=1.00D-07
 Number of steps in this run=     48 maximum allowed number of steps=    100.
 GradGradGradGradGradGradGradGradGradGradGradGradGradGradGradGradGradGrad

 Leave Link  103 at Tue Dec  1 17:37:44 2015, MaxMem=    33554432 cpu:         0.0
 (Enter /home/Applications/g09/g09/l202.exe)
                          Input orientation:                          
 ---------------------------------------------------------------------
 Center     Atomic      Atomic             Coordinates (Angstroms)
 Number     Number       Type             X           Y           Z
 ---------------------------------------------------------------------
      1          6           0        0.997194   -0.763166   -0.032984
      2          6           0       -0.316673   -1.129059   -0.029745
      3          8           0       -1.154483    0.032429   -0.010065
      4          6           0       -0.359397    1.057615    0.034464
      5          6           0        1.003697    0.723166   -0.001338
      6          1           0        1.794618    1.396197   -0.002135
      7          1           0       -0.822988    2.089277    0.043394
      8          1           0       -0.860725   -2.080588   -0.024641
      9          1           0        1.776987   -1.364297    0.031441
 ---------------------------------------------------------------------
                    Distance matrix (angstroms):
                    1          2          3          4          5
     1  C    0.000000
     2  C    1.363868   0.000000
     3  O    2.294169   1.432259   0.000000
     4  C    2.271592   2.188034   1.298134   0.000000
     5  C    1.486683   2.274845   2.266039   1.403981   0.000000
     6  H    2.302105   3.291691   3.249173   2.180770   1.038522
     7  H    3.384572   3.258741   2.084075   1.131072   2.281455
     8  H    2.277616   1.096096   2.133389   3.178544   3.367143
     9  H    0.986705   2.107722   3.247473   3.229521   2.226332
                    6          7          8          9
     6  H    0.000000
     7  H    2.708190   0.000000
     8  H    4.374859   4.170591   0.000000
     9  H    2.760754   4.322868   2.733815   0.000000
 Stoichiometry    C4H4O
 Framework group  C1[X(C4H4O)]
 Deg. of freedom    21
 Full point group                 C1      NOp   1
 Largest Abelian subgroup         C1      NOp   1
 Largest concise Abelian subgroup C1      NOp   1
                         Standard orientation:                         
 ---------------------------------------------------------------------
 Center     Atomic      Atomic             Coordinates (Angstroms)
 Number     Number       Type             X           Y           Z
 ---------------------------------------------------------------------
      1          6           0        0.982946    0.750156   -0.009956
      2          6           0        0.993420   -0.613653   -0.002846
      3          8           0       -0.346515   -1.119534   -0.007995
      4          6           0       -1.129558   -0.084500    0.018455
      5          6           0       -0.450587    1.144115   -0.007384
      6          1           0       -0.893929    2.083173   -0.019371
      7          1           0       -2.246388   -0.262995    0.006036
      8          1           0        1.769862   -1.386998    0.019514
      9          1           0        1.765250    1.346380    0.068171
 ---------------------------------------------------------------------
 Rotational constants (GHZ):      9.3643006      8.9253850      4.5707796
 Leave Link  202 at Tue Dec  1 17:37:44 2015, MaxMem=    33554432 cpu:         0.0
 (Enter /home/Applications/g09/g09/l301.exe)

 Semi-emprical parameters in input format:
 Method=8 CoreType=1 PeptideFC=0.0120930000 RIJScale=0.5388840000
 ****
 H       
 PQN=1 NValence=1 F0ss=0.5586300000 ZetaOverlap=1.0950750000 U=-0.4119510000
 Beta=-0.2338190000 CoreKO=1.1007910000 KON=0,0,0,0.9764370000 KON=1,0,1,1.1361190000
 KON=0,1,1,1.0139660000 KON=2,1,1,1.2635130000 EISol=-0.4188110042 EHeat=0.0830298228
 Alpha=1.4078420000
 GCore=0.0080140000,1.2229470000,2.2663690000
 GCore=0.0002960000,1.5853770000,2.7382840000
 GCore=-0.0012210000,0.6561060000,3.9519220000
 ****
 C       
 PQN=2,2 NValence=4 F0ss=0.4805700000 F0sp=0.4819370000 F0pp=0.3439950000 F2pp=0.1961420000
 G1sp=0.2678900000
 ZetaOverlap=1.8366850000,1.4875730000
 U=-1.4842670000,-1.3886060000
 Beta=-0.6376780000,-0.3536670000 DDN=0,1,0.9094820000 DDN=1,1,0.8346670000
 CoreKO=1.1045690000 KON=0,0,0,1.0182330000 KON=1,0,1,0.7342900000 KON=0,1,1,1.1944780000
 KON=2,1,1,0.7056720000 EISol=-4.4398989268 EHeat=0.2723305520 Alpha=1.4025920000
 DipHyp=1.8188593534
 GCore=0.0007870000,1.5590290000,2.8992300000
 GCore=0.0031100000,1.3744800000,3.7653660000
 GCore=-0.0013700000,1.3772400000,4.0631190000
 GCore=-0.0000820000,1.5210550000,5.3709760000
 ****
 O       
 PQN=2,2 NValence=6 F0ss=0.7455940000 F0sp=0.5814220000 F0pp=0.4393740000 F2pp=0.2294290000
 G1sp=0.3535640000
 ZetaOverlap=2.7714830000,2.5744810000
 U=-3.8069400000,-2.7329690000
 Beta=-1.1272460000,-1.1587550000 DDN=0,1,0.5172290000 DDN=1,1,0.4110560000
 CoreKO=0.8743200000 KON=0,0,0,0.8886000000 KON=1,0,1,0.5063100000 KON=0,1,1,0.8996480000
 KON=2,1,1,0.5582300000 EISol=-11.6164441184 EHeat=0.0949133088 Alpha=2.3820330000
 DipHyp=1.0343984867
 GCore=0.0192970000,1.5130470000,1.5620930000
 GCore=0.0058890000,1.6294880000,2.3818730000
 ****
 
 Standard basis: VSTO-6G (5D, 7F)
 Ernie: Thresh=  0.10000D-02 Tol=  0.10000D-05 Strict=F.
  NNHCO=     0 NNPyr=     0 NCTC=     0               EPep=         0.000000000
    EC=        68.267961235  ECS=         1.854458140   EG=         0.335208405
   EHC=         0.000000000  EAt=       -31.051283842  AtH=         1.516354808
 EPDDG=         0.000000000  ECC=        70.457627780 EAtT=        32.567638650
 There are    24 symmetry adapted cartesian basis functions of A   symmetry.
 There are    24 symmetry adapted basis functions of A   symmetry.
    24 basis functions,   144 primitive gaussians,    24 cartesian basis functions
    13 alpha electrons       13 beta electrons
       nuclear repulsion energy       103.0252664302 Hartrees.
 IExCor=    0 DFT=F Ex=HF Corr=None ExCW=0 ScaHFX=  1.000000
 ScaDFX=  1.000000  1.000000  1.000000  1.000000 ScalE2=  1.000000  1.000000
 IRadAn=      0 IRanWt=     -1 IRanGd=            0 ICorTp=0 IEmpDi=  4
 Integral buffers will be    131072 words long.
 Regular integral format.
 Two-electron integral symmetry is turned off.
 Leave Link  301 at Tue Dec  1 17:37:44 2015, MaxMem=    33554432 cpu:         0.0
 (Enter /home/Applications/g09/g09/l302.exe)
 Do NDO integrals.
 NPDir=0 NMtPBC=     1 NCelOv=     1 NCel=       1 NClECP=     1 NCelD=      1
         NCelK=      1 NCelE2=     1 NClLst=     1 CellRange=     0.0.
 One-electron integrals computed using PRISM.
 NBasis=    24 RedAO= F EigKep=  0.00D+00  NBF=    24
 NBsUse=    24 1.00D-04 EigRej=  0.00D+00 NBFU=    24
 Leave Link  302 at Tue Dec  1 17:37:44 2015, MaxMem=    33554432 cpu:         0.0
 (Enter /home/Applications/g09/g09/l303.exe)
 DipDrv:  MaxL=1.
 Leave Link  303 at Tue Dec  1 17:37:44 2015, MaxMem=    33554432 cpu:         0.0
 (Enter /home/Applications/g09/g09/l401.exe)
 Simple Huckel Guess.
 JPrj=0 DoOrth=F DoCkMO=F.
 Leave Link  401 at Tue Dec  1 17:37:44 2015, MaxMem=    33554432 cpu:         0.0
 (Enter /home/Applications/g09/g09/l502.exe)
 Closed shell SCF:
 Using DIIS extrapolation, IDIIS=  1040.
 Overlap will be assumed to be unity.
 Two-electron integral symmetry not used.
 Keep J ints in memory in canonical form, NReq=888082.
 IVT=       79475 IEndB=       79475 NGot=    33554432 MDV=    33473473
 LenX=    33473473 LenY=    33472456
 Requested convergence on RMS density matrix=1.00D-08 within 128 cycles.
 Requested convergence on MAX density matrix=1.00D-06.
 Requested convergence on             energy=1.00D-06.
 No special actions if energy rises.
 FoFCou: FMM=F IPFlag=           0 FMFlag=           0 FMFlg1=           0
         NFxFlg=           0 DoJE=F BraDBF=F KetDBF=F FulRan=T
         wScrn=  0.000000 ICntrl=     600 IOpCl=  2 I1Cent=           0 NGrid=           0
         NMat0=    1 NMatS0=     54 NMatT0=    0 NMatD0=    1 NMtDS0=    0 NMtDT0=    0
 Symmetry not used in FoFCou.

 Cycle   1  Pass 1  IDiag  1:
 E=  2.15661294459089    
 DIIS: error= 6.78D-02 at cycle   1 NSaved=   1.
 NSaved= 1 IEnMin= 1 EnMin=  2.15661294459089     IErMin= 1 ErrMin= 6.78D-02
 ErrMax= 6.78D-02  0.00D+00 EMaxC= 1.00D-01 BMatC= 1.68D-01 BMatP= 1.68D-01
 IDIUse=3 WtCom= 3.22D-01 WtEn= 6.78D-01
 Coeff-Com:  0.100D+01
 Coeff-En:   0.100D+01
 Coeff:      0.100D+01
 GapD=    2.000 DampG=2.000 DampE=0.500 DampFc=1.0000 IDamp=-1.
 RMSDP=1.80D-02 MaxDP=1.29D-01              OVMax= 0.00D+00

 Cycle   2  Pass 1  IDiag  1:
 E=  1.84925833935280     Delta-E=       -0.307354605238 Rises=F Damp=F
 DIIS: error= 1.71D-02 at cycle   2 NSaved=   2.
 NSaved= 2 IEnMin= 2 EnMin=  1.84925833935280     IErMin= 2 ErrMin= 1.71D-02
 ErrMax= 1.71D-02  0.00D+00 EMaxC= 1.00D-01 BMatC= 1.14D-02 BMatP= 1.68D-01
 IDIUse=3 WtCom= 8.29D-01 WtEn= 1.71D-01
 Coeff-Com: -0.303D+00 0.130D+01
 Coeff-En:   0.000D+00 0.100D+01
 Coeff:     -0.252D+00 0.125D+01
 RMSDP=6.60D-03 MaxDP=3.79D-02 DE=-3.07D-01 OVMax= 0.00D+00

 Cycle   3  Pass 1  IDiag  3:
 E=  1.82248748117118     Delta-E=       -0.026770858182 Rises=F Damp=F
 DIIS: error= 2.83D-03 at cycle   3 NSaved=   3.
 NSaved= 3 IEnMin= 3 EnMin=  1.82248748117118     IErMin= 3 ErrMin= 2.83D-03
 ErrMax= 2.83D-03  0.00D+00 EMaxC= 1.00D-01 BMatC= 4.13D-04 BMatP= 1.14D-02
 IDIUse=3 WtCom= 9.72D-01 WtEn= 2.83D-02
 Coeff-Com:  0.580D-01-0.389D+00 0.133D+01
 Coeff-En:   0.000D+00 0.000D+00 0.100D+01
 Coeff:      0.564D-01-0.378D+00 0.132D+01
 Gap=     0.415 Goal=   None    Shift=    0.000
 RMSDP=1.86D-03 MaxDP=1.17D-02 DE=-2.68D-02 OVMax= 1.20D-02

 Cycle   4  Pass 1  IDiag  3:
 E=  1.82095994511806     Delta-E=       -0.001527536053 Rises=F Damp=F
 DIIS: error= 1.09D-03 at cycle   4 NSaved=   4.
 NSaved= 4 IEnMin= 4 EnMin=  1.82095994511806     IErMin= 4 ErrMin= 1.09D-03
 ErrMax= 1.09D-03  0.00D+00 EMaxC= 1.00D-01 BMatC= 3.25D-05 BMatP= 4.13D-04
 IDIUse=3 WtCom= 9.89D-01 WtEn= 1.09D-02
 Coeff-Com:  0.103D-02 0.375D-01-0.420D+00 0.138D+01
 Coeff-En:   0.000D+00 0.000D+00 0.000D+00 0.100D+01
 Coeff:      0.102D-02 0.371D-01-0.416D+00 0.138D+01
 Gap=     0.416 Goal=   None    Shift=    0.000
 RMSDP=7.00D-04 MaxDP=5.52D-03 DE=-1.53D-03 OVMax= 5.65D-03

 Cycle   5  Pass 1  IDiag  3:
 E=  1.82079765559180     Delta-E=       -0.000162289526 Rises=F Damp=F
 DIIS: error= 3.28D-04 at cycle   5 NSaved=   5.
 NSaved= 5 IEnMin= 5 EnMin=  1.82079765559180     IErMin= 5 ErrMin= 3.28D-04
 ErrMax= 3.28D-04  0.00D+00 EMaxC= 1.00D-01 BMatC= 2.43D-06 BMatP= 3.25D-05
 IDIUse=3 WtCom= 9.97D-01 WtEn= 3.28D-03
 Coeff-Com: -0.363D-02 0.114D-01 0.464D-01-0.496D+00 0.144D+01
 Coeff-En:   0.000D+00 0.000D+00 0.000D+00 0.000D+00 0.100D+01
 Coeff:     -0.361D-02 0.113D-01 0.462D-01-0.494D+00 0.144D+01
 Gap=     0.415 Goal=   None    Shift=    0.000
 RMSDP=2.42D-04 MaxDP=1.99D-03 DE=-1.62D-04 OVMax= 2.10D-03

 Cycle   6  Pass 1  IDiag  3:
 E=  1.82078390677398     Delta-E=       -0.000013748818 Rises=F Damp=F
 DIIS: error= 4.05D-05 at cycle   6 NSaved=   6.
 NSaved= 6 IEnMin= 6 EnMin=  1.82078390677398     IErMin= 6 ErrMin= 4.05D-05
 ErrMax= 4.05D-05  0.00D+00 EMaxC= 1.00D-01 BMatC= 9.46D-08 BMatP= 2.43D-06
 IDIUse=1 WtCom= 1.00D+00 WtEn= 0.00D+00
 Coeff-Com:  0.204D-02-0.943D-02 0.569D-02 0.146D+00-0.629D+00 0.148D+01
 Coeff:      0.204D-02-0.943D-02 0.569D-02 0.146D+00-0.629D+00 0.148D+01
 Gap=     0.415 Goal=   None    Shift=    0.000
 RMSDP=4.55D-05 MaxDP=3.09D-04 DE=-1.37D-05 OVMax= 4.35D-04

 Cycle   7  Pass 1  IDiag  3:
 E=  1.82078342022490     Delta-E=       -0.000000486549 Rises=F Damp=F
 DIIS: error= 1.01D-05 at cycle   7 NSaved=   7.
 NSaved= 7 IEnMin= 7 EnMin=  1.82078342022490     IErMin= 7 ErrMin= 1.01D-05
 ErrMax= 1.01D-05  0.00D+00 EMaxC= 1.00D-01 BMatC= 3.04D-09 BMatP= 9.46D-08
 IDIUse=1 WtCom= 1.00D+00 WtEn= 0.00D+00
 Coeff-Com: -0.281D-03 0.157D-02-0.263D-02-0.168D-01 0.986D-01-0.387D+00
 Coeff-Com:  0.131D+01
 Coeff:     -0.281D-03 0.157D-02-0.263D-02-0.168D-01 0.986D-01-0.387D+00
 Coeff:      0.131D+01
 Gap=     0.415 Goal=   None    Shift=    0.000
 RMSDP=7.14D-06 MaxDP=4.50D-05 DE=-4.87D-07 OVMax= 7.83D-05

 Cycle   8  Pass 1  IDiag  3:
 E=  1.82078340716559     Delta-E=       -0.000000013059 Rises=F Damp=F
 DIIS: error= 1.23D-06 at cycle   8 NSaved=   8.
 NSaved= 8 IEnMin= 8 EnMin=  1.82078340716559     IErMin= 8 ErrMin= 1.23D-06
 ErrMax= 1.23D-06  0.00D+00 EMaxC= 1.00D-01 BMatC= 8.54D-11 BMatP= 3.04D-09
 IDIUse=1 WtCom= 1.00D+00 WtEn= 0.00D+00
 Coeff-Com:  0.319D-04-0.267D-03 0.989D-03-0.200D-03-0.939D-02 0.674D-01
 Coeff-Com: -0.358D+00 0.130D+01
 Coeff:      0.319D-04-0.267D-03 0.989D-03-0.200D-03-0.939D-02 0.674D-01
 Coeff:     -0.358D+00 0.130D+01
 Gap=     0.415 Goal=   None    Shift=    0.000
 RMSDP=1.06D-06 MaxDP=7.88D-06 DE=-1.31D-08 OVMax= 1.11D-05

 Cycle   9  Pass 1  IDiag  3:
 E=  1.82078340680222     Delta-E=       -0.000000000363 Rises=F Damp=F
 DIIS: error= 3.82D-07 at cycle   9 NSaved=   9.
 NSaved= 9 IEnMin= 9 EnMin=  1.82078340680222     IErMin= 9 ErrMin= 3.82D-07
 ErrMax= 3.82D-07  0.00D+00 EMaxC= 1.00D-01 BMatC= 4.96D-12 BMatP= 8.54D-11
 IDIUse=1 WtCom= 1.00D+00 WtEn= 0.00D+00
 Coeff-Com: -0.632D-05 0.719D-04-0.313D-03 0.228D-03 0.245D-02-0.237D-01
 Coeff-Com:  0.148D+00-0.711D+00 0.158D+01
 Coeff:     -0.632D-05 0.719D-04-0.313D-03 0.228D-03 0.245D-02-0.237D-01
 Coeff:      0.148D+00-0.711D+00 0.158D+01
 Gap=     0.415 Goal=   None    Shift=    0.000
 RMSDP=3.64D-07 MaxDP=3.29D-06 DE=-3.63D-10 OVMax= 4.26D-06

 Cycle  10  Pass 1  IDiag  3:
 E=  1.82078340677411     Delta-E=       -0.000000000028 Rises=F Damp=F
 DIIS: error= 6.88D-08 at cycle  10 NSaved=  10.
 NSaved=10 IEnMin=10 EnMin=  1.82078340677411     IErMin=10 ErrMin= 6.88D-08
 ErrMax= 6.88D-08  0.00D+00 EMaxC= 1.00D-01 BMatC= 1.39D-13 BMatP= 4.96D-12
 IDIUse=1 WtCom= 1.00D+00 WtEn= 0.00D+00
 Coeff-Com:  0.195D-05-0.246D-04 0.111D-03-0.934D-04-0.812D-03 0.806D-02
 Coeff-Com: -0.508D-01 0.255D+00-0.673D+00 0.146D+01
 Coeff:      0.195D-05-0.246D-04 0.111D-03-0.934D-04-0.812D-03 0.806D-02
 Coeff:     -0.508D-01 0.255D+00-0.673D+00 0.146D+01
 Gap=     0.415 Goal=   None    Shift=    0.000
 RMSDP=6.43D-08 MaxDP=5.76D-07 DE=-2.81D-11 OVMax= 7.54D-07

 Cycle  11  Pass 1  IDiag  3:
 E=  1.82078340677333     Delta-E=       -0.000000000001 Rises=F Damp=F
 DIIS: error= 9.72D-09 at cycle  11 NSaved=  11.
 NSaved=11 IEnMin=11 EnMin=  1.82078340677333     IErMin=11 ErrMin= 9.72D-09
 ErrMax= 9.72D-09  0.00D+00 EMaxC= 1.00D-01 BMatC= 4.78D-15 BMatP= 1.39D-13
 IDIUse=1 WtCom= 1.00D+00 WtEn= 0.00D+00
 Coeff-Com: -0.848D-06 0.104D-04-0.465D-04 0.362D-04 0.347D-03-0.333D-02
 Coeff-Com:  0.208D-01-0.105D+00 0.280D+00-0.696D+00 0.150D+01
 Coeff:     -0.848D-06 0.104D-04-0.465D-04 0.362D-04 0.347D-03-0.333D-02
 Coeff:      0.208D-01-0.105D+00 0.280D+00-0.696D+00 0.150D+01
 Gap=     0.415 Goal=   None    Shift=    0.000
 RMSDP=1.13D-08 MaxDP=9.68D-08 DE=-7.82D-13 OVMax= 9.57D-08

 Cycle  12  Pass 1  IDiag  3:
 E=  1.82078340677315     Delta-E=        0.000000000000 Rises=F Damp=F
 DIIS: error= 3.34D-09 at cycle  12 NSaved=  12.
 NSaved=12 IEnMin=12 EnMin=  1.82078340677315     IErMin=12 ErrMin= 3.34D-09
 ErrMax= 3.34D-09  0.00D+00 EMaxC= 1.00D-01 BMatC= 2.37D-16 BMatP= 4.78D-15
 IDIUse=1 WtCom= 1.00D+00 WtEn= 0.00D+00
 Coeff-Com:  0.306D-06-0.356D-05 0.153D-04-0.884D-05-0.124D-03 0.111D-02
 Coeff-Com: -0.682D-02 0.347D-01-0.924D-01 0.235D+00-0.643D+00 0.147D+01
 Coeff:      0.306D-06-0.356D-05 0.153D-04-0.884D-05-0.124D-03 0.111D-02
 Coeff:     -0.682D-02 0.347D-01-0.924D-01 0.235D+00-0.643D+00 0.147D+01
 Gap=     0.415 Goal=   None    Shift=    0.000
 RMSDP=2.46D-09 MaxDP=2.66D-08 DE=-1.85D-13 OVMax= 2.93D-08

 Cycle  13  Pass 2  IDiag  1:
 SCF Done:  E(RAM1) =   1.82078340677     A.U. after   13 cycles
            NFock= 12  Conv=0.25D-08     -V/T= 1.1406
 KE=-1.295336941921D+01 PE=-1.701918111135D+02 EE= 8.194069750929D+01
 Leave Link  502 at Tue Dec  1 17:37:44 2015, MaxMem=    33554432 cpu:         0.0
 (Enter /home/Applications/g09/g09/l601.exe)
 Copying SCF densities to generalized density rwf, IOpCl= 0 IROHF=0.

 **********************************************************************

            Population analysis using the SCF density.

 **********************************************************************

 Orbital symmetries:
       Occupied  (A) (A) (A) (A) (A) (A) (A) (A) (A) (A) (A) (A)
                 (A)
       Virtual   (A) (A) (A) (A) (A) (A) (A) (A) (A) (A) (A)
 The electronic state is 1-A.
 Alpha  occ. eigenvalues --   -1.52868  -1.08277  -0.88805  -0.86406  -0.76655
 Alpha  occ. eigenvalues --   -0.71044  -0.70671  -0.57942  -0.56635  -0.56025
 Alpha  occ. eigenvalues --   -0.51151  -0.47073  -0.39637
 Alpha virt. eigenvalues --    0.01907   0.05812   0.12271   0.14964   0.19707
 Alpha virt. eigenvalues --    0.20786   0.21465   0.40777   0.47626   0.58072
 Alpha virt. eigenvalues --    0.66536
          Condensed to atoms (all electrons):
               1          2          3          4          5          6
     1  C    4.007578   0.000000   0.000000   0.000000   0.000000   0.000000
     2  C    0.000000   3.661640   0.000000   0.000000   0.000000   0.000000
     3  O    0.000000   0.000000   6.288229   0.000000   0.000000   0.000000
     4  C    0.000000   0.000000   0.000000   3.620960   0.000000   0.000000
     5  C    0.000000   0.000000   0.000000   0.000000   4.086795   0.000000
     6  H    0.000000   0.000000   0.000000   0.000000   0.000000   1.077298
     7  H    0.000000   0.000000   0.000000   0.000000   0.000000   0.000000
     8  H    0.000000   0.000000   0.000000   0.000000   0.000000   0.000000
     9  H    0.000000   0.000000   0.000000   0.000000   0.000000   0.000000
               7          8          9
     1  C    0.000000   0.000000   0.000000
     2  C    0.000000   0.000000   0.000000
     3  O    0.000000   0.000000   0.000000
     4  C    0.000000   0.000000   0.000000
     5  C    0.000000   0.000000   0.000000
     6  H    0.000000   0.000000   0.000000
     7  H    1.078788   0.000000   0.000000
     8  H    0.000000   1.095154   0.000000
     9  H    0.000000   0.000000   1.083558
 Mulliken charges:
               1
     1  C   -0.007578
     2  C    0.338360
     3  O   -0.288229
     4  C    0.379040
     5  C   -0.086795
     6  H   -0.077298
     7  H   -0.078788
     8  H   -0.095154
     9  H   -0.083558
 Sum of Mulliken charges =   0.00000
 Mulliken charges with hydrogens summed into heavy atoms:
               1
     1  C   -0.091136
     2  C    0.243206
     3  O   -0.288229
     4  C    0.300251
     5  C   -0.164092
 Charge=              0.0000 electrons
 Dipole moment (field-independent basis, Debye):
    X=             -0.0196    Y=             -0.0535    Z=              0.0320  Tot=              0.0653
 N-N= 1.030252664302D+02 E-N=-1.701918111137D+02  KE=-1.295336941921D+01
 Leave Link  601 at Tue Dec  1 17:37:44 2015, MaxMem=    33554432 cpu:         0.0
 (Enter /home/Applications/g09/g09/l701.exe)
 Compute integral first derivatives.
 ... and contract with generalized density number  0.
 Leave Link  701 at Tue Dec  1 17:37:44 2015, MaxMem=    33554432 cpu:         0.0
 (Enter /home/Applications/g09/g09/l702.exe)
 L702 exits ... SP integral derivatives will be done elsewhere.
 Leave Link  702 at Tue Dec  1 17:37:44 2015, MaxMem=    33554432 cpu:         0.0
 (Enter /home/Applications/g09/g09/l703.exe)
 Compute integral first derivatives, UseDBF=F ICtDFT=           0.
 Integral derivatives from FoFJK, PRISM(SPDF).
 Calling FoFJK, ICntrl=      2127 FMM=F ISym2X=0 I1Cent= 0 IOpClX= 0 NMat=1 NMatS=1 NMatT=0.
 FoFJK:  IHMeth= 8 ICntrl=    2127 DoSepK=F KAlg= 0 I1Cent=   0 FoldK=F
 IRaf=         0 NMat=   1 IRICut=       1 DoRegI=T DoRafI=F ISym2E= 0.
 FoFCou: FMM=F IPFlag=           0 FMFlag=      100000 FMFlg1=         800
         NFxFlg=           0 DoJE=F BraDBF=F KetDBF=F FulRan=T
         wScrn=  0.000000 ICntrl=    2127 IOpCl=  0 I1Cent=           0 NGrid=           0
         NMat0=    1 NMatS0=      1 NMatT0=    0 NMatD0=    1 NMtDS0=    0 NMtDT0=    0
 Symmetry not used in FoFCou.
 Leave Link  703 at Tue Dec  1 17:37:44 2015, MaxMem=    33554432 cpu:         0.0
 (Enter /home/Applications/g09/g09/l716.exe)
 Dipole        =-7.71033233D-03-2.10345495D-02 1.26088340D-02
 ***** Axes restored to original set *****
 -------------------------------------------------------------------
 Center     Atomic                   Forces (Hartrees/Bohr)
 Number     Number              X              Y              Z
 -------------------------------------------------------------------
      1        6          -0.182263542    0.156203165    0.009357759
      2        6           0.044076994    0.079641216   -0.000319266
      3        8           0.045991315   -0.112753991    0.001591384
      4        6           0.155273608    0.050933293   -0.012228461
      5        6          -0.181941890   -0.125267519    0.002420619
      6        1           0.016967375    0.006385605    0.000494881
      7        1           0.022958825   -0.038608361    0.001863743
      8        1           0.021694756    0.022232666   -0.001492095
      9        1           0.057242559   -0.038766074   -0.001688564
 -------------------------------------------------------------------
 Cartesian Forces:  Max     0.182263542 RMS     0.078073502
 Leave Link  716 at Tue Dec  1 17:37:44 2015, MaxMem=    33554432 cpu:         0.0
 (Enter /home/Applications/g09/g09/l103.exe)

 GradGradGradGradGradGradGradGradGradGradGradGradGradGradGradGradGradGrad
 Berny optimization.
 FormGI is forming the generalized inverse of G from B-inverse, IUseBI=4.
 Internal  Forces:  Max     0.165162054 RMS     0.047102448
 Search for a local minimum.
 Step number   1 out of a maximum of   48
 All quantities printed in internal units (Hartrees-Bohrs-Radians)
 RMS Force = .47102D-01 SwitMx=.10000D-02 MixMth= 1
 Mixed Optimization -- RFO/linear search
 Second derivative matrix not updated -- first step.
 ITU=  0
     Eigenvalues ---    0.01364   0.01714   0.01774   0.02140   0.02315
     Eigenvalues ---    0.02422   0.15851   0.15979   0.15998   0.16000
     Eigenvalues ---    0.22000   0.22910   0.30467   0.32756   0.34118
     Eigenvalues ---    0.38546   0.41510   0.42751   0.49840   0.50104
     Eigenvalues ---    0.64543
 RFO step:  Lambda=-1.49750000D-01 EMin= 1.36385544D-02
 Linear search not attempted -- first point.
 Maximum step size (   0.300) exceeded in Quadratic search.
    -- Step size scaled by   0.577
 Iteration  1 RMS(Cart)=  0.05340897 RMS(Int)=  0.00084602
 Iteration  2 RMS(Cart)=  0.00072684 RMS(Int)=  0.00042824
 Iteration  3 RMS(Cart)=  0.00000046 RMS(Int)=  0.00042824
 ITry= 1 IFail=0 DXMaxC= 1.30D-01 DCOld= 1.00D+10 DXMaxT= 3.00D-01 DXLimC= 3.00D+00 Rises=F
 Variable       Old X    -DE/DX   Delta X   Delta X   Delta X     New X
                                 (Linear)    (Quad)   (Total)
    R1        2.57734  -0.12529   0.00000  -0.11051  -0.11015   2.46719
    R2        2.80942  -0.13722   0.00000  -0.16715  -0.16639   2.64303
    R3        1.86460   0.06875   0.00000   0.06093   0.06093   1.92554
    R4        2.70658  -0.10103   0.00000  -0.10265  -0.10318   2.60340
    R5        2.07132  -0.03008   0.00000  -0.03534  -0.03534   2.03598
    R6        2.45312   0.03190   0.00000   0.02554   0.02486   2.47797
    R7        2.65314  -0.16516   0.00000  -0.15773  -0.15766   2.49548
    R8        2.13742  -0.04461   0.00000  -0.05663  -0.05663   2.08079
    R9        1.96252   0.01706   0.00000   0.01742   0.01742   1.97994
    A1        1.84666   0.02607   0.00000   0.02839   0.02947   1.87613
    A2        2.21146  -0.00901   0.00000  -0.00650  -0.00707   2.20439
    A3        2.21961  -0.01667   0.00000  -0.02070  -0.02128   2.19833
    A4        1.92409  -0.00668   0.00000  -0.01375  -0.01377   1.91031
    A5        2.36180  -0.00476   0.00000  -0.00819  -0.00819   2.35362
    A6        1.99718   0.01145   0.00000   0.02198   0.02198   2.01916
    A7        1.85733  -0.01904   0.00000  -0.01526  -0.01677   1.84056
    A8        1.98848  -0.02303   0.00000  -0.02888  -0.02932   1.95916
    A9        2.05959   0.01700   0.00000   0.02477   0.02497   2.08456
   A10        2.23370   0.00616   0.00000   0.00458   0.00478   2.23848
   A11        1.80745   0.02275   0.00000   0.02981   0.03067   1.83812
   A12        2.28000  -0.01738   0.00000  -0.02608  -0.02651   2.25349
   A13        2.19573  -0.00537   0.00000  -0.00372  -0.00415   2.19158
    D1        0.00903  -0.00039   0.00000  -0.00263  -0.00275   0.00627
    D2       -3.11457  -0.00138   0.00000  -0.00513  -0.00518  -3.11975
    D3        3.04451   0.00273   0.00000   0.00788   0.00784   3.05236
    D4       -0.07909   0.00174   0.00000   0.00538   0.00542  -0.07367
    D5        0.01261   0.00035   0.00000  -0.00072  -0.00080   0.01181
    D6       -3.13081   0.00105   0.00000   0.00232   0.00224  -3.12856
    D7       -3.02222  -0.00343   0.00000  -0.01245  -0.01248  -3.03470
    D8        0.11755  -0.00273   0.00000  -0.00942  -0.00943   0.10812
    D9       -0.02918   0.00222   0.00000   0.00710   0.00711  -0.02207
   D10        3.09852   0.00285   0.00000   0.00878   0.00876   3.10728
   D11        0.03894  -0.00249   0.00000  -0.00838  -0.00837   0.03057
   D12        3.12807   0.00001   0.00000   0.00033   0.00036   3.12842
   D13       -0.03313   0.00182   0.00000   0.00626   0.00624  -0.02689
   D14        3.11017   0.00117   0.00000   0.00345   0.00337   3.11354
   D15       -3.11594  -0.00124   0.00000  -0.00407  -0.00402  -3.11997
   D16        0.02735  -0.00189   0.00000  -0.00688  -0.00689   0.02046
         Item               Value     Threshold  Converged?
 Maximum Force            0.165162     0.000450     NO 
 RMS     Force            0.047102     0.000300     NO 
 Maximum Displacement     0.130206     0.001800     NO 
 RMS     Displacement     0.053825     0.001200     NO 
 Predicted change in Energy=-6.827220D-02
 Lowest energy point so far.  Saving SCF results.
 GradGradGradGradGradGradGradGradGradGradGradGradGradGradGradGradGradGrad

 Leave Link  103 at Tue Dec  1 17:37:44 2015, MaxMem=    33554432 cpu:         0.0
 (Enter /home/Applications/g09/g09/l202.exe)
                          Input orientation:                          
 ---------------------------------------------------------------------
 Center     Atomic      Atomic             Coordinates (Angstroms)
 Number     Number       Type             X           Y           Z
 ---------------------------------------------------------------------
      1          6           0        0.936800   -0.710836   -0.029167
      2          6           0       -0.310056   -1.097994   -0.028237
      3          8           0       -1.133375    0.006390   -0.007487
      4          6           0       -0.329007    1.041258    0.031435
      5          6           0        0.942880    0.687481   -0.000127
      6          1           0        1.758498    1.345144   -0.002917
      7          1           0       -0.754086    2.056949    0.041990
      8          1           0       -0.809248   -2.052765   -0.027815
      9          1           0        1.755824   -1.314054    0.030716
 ---------------------------------------------------------------------
                    Distance matrix (angstroms):
                    1          2          3          4          5
     1  C    0.000000
     2  C    1.305581   0.000000
     3  O    2.191006   1.377660   0.000000
     4  C    2.162353   2.140167   1.311288   0.000000
     5  C    1.398632   2.181412   2.185126   1.320549   0.000000
     6  H    2.214256   3.201325   3.186725   2.109787   1.047741
     7  H    3.244193   3.186810   2.085930   1.101105   2.181034
     8  H    2.202149   1.077395   2.084608   3.131632   3.252640
     9  H    1.018949   2.077983   3.176869   3.145474   2.160549
                    6          7          8          9
     6  H    0.000000
     7  H    2.611850   0.000000
     8  H    4.259076   4.110677   0.000000
     9  H    2.659412   4.202788   2.669965   0.000000
 Stoichiometry    C4H4O
 Framework group  C1[X(C4H4O)]
 Deg. of freedom    21
 Full point group                 C1      NOp   1
 RotChk:  IX=0 Diff= 3.68D-01
 Largest Abelian subgroup         C1      NOp   1
 Largest concise Abelian subgroup C1      NOp   1
                         Standard orientation:                         
 ---------------------------------------------------------------------
 Center     Atomic      Atomic             Coordinates (Angstroms)
 Number     Number       Type             X           Y           Z
 ---------------------------------------------------------------------
      1          6           0        0.703035    0.925591   -0.008905
      2          6           0        1.086320   -0.322449   -0.003328
      3          8           0       -0.020750   -1.142411   -0.005487
      4          6           0       -1.053728   -0.334949    0.015435
      5          6           0       -0.695557    0.935908   -0.006563
      6          1           0       -1.350569    1.753549   -0.020117
      7          1           0       -2.070721   -0.756924    0.005654
      8          1           0        2.039390   -0.824574    0.014229
      9          1           0        1.307481    1.742625    0.064291
 ---------------------------------------------------------------------
 Rotational constants (GHZ):      9.8679471      9.7680620      4.9097625
 Leave Link  202 at Tue Dec  1 17:37:44 2015, MaxMem=    33554432 cpu:         0.0
 (Enter /home/Applications/g09/g09/l301.exe)

 Semi-emprical parameters in input format:
 Method=8 CoreType=1 PeptideFC=0.0120930000 RIJScale=0.5388840000
 ****
 H       
 PQN=1 NValence=1 F0ss=0.5586300000 ZetaOverlap=1.0950750000 U=-0.4119510000
 Beta=-0.2338190000 CoreKO=1.1007910000 KON=0,0,0,0.9764370000 KON=1,0,1,1.1361190000
 KON=0,1,1,1.0139660000 KON=2,1,1,1.2635130000 EISol=-0.4188110042 EHeat=0.0830298228
 Alpha=1.4078420000
 GCore=0.0080140000,1.2229470000,2.2663690000
 GCore=0.0002960000,1.5853770000,2.7382840000
 GCore=-0.0012210000,0.6561060000,3.9519220000
 ****
 C       
 PQN=2,2 NValence=4 F0ss=0.4805700000 F0sp=0.4819370000 F0pp=0.3439950000 F2pp=0.1961420000
 G1sp=0.2678900000
 ZetaOverlap=1.8366850000,1.4875730000
 U=-1.4842670000,-1.3886060000
 Beta=-0.6376780000,-0.3536670000 DDN=0,1,0.9094820000 DDN=1,1,0.8346670000
 CoreKO=1.1045690000 KON=0,0,0,1.0182330000 KON=1,0,1,0.7342900000 KON=0,1,1,1.1944780000
 KON=2,1,1,0.7056720000 EISol=-4.4398989268 EHeat=0.2723305520 Alpha=1.4025920000
 DipHyp=1.8188593534
 GCore=0.0007870000,1.5590290000,2.8992300000
 GCore=0.0031100000,1.3744800000,3.7653660000
 GCore=-0.0013700000,1.3772400000,4.0631190000
 GCore=-0.0000820000,1.5210550000,5.3709760000
 ****
 O       
 PQN=2,2 NValence=6 F0ss=0.7455940000 F0sp=0.5814220000 F0pp=0.4393740000 F2pp=0.2294290000
 G1sp=0.3535640000
 ZetaOverlap=2.7714830000,2.5744810000
 U=-3.8069400000,-2.7329690000
 Beta=-1.1272460000,-1.1587550000 DDN=0,1,0.5172290000 DDN=1,1,0.4110560000
 CoreKO=0.8743200000 KON=0,0,0,0.8886000000 KON=1,0,1,0.5063100000 KON=0,1,1,0.8996480000
 KON=2,1,1,0.5582300000 EISol=-11.6164441184 EHeat=0.0949133088 Alpha=2.3820330000
 DipHyp=1.0343984867
 GCore=0.0192970000,1.5130470000,1.5620930000
 GCore=0.0058890000,1.6294880000,2.3818730000
 ****
 
 Standard basis: VSTO-6G (5D, 7F)
 Ernie: Thresh=  0.10000D-02 Tol=  0.10000D-05 Strict=F.
  NNHCO=     0 NNPyr=     0 NCTC=     0               EPep=         0.000000000
    EC=        69.807722716  ECS=         2.073254120   EG=         0.357009394
   EHC=         0.000000000  EAt=       -31.051283842  AtH=         1.516354808
 EPDDG=         0.000000000  ECC=        72.237986230 EAtT=        32.567638650
 There are    24 symmetry adapted cartesian basis functions of A   symmetry.
 There are    24 symmetry adapted basis functions of A   symmetry.
    24 basis functions,   144 primitive gaussians,    24 cartesian basis functions
    13 alpha electrons       13 beta electrons
       nuclear repulsion energy       104.8056248799 Hartrees.
 IExCor=    0 DFT=F Ex=HF Corr=None ExCW=0 ScaHFX=  1.000000
 ScaDFX=  1.000000  1.000000  1.000000  1.000000 ScalE2=  1.000000  1.000000
 IRadAn=      0 IRanWt=     -1 IRanGd=            0 ICorTp=0 IEmpDi=  4
 Integral buffers will be    131072 words long.
 Regular integral format.
 Two-electron integral symmetry is turned off.
 Leave Link  301 at Tue Dec  1 17:37:44 2015, MaxMem=    33554432 cpu:         0.0
 (Enter /home/Applications/g09/g09/l302.exe)
 Do NDO integrals.
 NPDir=0 NMtPBC=     1 NCelOv=     1 NCel=       1 NClECP=     1 NCelD=      1
         NCelK=      1 NCelE2=     1 NClLst=     1 CellRange=     0.0.
 One-electron integrals computed using PRISM.
 NBasis=    24 RedAO= F EigKep=  0.00D+00  NBF=    24
 NBsUse=    24 1.00D-04 EigRej=  0.00D+00 NBFU=    24
 Leave Link  302 at Tue Dec  1 17:37:44 2015, MaxMem=    33554432 cpu:         0.0
 (Enter /home/Applications/g09/g09/l303.exe)
 DipDrv:  MaxL=1.
 Leave Link  303 at Tue Dec  1 17:37:44 2015, MaxMem=    33554432 cpu:         0.0
 (Enter /home/Applications/g09/g09/l401.exe)
 Initial guess from the checkpoint file:  "/home/Applications/g09/scratch/Gau-23878.chk"
 B after Tr=     0.000000    0.000000    0.000000
         Rot=    0.991369    0.000281    0.000035   -0.131102 Ang=  15.07 deg.
 Guess basis will be translated and rotated to current coordinates.
 JPrj=0 DoOrth=T DoCkMO=T.
 Leave Link  401 at Tue Dec  1 17:37:44 2015, MaxMem=    33554432 cpu:         0.0
 (Enter /home/Applications/g09/g09/l502.exe)
 Closed shell SCF:
 Using DIIS extrapolation, IDIIS=  1040.
 Overlap will be assumed to be unity.
 Two-electron integral symmetry not used.
 Keep J ints in memory in canonical form, NReq=888082.
 IVT=       79475 IEndB=       79475 NGot=    33554432 MDV=    33473473
 LenX=    33473473 LenY=    33472456
 Requested convergence on RMS density matrix=1.00D-08 within 128 cycles.
 Requested convergence on MAX density matrix=1.00D-06.
 Requested convergence on             energy=1.00D-06.
 No special actions if energy rises.
 FoFCou: FMM=F IPFlag=           0 FMFlag=           0 FMFlg1=           0
         NFxFlg=           0 DoJE=F BraDBF=F KetDBF=F FulRan=T
         wScrn=  0.000000 ICntrl=     600 IOpCl=  2 I1Cent=           0 NGrid=           0
         NMat0=    1 NMatS0=     54 NMatT0=    0 NMatD0=    1 NMtDS0=    0 NMtDT0=    0
 Symmetry not used in FoFCou.

 Cycle   1  Pass 1  IDiag  1:
 E=  1.77150691596114    
 DIIS: error= 8.01D-03 at cycle   1 NSaved=   1.
 NSaved= 1 IEnMin= 1 EnMin=  1.77150691596114     IErMin= 1 ErrMin= 8.01D-03
 ErrMax= 8.01D-03  0.00D+00 EMaxC= 1.00D-01 BMatC= 3.78D-03 BMatP= 3.78D-03
 IDIUse=3 WtCom= 9.20D-01 WtEn= 8.01D-02
 Coeff-Com:  0.100D+01
 Coeff-En:   0.100D+01
 Coeff:      0.100D+01
 GapD=    2.000 DampG=2.000 DampE=1.000 DampFc=2.0000 IDamp=-1.
 RMSDP=3.11D-03 MaxDP=1.66D-02              OVMax= 0.00D+00

 Cycle   2  Pass 1  IDiag  3:
 E=  1.76394201789745     Delta-E=       -0.007564898064 Rises=F Damp=F
 DIIS: error= 1.84D-03 at cycle   2 NSaved=   2.
 NSaved= 2 IEnMin= 2 EnMin=  1.76394201789745     IErMin= 2 ErrMin= 1.84D-03
 ErrMax= 1.84D-03  0.00D+00 EMaxC= 1.00D-01 BMatC= 1.96D-04 BMatP= 3.78D-03
 IDIUse=3 WtCom= 9.82D-01 WtEn= 1.84D-02
 Coeff-Com: -0.251D+00 0.125D+01
 Coeff-En:   0.000D+00 0.100D+01
 Coeff:     -0.247D+00 0.125D+01
 Gap=     0.436 Goal=   None    Shift=    0.000
 RMSDP=1.05D-03 MaxDP=4.82D-03 DE=-7.56D-03 OVMax= 6.25D-03

 Cycle   3  Pass 1  IDiag  3:
 E=  1.76341393225125     Delta-E=       -0.000528085646 Rises=F Damp=F
 DIIS: error= 3.32D-04 at cycle   3 NSaved=   3.
 NSaved= 3 IEnMin= 3 EnMin=  1.76341393225125     IErMin= 3 ErrMin= 3.32D-04
 ErrMax= 3.32D-04  0.00D+00 EMaxC= 1.00D-01 BMatC= 5.40D-06 BMatP= 1.96D-04
 IDIUse=3 WtCom= 9.97D-01 WtEn= 3.32D-03
 Coeff-Com:  0.884D-01-0.498D+00 0.141D+01
 Coeff-En:   0.000D+00 0.000D+00 0.100D+01
 Coeff:      0.881D-01-0.497D+00 0.141D+01
 Gap=     0.436 Goal=   None    Shift=    0.000
 RMSDP=2.80D-04 MaxDP=2.23D-03 DE=-5.28D-04 OVMax= 2.85D-03

 Cycle   4  Pass 1  IDiag  3:
 E=  1.76338968996087     Delta-E=       -0.000024242290 Rises=F Damp=F
 DIIS: error= 1.07D-04 at cycle   4 NSaved=   4.
 NSaved= 4 IEnMin= 4 EnMin=  1.76338968996087     IErMin= 4 ErrMin= 1.07D-04
 ErrMax= 1.07D-04  0.00D+00 EMaxC= 1.00D-01 BMatC= 2.93D-07 BMatP= 5.40D-06
 IDIUse=3 WtCom= 9.99D-01 WtEn= 1.07D-03
 Coeff-Com: -0.390D-01 0.227D+00-0.775D+00 0.159D+01
 Coeff-En:   0.000D+00 0.000D+00 0.000D+00 0.100D+01
 Coeff:     -0.390D-01 0.227D+00-0.774D+00 0.159D+01
 Gap=     0.436 Goal=   None    Shift=    0.000
 RMSDP=9.19D-05 MaxDP=8.66D-04 DE=-2.42D-05 OVMax= 1.14D-03

 Cycle   5  Pass 1  IDiag  3:
 E=  1.76338788971019     Delta-E=       -0.000001800251 Rises=F Damp=F
 DIIS: error= 2.06D-05 at cycle   5 NSaved=   5.
 NSaved= 5 IEnMin= 5 EnMin=  1.76338788971019     IErMin= 5 ErrMin= 2.06D-05
 ErrMax= 2.06D-05  0.00D+00 EMaxC= 1.00D-01 BMatC= 1.45D-08 BMatP= 2.93D-07
 IDIUse=1 WtCom= 1.00D+00 WtEn= 0.00D+00
 Coeff-Com:  0.138D-01-0.811D-01 0.293D+00-0.749D+00 0.152D+01
 Coeff:      0.138D-01-0.811D-01 0.293D+00-0.749D+00 0.152D+01
 Gap=     0.436 Goal=   None    Shift=    0.000
 RMSDP=2.06D-05 MaxDP=1.97D-04 DE=-1.80D-06 OVMax= 2.69D-04

 Cycle   6  Pass 1  IDiag  3:
 E=  1.76338780484414     Delta-E=       -0.000000084866 Rises=F Damp=F
 DIIS: error= 2.95D-06 at cycle   6 NSaved=   6.
 NSaved= 6 IEnMin= 6 EnMin=  1.76338780484414     IErMin= 6 ErrMin= 2.95D-06
 ErrMax= 2.95D-06  0.00D+00 EMaxC= 1.00D-01 BMatC= 4.84D-10 BMatP= 1.45D-08
 IDIUse=1 WtCom= 1.00D+00 WtEn= 0.00D+00
 Coeff-Com: -0.287D-02 0.165D-01-0.584D-01 0.156D+00-0.453D+00 0.134D+01
 Coeff:     -0.287D-02 0.165D-01-0.584D-01 0.156D+00-0.453D+00 0.134D+01
 Gap=     0.436 Goal=   None    Shift=    0.000
 RMSDP=3.27D-06 MaxDP=3.06D-05 DE=-8.49D-08 OVMax= 3.93D-05

 Cycle   7  Pass 1  IDiag  3:
 E=  1.76338780246584     Delta-E=       -0.000000002378 Rises=F Damp=F
 DIIS: error= 5.45D-07 at cycle   7 NSaved=   7.
 NSaved= 7 IEnMin= 7 EnMin=  1.76338780246584     IErMin= 7 ErrMin= 5.45D-07
 ErrMax= 5.45D-07  0.00D+00 EMaxC= 1.00D-01 BMatC= 1.61D-11 BMatP= 4.84D-10
 IDIUse=1 WtCom= 1.00D+00 WtEn= 0.00D+00
 Coeff-Com:  0.227D-03-0.124D-02 0.427D-02-0.138D-01 0.656D-01-0.350D+00
 Coeff-Com:  0.129D+01
 Coeff:      0.227D-03-0.124D-02 0.427D-02-0.138D-01 0.656D-01-0.350D+00
 Coeff:      0.129D+01
 Gap=     0.436 Goal=   None    Shift=    0.000
 RMSDP=4.66D-07 MaxDP=2.85D-06 DE=-2.38D-09 OVMax= 4.10D-06

 Cycle   8  Pass 1  IDiag  3:
 E=  1.76338780240019     Delta-E=       -0.000000000066 Rises=F Damp=F
 DIIS: error= 9.61D-08 at cycle   8 NSaved=   8.
 NSaved= 8 IEnMin= 8 EnMin=  1.76338780240019     IErMin= 8 ErrMin= 9.61D-08
 ErrMax= 9.61D-08  0.00D+00 EMaxC= 1.00D-01 BMatC= 5.54D-13 BMatP= 1.61D-11
 IDIUse=1 WtCom= 1.00D+00 WtEn= 0.00D+00
 Coeff-Com:  0.828D-04-0.499D-03 0.187D-02-0.457D-02 0.762D-02 0.762D-02
 Coeff-Com: -0.240D+00 0.123D+01
 Coeff:      0.828D-04-0.499D-03 0.187D-02-0.457D-02 0.762D-02 0.762D-02
 Coeff:     -0.240D+00 0.123D+01
 Gap=     0.436 Goal=   None    Shift=    0.000
 RMSDP=8.24D-08 MaxDP=4.74D-07 DE=-6.57D-11 OVMax= 5.03D-07

 Cycle   9  Pass 1  IDiag  3:
 E=  1.76338780239836     Delta-E=       -0.000000000002 Rises=F Damp=F
 DIIS: error= 1.44D-08 at cycle   9 NSaved=   9.
 NSaved= 9 IEnMin= 9 EnMin=  1.76338780239836     IErMin= 9 ErrMin= 1.44D-08
 ErrMax= 1.44D-08  0.00D+00 EMaxC= 1.00D-01 BMatC= 1.82D-14 BMatP= 5.54D-13
 IDIUse=1 WtCom= 1.00D+00 WtEn= 0.00D+00
 Coeff-Com: -0.338D-04 0.199D-03-0.728D-03 0.178D-02-0.364D-02 0.374D-02
 Coeff-Com:  0.563D-01-0.427D+00 0.137D+01
 Coeff:     -0.338D-04 0.199D-03-0.728D-03 0.178D-02-0.364D-02 0.374D-02
 Coeff:      0.563D-01-0.427D+00 0.137D+01
 Gap=     0.436 Goal=   None    Shift=    0.000
 RMSDP=1.70D-08 MaxDP=8.50D-08 DE=-1.83D-12 OVMax= 1.52D-07

 Cycle  10  Pass 1  IDiag  3:
 E=  1.76338780239826     Delta-E=        0.000000000000 Rises=F Damp=F
 DIIS: error= 3.54D-09 at cycle  10 NSaved=  10.
 NSaved=10 IEnMin=10 EnMin=  1.76338780239826     IErMin=10 ErrMin= 3.54D-09
 ErrMax= 3.54D-09  0.00D+00 EMaxC= 1.00D-01 BMatC= 7.03D-16 BMatP= 1.82D-14
 IDIUse=1 WtCom= 1.00D+00 WtEn= 0.00D+00
 Coeff-Com:  0.123D-04-0.717D-04 0.257D-03-0.621D-03 0.131D-02-0.211D-02
 Coeff-Com: -0.136D-01 0.123D+00-0.529D+00 0.142D+01
 Coeff:      0.123D-04-0.717D-04 0.257D-03-0.621D-03 0.131D-02-0.211D-02
 Coeff:     -0.136D-01 0.123D+00-0.529D+00 0.142D+01
 Gap=     0.436 Goal=   None    Shift=    0.000
 RMSDP=4.10D-09 MaxDP=2.28D-08 DE=-9.95D-14 OVMax= 3.72D-08

 Cycle  11  Pass 2  IDiag  1:
 SCF Done:  E(RAM1) =   1.76338780240     A.U. after   11 cycles
            NFock= 10  Conv=0.41D-08     -V/T= 1.1338
 KE=-1.318282874572D+01 PE=-1.731710168661D+02 EE= 8.331160853434D+01
 Leave Link  502 at Tue Dec  1 17:37:44 2015, MaxMem=    33554432 cpu:         0.0
 (Enter /home/Applications/g09/g09/l701.exe)
 Compute integral first derivatives.
 ... and contract with generalized density number  0.
 Leave Link  701 at Tue Dec  1 17:37:44 2015, MaxMem=    33554432 cpu:         0.0
 (Enter /home/Applications/g09/g09/l702.exe)
 L702 exits ... SP integral derivatives will be done elsewhere.
 Leave Link  702 at Tue Dec  1 17:37:44 2015, MaxMem=    33554432 cpu:         0.0
 (Enter /home/Applications/g09/g09/l703.exe)
 Compute integral first derivatives, UseDBF=F ICtDFT=           0.
 Integral derivatives from FoFJK, PRISM(SPDF).
 Calling FoFJK, ICntrl=      2127 FMM=F ISym2X=0 I1Cent= 0 IOpClX= 0 NMat=1 NMatS=1 NMatT=0.
 FoFJK:  IHMeth= 8 ICntrl=    2127 DoSepK=F KAlg= 0 I1Cent=   0 FoldK=F
 IRaf=         0 NMat=   1 IRICut=       1 DoRegI=T DoRafI=F ISym2E= 0.
 FoFCou: FMM=F IPFlag=           0 FMFlag=      100000 FMFlg1=         800
         NFxFlg=           0 DoJE=F BraDBF=F KetDBF=F FulRan=T
         wScrn=  0.000000 ICntrl=    2127 IOpCl=  0 I1Cent=           0 NGrid=           0
         NMat0=    1 NMatS0=      1 NMatT0=    0 NMatD0=    1 NMtDS0=    0 NMtDT0=    0
 Symmetry not used in FoFCou.
 Leave Link  703 at Tue Dec  1 17:37:44 2015, MaxMem=    33554432 cpu:         0.0
 (Enter /home/Applications/g09/g09/l716.exe)
 Dipole        =-6.31443050D-03 7.50099645D-02 1.22782242D-02
 ***** Axes restored to original set *****
 -------------------------------------------------------------------
 Center     Atomic                   Forces (Hartrees/Bohr)
 Number     Number              X              Y              Z
 -------------------------------------------------------------------
      1        6          -0.056044966    0.067623842    0.007798465
      2        6          -0.009984176    0.016273880   -0.000714742
      3        8          -0.006089099   -0.058622686    0.001901293
      4        6           0.052718747    0.060914166   -0.008372430
      5        6          -0.059987917   -0.053775869    0.001083406
      6        1           0.019709219    0.009224376    0.000614880
      7        1           0.008447464   -0.020300772    0.001778858
      8        1           0.010540833    0.005796793   -0.001237146
      9        1           0.040689894   -0.027133732   -0.002852583
 -------------------------------------------------------------------
 Cartesian Forces:  Max     0.067623842 RMS     0.032303826
 Leave Link  716 at Tue Dec  1 17:37:44 2015, MaxMem=    33554432 cpu:         0.0
 (Enter /home/Applications/g09/g09/l103.exe)

 GradGradGradGradGradGradGradGradGradGradGradGradGradGradGradGradGradGrad
 Berny optimization.
 Using GEDIIS/GDIIS optimizer.
 FormGI is forming the generalized inverse of G from B-inverse, IUseBI=4.
 Internal  Forces:  Max     0.048601750 RMS     0.016421082
 Search for a local minimum.
 Step number   2 out of a maximum of   48
 All quantities printed in internal units (Hartrees-Bohrs-Radians)
 RMS Force = .16421D-01 SwitMx=.10000D-02 MixMth= 1
 Mixed Optimization -- RFO/linear search
 Update second derivatives using D2CorX and points    1    2
 DE= -5.74D-02 DEPred=-6.83D-02 R= 8.41D-01
 TightC=F SS=  1.41D+00  RLast= 3.01D-01 DXNew= 5.0454D-01 9.0329D-01
 Trust test= 8.41D-01 RLast= 3.01D-01 DXMaxT set to 5.05D-01
 ITU=  1  0
 Use linear search instead of GDIIS.
     Eigenvalues ---    0.01371   0.01709   0.01766   0.02148   0.02312
     Eigenvalues ---    0.02420   0.15885   0.15937   0.15999   0.16013
     Eigenvalues ---    0.21970   0.22874   0.30330   0.33893   0.34445
     Eigenvalues ---    0.38652   0.40904   0.45411   0.47912   0.59951
     Eigenvalues ---    0.85483
 RFO step:  Lambda=-1.17928851D-02 EMin= 1.37070185D-02
 Quartic linear search produced a step of  0.35061.
 Iteration  1 RMS(Cart)=  0.03419793 RMS(Int)=  0.00196622
 Iteration  2 RMS(Cart)=  0.00165257 RMS(Int)=  0.00066486
 Iteration  3 RMS(Cart)=  0.00000216 RMS(Int)=  0.00066485
 Iteration  4 RMS(Cart)=  0.00000000 RMS(Int)=  0.00066485
 ITry= 1 IFail=0 DXMaxC= 6.90D-02 DCOld= 1.00D+10 DXMaxT= 5.05D-01 DXLimC= 3.00D+00 Rises=F
 Variable       Old X    -DE/DX   Delta X   Delta X   Delta X     New X
                                 (Linear)    (Quad)   (Total)
    R1        2.46719  -0.01645  -0.03862   0.03268  -0.00569   2.46150
    R2        2.64303  -0.04128  -0.05834  -0.02717  -0.08483   2.55820
    R3        1.92554   0.04860   0.02136   0.08283   0.10419   2.02973
    R4        2.60340  -0.02693  -0.03618  -0.00079  -0.03748   2.56592
    R5        2.03598  -0.01002  -0.01239  -0.00813  -0.02052   2.01546
    R6        2.47797   0.04318   0.00872   0.07376   0.08190   2.55987
    R7        2.49548  -0.03643  -0.05528   0.01672  -0.03838   2.45709
    R8        2.08079  -0.02197  -0.01985  -0.04285  -0.06270   2.01808
    R9        1.97994   0.02113   0.00611   0.05297   0.05908   2.03903
    A1        1.87613   0.01140   0.01033   0.00704   0.01725   1.89338
    A2        2.20439  -0.00350  -0.00248   0.00768   0.00366   2.20805
    A3        2.19833  -0.00762  -0.00746  -0.00769  -0.01668   2.18165
    A4        1.91031  -0.00163  -0.00483  -0.00351  -0.00852   1.90180
    A5        2.35362  -0.00598  -0.00287  -0.03263  -0.03552   2.31810
    A6        2.01916   0.00762   0.00771   0.03641   0.04409   2.06326
    A7        1.84056  -0.00806  -0.00588   0.00381  -0.00337   1.83720
    A8        1.95916  -0.01370  -0.01028  -0.03057  -0.04179   1.91737
    A9        2.08456   0.00682   0.00875   0.00350   0.01161   2.09617
   A10        2.23848   0.00698   0.00168   0.02991   0.03091   2.26939
   A11        1.83812   0.01206   0.01075   0.02495   0.03653   1.87465
   A12        2.25349  -0.01115  -0.00929  -0.03871  -0.04847   2.20501
   A13        2.19158  -0.00091  -0.00146   0.01374   0.01177   2.20334
    D1        0.00627  -0.00058  -0.00097  -0.01607  -0.01778  -0.01151
    D2       -3.11975  -0.00135  -0.00182  -0.04032  -0.04205   3.12138
    D3        3.05236   0.00223   0.00275   0.06076   0.06300   3.11536
    D4       -0.07367   0.00146   0.00190   0.03650   0.03873  -0.03494
    D5        0.01181  -0.00016  -0.00028  -0.01566  -0.01689  -0.00508
    D6       -3.12856   0.00057   0.00079   0.00162   0.00113  -3.12743
    D7       -3.03470  -0.00325  -0.00437  -0.09322  -0.09753  -3.13223
    D8        0.10812  -0.00252  -0.00331  -0.07593  -0.07951   0.02861
    D9       -0.02207   0.00181   0.00249   0.04237   0.04492   0.02285
   D10        3.10728   0.00229   0.00307   0.06083   0.06441  -3.11150
   D11        0.03057  -0.00220  -0.00293  -0.05456  -0.05688  -0.02631
   D12        3.12842   0.00030   0.00013   0.00942   0.00872   3.13715
   D13       -0.02689   0.00169   0.00219   0.04493   0.04671   0.01982
   D14        3.11354   0.00098   0.00118   0.02839   0.02865  -3.14099
   D15       -3.11997  -0.00100  -0.00141  -0.02500  -0.02651   3.13671
   D16        0.02046  -0.00170  -0.00242  -0.04153  -0.04456  -0.02410
         Item               Value     Threshold  Converged?
 Maximum Force            0.048602     0.000450     NO 
 RMS     Force            0.016421     0.000300     NO 
 Maximum Displacement     0.069039     0.001800     NO 
 RMS     Displacement     0.034763     0.001200     NO 
 Predicted change in Energy=-1.233904D-02
 Lowest energy point so far.  Saving SCF results.
 GradGradGradGradGradGradGradGradGradGradGradGradGradGradGradGradGradGrad

 Leave Link  103 at Tue Dec  1 17:37:44 2015, MaxMem=    33554432 cpu:         0.0
 (Enter /home/Applications/g09/g09/l202.exe)
                          Input orientation:                          
 ---------------------------------------------------------------------
 Center     Atomic      Atomic             Coordinates (Angstroms)
 Number     Number       Type             X           Y           Z
 ---------------------------------------------------------------------
      1          6           0        0.905532   -0.681186   -0.005874
      2          6           0       -0.331395   -1.089422   -0.012836
      3          8           0       -1.152937   -0.008690    0.015151
      4          6           0       -0.328554    1.066191    0.009294
      5          6           0        0.910622    0.672428    0.011989
      6          1           0        1.782126    1.308610    0.009183
      7          1           0       -0.735555    2.053411    0.023703
      8          1           0       -0.774556   -2.059088   -0.042004
      9          1           0        1.782947   -1.300680   -0.000215
 ---------------------------------------------------------------------
                    Distance matrix (angstroms):
                    1          2          3          4          5
     1  C    0.000000
     2  C    1.302572   0.000000
     3  O    2.165638   1.357828   0.000000
     4  C    2.139281   2.155728   1.354625   0.000000
     5  C    1.353741   2.155769   2.173064   1.300236   0.000000
     6  H    2.174381   3.196563   3.217128   2.124556   1.079006
     7  H    3.189368   3.168924   2.103935   1.067924   2.148756
     8  H    2.173158   1.066534   2.085803   3.157359   3.209972
     9  H    1.074086   2.124907   3.207629   3.171845   2.157371
                    6          7          8          9
     6  H    0.000000
     7  H    2.625577   0.000000
     8  H    4.228550   4.113209   0.000000
     9  H    2.609307   4.194443   2.667911   0.000000
 Stoichiometry    C4H4O
 Framework group  C1[X(C4H4O)]
 Deg. of freedom    21
 Full point group                 C1      NOp   1
 RotChk:  IX=2 Diff= 1.55D-01
 Largest Abelian subgroup         C1      NOp   1
 Largest concise Abelian subgroup C1      NOp   1
                         Standard orientation:                         
 ---------------------------------------------------------------------
 Center     Atomic      Atomic             Coordinates (Angstroms)
 Number     Number       Type             X           Y           Z
 ---------------------------------------------------------------------
      1          6           0        0.573598    0.978262    0.000581
      2          6           0        1.110684   -0.208416   -0.004570
      3          8           0        0.122865   -1.139935    0.008913
      4          6           0       -1.033200   -0.434062   -0.007475
      5          6           0       -0.773046    0.839841    0.002731
      6          1           0       -1.497940    1.639039   -0.005398
      7          1           0       -1.971823   -0.943419   -0.005500
      8          1           0        2.122125   -0.546237   -0.023523
      9          1           0        1.096505    1.916348    0.015516
 ---------------------------------------------------------------------
 Rotational constants (GHZ):      9.9799225      9.8456835      4.9564765
 Leave Link  202 at Tue Dec  1 17:37:44 2015, MaxMem=    33554432 cpu:         0.0
 (Enter /home/Applications/g09/g09/l301.exe)

 Semi-emprical parameters in input format:
 Method=8 CoreType=1 PeptideFC=0.0120930000 RIJScale=0.5388840000
 ****
 H       
 PQN=1 NValence=1 F0ss=0.5586300000 ZetaOverlap=1.0950750000 U=-0.4119510000
 Beta=-0.2338190000 CoreKO=1.1007910000 KON=0,0,0,0.9764370000 KON=1,0,1,1.1361190000
 KON=0,1,1,1.0139660000 KON=2,1,1,1.2635130000 EISol=-0.4188110042 EHeat=0.0830298228
 Alpha=1.4078420000
 GCore=0.0080140000,1.2229470000,2.2663690000
 GCore=0.0002960000,1.5853770000,2.7382840000
 GCore=-0.0012210000,0.6561060000,3.9519220000
 ****
 C       
 PQN=2,2 NValence=4 F0ss=0.4805700000 F0sp=0.4819370000 F0pp=0.3439950000 F2pp=0.1961420000
 G1sp=0.2678900000
 ZetaOverlap=1.8366850000,1.4875730000
 U=-1.4842670000,-1.3886060000
 Beta=-0.6376780000,-0.3536670000 DDN=0,1,0.9094820000 DDN=1,1,0.8346670000
 CoreKO=1.1045690000 KON=0,0,0,1.0182330000 KON=1,0,1,0.7342900000 KON=0,1,1,1.1944780000
 KON=2,1,1,0.7056720000 EISol=-4.4398989268 EHeat=0.2723305520 Alpha=1.4025920000
 DipHyp=1.8188593534
 GCore=0.0007870000,1.5590290000,2.8992300000
 GCore=0.0031100000,1.3744800000,3.7653660000
 GCore=-0.0013700000,1.3772400000,4.0631190000
 GCore=-0.0000820000,1.5210550000,5.3709760000
 ****
 O       
 PQN=2,2 NValence=6 F0ss=0.7455940000 F0sp=0.5814220000 F0pp=0.4393740000 F2pp=0.2294290000
 G1sp=0.3535640000
 ZetaOverlap=2.7714830000,2.5744810000
 U=-3.8069400000,-2.7329690000
 Beta=-1.1272460000,-1.1587550000 DDN=0,1,0.5172290000 DDN=1,1,0.4110560000
 CoreKO=0.8743200000 KON=0,0,0,0.8886000000 KON=1,0,1,0.5063100000 KON=0,1,1,0.8996480000
 KON=2,1,1,0.5582300000 EISol=-11.6164441184 EHeat=0.0949133088 Alpha=2.3820330000
 DipHyp=1.0343984867
 GCore=0.0192970000,1.5130470000,1.5620930000
 GCore=0.0058890000,1.6294880000,2.3818730000
 ****
 
 Standard basis: VSTO-6G (5D, 7F)
 Ernie: Thresh=  0.10000D-02 Tol=  0.10000D-05 Strict=F.
  NNHCO=     0 NNPyr=     0 NCTC=     0               EPep=         0.000000000
    EC=        69.950958512  ECS=         2.089402492   EG=         0.349243266
   EHC=         0.000000000  EAt=       -31.051283842  AtH=         1.516354808
 EPDDG=         0.000000000  ECC=        72.389604271 EAtT=        32.567638650
 There are    24 symmetry adapted cartesian basis functions of A   symmetry.
 There are    24 symmetry adapted basis functions of A   symmetry.
    24 basis functions,   144 primitive gaussians,    24 cartesian basis functions
    13 alpha electrons       13 beta electrons
       nuclear repulsion energy       104.9572429210 Hartrees.
 IExCor=    0 DFT=F Ex=HF Corr=None ExCW=0 ScaHFX=  1.000000
 ScaDFX=  1.000000  1.000000  1.000000  1.000000 ScalE2=  1.000000  1.000000
 IRadAn=      0 IRanWt=     -1 IRanGd=            0 ICorTp=0 IEmpDi=  4
 Integral buffers will be    131072 words long.
 Regular integral format.
 Two-electron integral symmetry is turned off.
 Leave Link  301 at Tue Dec  1 17:37:44 2015, MaxMem=    33554432 cpu:         0.0
 (Enter /home/Applications/g09/g09/l302.exe)
 Do NDO integrals.
 NPDir=0 NMtPBC=     1 NCelOv=     1 NCel=       1 NClECP=     1 NCelD=      1
         NCelK=      1 NCelE2=     1 NClLst=     1 CellRange=     0.0.
 One-electron integrals computed using PRISM.
 NBasis=    24 RedAO= F EigKep=  0.00D+00  NBF=    24
 NBsUse=    24 1.00D-04 EigRej=  0.00D+00 NBFU=    24
 Leave Link  302 at Tue Dec  1 17:37:44 2015, MaxMem=    33554432 cpu:         0.0
 (Enter /home/Applications/g09/g09/l303.exe)
 DipDrv:  MaxL=1.
 Leave Link  303 at Tue Dec  1 17:37:44 2015, MaxMem=    33554432 cpu:         0.0
 (Enter /home/Applications/g09/g09/l401.exe)
 Initial guess from the checkpoint file:  "/home/Applications/g09/scratch/Gau-23878.chk"
 B after Tr=     0.000000    0.000000    0.000000
         Rot=    0.998500    0.000068    0.000022   -0.054743 Ang=   6.28 deg.
 Guess basis will be translated and rotated to current coordinates.
 JPrj=0 DoOrth=T DoCkMO=T.
 Leave Link  401 at Tue Dec  1 17:37:44 2015, MaxMem=    33554432 cpu:         0.0
 (Enter /home/Applications/g09/g09/l502.exe)
 Closed shell SCF:
 Using DIIS extrapolation, IDIIS=  1040.
 Overlap will be assumed to be unity.
 Two-electron integral symmetry not used.
 Keep J ints in memory in canonical form, NReq=888082.
 IVT=       79475 IEndB=       79475 NGot=    33554432 MDV=    33473473
 LenX=    33473473 LenY=    33472456
 Requested convergence on RMS density matrix=1.00D-08 within 128 cycles.
 Requested convergence on MAX density matrix=1.00D-06.
 Requested convergence on             energy=1.00D-06.
 No special actions if energy rises.
 FoFCou: FMM=F IPFlag=           0 FMFlag=           0 FMFlg1=           0
         NFxFlg=           0 DoJE=F BraDBF=F KetDBF=F FulRan=T
         wScrn=  0.000000 ICntrl=     600 IOpCl=  2 I1Cent=           0 NGrid=           0
         NMat0=    1 NMatS0=     54 NMatT0=    0 NMatD0=    1 NMtDS0=    0 NMtDT0=    0
 Symmetry not used in FoFCou.

 Cycle   1  Pass 1  IDiag  1:
 E=  1.75921574601675    
 DIIS: error= 6.59D-03 at cycle   1 NSaved=   1.
 NSaved= 1 IEnMin= 1 EnMin=  1.75921574601675     IErMin= 1 ErrMin= 6.59D-03
 ErrMax= 6.59D-03  0.00D+00 EMaxC= 1.00D-01 BMatC= 2.79D-03 BMatP= 2.79D-03
 IDIUse=3 WtCom= 9.34D-01 WtEn= 6.59D-02
 Coeff-Com:  0.100D+01
 Coeff-En:   0.100D+01
 Coeff:      0.100D+01
 GapD=    2.000 DampG=2.000 DampE=1.000 DampFc=2.0000 IDamp=-1.
 RMSDP=2.88D-03 MaxDP=1.02D-02              OVMax= 0.00D+00

 Cycle   2  Pass 1  IDiag  3:
 E=  1.75308503775946     Delta-E=       -0.006130708257 Rises=F Damp=F
 DIIS: error= 1.50D-03 at cycle   2 NSaved=   2.
 NSaved= 2 IEnMin= 2 EnMin=  1.75308503775946     IErMin= 2 ErrMin= 1.50D-03
 ErrMax= 1.50D-03  0.00D+00 EMaxC= 1.00D-01 BMatC= 1.87D-04 BMatP= 2.79D-03
 IDIUse=3 WtCom= 9.85D-01 WtEn= 1.50D-02
 Coeff-Com: -0.300D+00 0.130D+01
 Coeff-En:   0.000D+00 0.100D+01
 Coeff:     -0.295D+00 0.130D+01
 Gap=     0.435 Goal=   None    Shift=    0.000
 RMSDP=1.18D-03 MaxDP=4.10D-03 DE=-6.13D-03 OVMax= 5.57D-03

 Cycle   3  Pass 1  IDiag  3:
 E=  1.75249658633125     Delta-E=       -0.000588451428 Rises=F Damp=F
 DIIS: error= 3.02D-04 at cycle   3 NSaved=   3.
 NSaved= 3 IEnMin= 3 EnMin=  1.75249658633125     IErMin= 3 ErrMin= 3.02D-04
 ErrMax= 3.02D-04  0.00D+00 EMaxC= 1.00D-01 BMatC= 5.67D-06 BMatP= 1.87D-04
 IDIUse=3 WtCom= 9.97D-01 WtEn= 3.02D-03
 Coeff-Com:  0.112D+00-0.552D+00 0.144D+01
 Coeff-En:   0.000D+00 0.000D+00 0.100D+01
 Coeff:      0.111D+00-0.550D+00 0.144D+01
 Gap=     0.435 Goal=   None    Shift=    0.000
 RMSDP=3.16D-04 MaxDP=1.64D-03 DE=-5.88D-04 OVMax= 2.25D-03

 Cycle   4  Pass 1  IDiag  3:
 E=  1.75246831865290     Delta-E=       -0.000028267678 Rises=F Damp=F
 DIIS: error= 6.96D-05 at cycle   4 NSaved=   4.
 NSaved= 4 IEnMin= 4 EnMin=  1.75246831865290     IErMin= 4 ErrMin= 6.96D-05
 ErrMax= 6.96D-05  0.00D+00 EMaxC= 1.00D-01 BMatC= 2.50D-07 BMatP= 5.67D-06
 IDIUse=1 WtCom= 1.00D+00 WtEn= 0.00D+00
 Coeff-Com: -0.221D-01 0.116D+00-0.435D+00 0.134D+01
 Coeff:     -0.221D-01 0.116D+00-0.435D+00 0.134D+01
 Gap=     0.435 Goal=   None    Shift=    0.000
 RMSDP=7.46D-05 MaxDP=5.87D-04 DE=-2.83D-05 OVMax= 7.23D-04

 Cycle   5  Pass 1  IDiag  3:
 E=  1.75246687844835     Delta-E=       -0.000001440205 Rises=F Damp=F
 DIIS: error= 2.88D-05 at cycle   5 NSaved=   5.
 NSaved= 5 IEnMin= 5 EnMin=  1.75246687844835     IErMin= 5 ErrMin= 2.88D-05
 ErrMax= 2.88D-05  0.00D+00 EMaxC= 1.00D-01 BMatC= 1.84D-08 BMatP= 2.50D-07
 IDIUse=1 WtCom= 1.00D+00 WtEn= 0.00D+00
 Coeff-Com: -0.732D-03 0.201D-02 0.311D-01-0.394D+00 0.136D+01
 Coeff:     -0.732D-03 0.201D-02 0.311D-01-0.394D+00 0.136D+01
 Gap=     0.435 Goal=   None    Shift=    0.000
 RMSDP=2.20D-05 MaxDP=2.33D-04 DE=-1.44D-06 OVMax= 2.50D-04

 Cycle   6  Pass 1  IDiag  3:
 E=  1.75246676934168     Delta-E=       -0.000000109107 Rises=F Damp=F
 DIIS: error= 5.73D-06 at cycle   6 NSaved=   6.
 NSaved= 6 IEnMin= 6 EnMin=  1.75246676934168     IErMin= 6 ErrMin= 5.73D-06
 ErrMax= 5.73D-06  0.00D+00 EMaxC= 1.00D-01 BMatC= 1.19D-09 BMatP= 1.84D-08
 IDIUse=1 WtCom= 1.00D+00 WtEn= 0.00D+00
 Coeff-Com:  0.144D-02-0.727D-02 0.166D-01 0.544D-01-0.498D+00 0.143D+01
 Coeff:      0.144D-02-0.727D-02 0.166D-01 0.544D-01-0.498D+00 0.143D+01
 Gap=     0.435 Goal=   None    Shift=    0.000
 RMSDP=5.64D-06 MaxDP=5.88D-05 DE=-1.09D-07 OVMax= 6.58D-05

 Cycle   7  Pass 1  IDiag  3:
 E=  1.75246676251840     Delta-E=       -0.000000006823 Rises=F Damp=F
 DIIS: error= 8.10D-07 at cycle   7 NSaved=   7.
 NSaved= 7 IEnMin= 7 EnMin=  1.75246676251840     IErMin= 7 ErrMin= 8.10D-07
 ErrMax= 8.10D-07  0.00D+00 EMaxC= 1.00D-01 BMatC= 5.12D-11 BMatP= 1.19D-09
 IDIUse=1 WtCom= 1.00D+00 WtEn= 0.00D+00
 Coeff-Com: -0.647D-03 0.331D-02-0.922D-02-0.362D-02 0.148D+00-0.605D+00
 Coeff-Com:  0.147D+01
 Coeff:     -0.647D-03 0.331D-02-0.922D-02-0.362D-02 0.148D+00-0.605D+00
 Coeff:      0.147D+01
 Gap=     0.435 Goal=   None    Shift=    0.000
 RMSDP=1.13D-06 MaxDP=8.47D-06 DE=-6.82D-09 OVMax= 1.07D-05

 Cycle   8  Pass 1  IDiag  3:
 E=  1.75246676224103     Delta-E=       -0.000000000277 Rises=F Damp=F
 DIIS: error= 8.70D-08 at cycle   8 NSaved=   8.
 NSaved= 8 IEnMin= 8 EnMin=  1.75246676224103     IErMin= 8 ErrMin= 8.70D-08
 ErrMax= 8.70D-08  0.00D+00 EMaxC= 1.00D-01 BMatC= 1.04D-12 BMatP= 5.12D-11
 IDIUse=1 WtCom= 1.00D+00 WtEn= 0.00D+00
 Coeff-Com:  0.172D-03-0.884D-03 0.258D-02-0.344D-03-0.352D-01 0.158D+00
 Coeff-Com: -0.478D+00 0.135D+01
 Coeff:      0.172D-03-0.884D-03 0.258D-02-0.344D-03-0.352D-01 0.158D+00
 Coeff:     -0.478D+00 0.135D+01
 Gap=     0.435 Goal=   None    Shift=    0.000
 RMSDP=1.46D-07 MaxDP=8.65D-07 DE=-2.77D-10 OVMax= 9.94D-07

 Cycle   9  Pass 1  IDiag  3:
 E=  1.75246676223625     Delta-E=       -0.000000000005 Rises=F Damp=F
 DIIS: error= 1.97D-08 at cycle   9 NSaved=   9.
 NSaved= 9 IEnMin= 9 EnMin=  1.75246676223625     IErMin= 9 ErrMin= 1.97D-08
 ErrMax= 1.97D-08  0.00D+00 EMaxC= 1.00D-01 BMatC= 2.98D-14 BMatP= 1.04D-12
 IDIUse=1 WtCom= 1.00D+00 WtEn= 0.00D+00
 Coeff-Com: -0.614D-04 0.316D-03-0.918D-03 0.652D-04 0.130D-01-0.569D-01
 Coeff-Com:  0.178D+00-0.580D+00 0.145D+01
 Coeff:     -0.614D-04 0.316D-03-0.918D-03 0.652D-04 0.130D-01-0.569D-01
 Coeff:      0.178D+00-0.580D+00 0.145D+01
 Gap=     0.435 Goal=   None    Shift=    0.000
 RMSDP=2.32D-08 MaxDP=9.28D-08 DE=-4.77D-12 OVMax= 1.56D-07

 Cycle  10  Pass 1  IDiag  3:
 E=  1.75246676223588     Delta-E=        0.000000000000 Rises=F Damp=F
 DIIS: error= 4.87D-09 at cycle  10 NSaved=  10.
 NSaved=10 IEnMin=10 EnMin=  1.75246676223588     IErMin=10 ErrMin= 4.87D-09
 ErrMax= 4.87D-09  0.00D+00 EMaxC= 1.00D-01 BMatC= 1.10D-15 BMatP= 2.98D-14
 IDIUse=1 WtCom= 1.00D+00 WtEn= 0.00D+00
 Coeff-Com:  0.103D-04-0.531D-04 0.151D-03 0.610D-05-0.225D-02 0.937D-02
 Coeff-Com: -0.300D-01 0.105D+00-0.397D+00 0.131D+01
 Coeff:      0.103D-04-0.531D-04 0.151D-03 0.610D-05-0.225D-02 0.937D-02
 Coeff:     -0.300D-01 0.105D+00-0.397D+00 0.131D+01
 Gap=     0.435 Goal=   None    Shift=    0.000
 RMSDP=4.63D-09 MaxDP=3.08D-08 DE=-3.69D-13 OVMax= 3.48D-08

 Cycle  11  Pass 2  IDiag  1:
 SCF Done:  E(RAM1) =   1.75246676224     A.U. after   11 cycles
            NFock= 10  Conv=0.46D-08     -V/T= 1.1329
 KE=-1.318349058286D+01 PE=-1.735006734966D+02 EE= 8.347938792074D+01
 Leave Link  502 at Tue Dec  1 17:37:44 2015, MaxMem=    33554432 cpu:         0.0
 (Enter /home/Applications/g09/g09/l701.exe)
 Compute integral first derivatives.
 ... and contract with generalized density number  0.
 Leave Link  701 at Tue Dec  1 17:37:44 2015, MaxMem=    33554432 cpu:         0.0
 (Enter /home/Applications/g09/g09/l702.exe)
 L702 exits ... SP integral derivatives will be done elsewhere.
 Leave Link  702 at Tue Dec  1 17:37:44 2015, MaxMem=    33554432 cpu:         0.0
 (Enter /home/Applications/g09/g09/l703.exe)
 Compute integral first derivatives, UseDBF=F ICtDFT=           0.
 Integral derivatives from FoFJK, PRISM(SPDF).
 Calling FoFJK, ICntrl=      2127 FMM=F ISym2X=0 I1Cent= 0 IOpClX= 0 NMat=1 NMatS=1 NMatT=0.
 FoFJK:  IHMeth= 8 ICntrl=    2127 DoSepK=F KAlg= 0 I1Cent=   0 FoldK=F
 IRaf=         0 NMat=   1 IRICut=       1 DoRegI=T DoRafI=F ISym2E= 0.
 FoFCou: FMM=F IPFlag=           0 FMFlag=      100000 FMFlg1=         800
         NFxFlg=           0 DoJE=F BraDBF=F KetDBF=F FulRan=T
         wScrn=  0.000000 ICntrl=    2127 IOpCl=  0 I1Cent=           0 NGrid=           0
         NMat0=    1 NMatS0=      1 NMatT0=    0 NMatD0=    1 NMtDS0=    0 NMtDT0=    0
 Symmetry not used in FoFCou.
 Leave Link  703 at Tue Dec  1 17:37:44 2015, MaxMem=    33554432 cpu:         0.0
 (Enter /home/Applications/g09/g09/l716.exe)
 Dipole        =-1.84780403D-02 1.68824729D-01-1.02436673D-02
 ***** Axes restored to original set *****
 -------------------------------------------------------------------
 Center     Atomic                   Forces (Hartrees/Bohr)
 Number     Number              X              Y              Z
 -------------------------------------------------------------------
      1        6          -0.008920949   -0.007511005    0.000931183
      2        6          -0.000739431    0.005820450    0.001674276
      3        8           0.007494094   -0.000231222   -0.004607070
      4        6           0.000141748    0.002919256    0.005627706
      5        6          -0.007102597    0.004822936   -0.003360919
      6        1           0.002481180    0.000227544    0.000587751
      7        1          -0.001376092   -0.002171389   -0.000761501
      8        1           0.002991139    0.000058249    0.000852398
      9        1           0.005030906   -0.003934818   -0.000943823
 -------------------------------------------------------------------
 Cartesian Forces:  Max     0.008920949 RMS     0.004045355
 Leave Link  716 at Tue Dec  1 17:37:44 2015, MaxMem=    33554432 cpu:         0.0
 (Enter /home/Applications/g09/g09/l103.exe)

 GradGradGradGradGradGradGradGradGradGradGradGradGradGradGradGradGradGrad
 Berny optimization.
 Using GEDIIS/GDIIS optimizer.
 FormGI is forming the generalized inverse of G from B-inverse, IUseBI=4.
 Internal  Forces:  Max     0.007017593 RMS     0.002549174
 Search for a local minimum.
 Step number   3 out of a maximum of   48
 All quantities printed in internal units (Hartrees-Bohrs-Radians)
 RMS Force = .25492D-02 SwitMx=.10000D-02 MixMth= 1
 Mixed Optimization -- RFO/linear search
 Update second derivatives using D2CorX and points    1    2    3
 DE= -1.09D-02 DEPred=-1.23D-02 R= 8.85D-01
 TightC=F SS=  1.41D+00  RLast= 2.91D-01 DXNew= 8.4853D-01 8.7410D-01
 Trust test= 8.85D-01 RLast= 2.91D-01 DXMaxT set to 8.49D-01
 ITU=  1  1  0
 Use linear search instead of GDIIS.
     Eigenvalues ---    0.01398   0.01738   0.01795   0.02174   0.02308
     Eigenvalues ---    0.02416   0.15475   0.15998   0.15998   0.16071
     Eigenvalues ---    0.21691   0.22740   0.30109   0.33992   0.36371
     Eigenvalues ---    0.38979   0.40469   0.45794   0.47205   0.63052
     Eigenvalues ---    0.86296
 RFO step:  Lambda=-1.42337793D-03 EMin= 1.39814567D-02
 Quartic linear search produced a step of  0.02176.
 Iteration  1 RMS(Cart)=  0.01863416 RMS(Int)=  0.00080097
 Iteration  2 RMS(Cart)=  0.00060257 RMS(Int)=  0.00050936
 Iteration  3 RMS(Cart)=  0.00000031 RMS(Int)=  0.00050936
 ITry= 1 IFail=0 DXMaxC= 7.80D-02 DCOld= 1.00D+10 DXMaxT= 8.49D-01 DXLimC= 3.00D+00 Rises=F
 Variable       Old X    -DE/DX   Delta X   Delta X   Delta X     New X
                                 (Linear)    (Quad)   (Total)
    R1        2.46150  -0.00702  -0.00012  -0.01533  -0.01547   2.44603
    R2        2.55820   0.00683  -0.00185   0.01610   0.01437   2.57257
    R3        2.02973   0.00637   0.00227   0.01884   0.02110   2.05083
    R4        2.56592  -0.00325  -0.00082  -0.01180  -0.01273   2.55319
    R5        2.01546  -0.00132  -0.00045  -0.00521  -0.00565   2.00980
    R6        2.55987  -0.00320   0.00178  -0.00051   0.00120   2.56107
    R7        2.45709  -0.00198  -0.00084  -0.00701  -0.00775   2.44934
    R8        2.01808  -0.00149  -0.00136  -0.00847  -0.00984   2.00824
    R9        2.03903   0.00214   0.00129   0.00839   0.00968   2.04870
    A1        1.89338  -0.00187   0.00038  -0.00642  -0.00650   1.88688
    A2        2.20805   0.00061   0.00008   0.00173   0.00197   2.21003
    A3        2.18165   0.00126  -0.00036   0.00482   0.00462   2.18627
    A4        1.90180   0.00073  -0.00019   0.00154   0.00066   1.90245
    A5        2.31810  -0.00307  -0.00077  -0.01997  -0.02052   2.29758
    A6        2.06326   0.00234   0.00096   0.01826   0.01944   2.08270
    A7        1.83720   0.00380  -0.00007   0.01390   0.01279   1.84999
    A8        1.91737  -0.00308  -0.00091  -0.01411  -0.01641   1.90096
    A9        2.09617  -0.00057   0.00025  -0.00614  -0.00658   2.08959
   A10        2.26939   0.00369   0.00067   0.02199   0.02187   2.29126
   A11        1.87465   0.00048   0.00080   0.00761   0.00785   1.88250
   A12        2.20501  -0.00153  -0.00105  -0.01315  -0.01432   2.19070
   A13        2.20334   0.00106   0.00026   0.00630   0.00641   2.20976
    D1       -0.01151   0.00078  -0.00039   0.03170   0.03110   0.01959
    D2        3.12138   0.00009  -0.00092   0.00751   0.00650   3.12788
    D3        3.11536   0.00101   0.00137   0.04133   0.04286  -3.12497
    D4       -0.03494   0.00032   0.00084   0.01714   0.01825  -0.01668
    D5       -0.00508   0.00049  -0.00037   0.02403   0.02399   0.01891
    D6       -3.12743  -0.00030   0.00002  -0.01767  -0.01683   3.13892
    D7       -3.13223   0.00027  -0.00212   0.01461   0.01246  -3.11977
    D8        0.02861  -0.00052  -0.00173  -0.02709  -0.02836   0.00025
    D9        0.02285  -0.00162   0.00098  -0.07230  -0.07167  -0.04883
   D10       -3.11150  -0.00102   0.00140  -0.05197  -0.05037   3.12132
   D11       -0.02631   0.00201  -0.00124   0.08856   0.08711   0.06080
   D12        3.13715   0.00025   0.00019   0.01356   0.01512  -3.13091
[...]
               16            17            18            19            20 
     16  0.133590D+00
     17 -0.560573D-01  0.112128D+00
     18  0.270869D-01 -0.617654D-01  0.945781D-01
     19  0.289704D-01 -0.503629D-01 -0.328127D-01  0.831756D-01
     20 -0.107351D-01 -0.258166D-01  0.193180D-01  0.649865D-02  0.938124D-01
     21  0.964337D-02  0.148942D-01 -0.959638D-02 -0.529781D-02 -0.470597D-01
     22  0.109176D-02  0.109224D-01 -0.972161D-02 -0.120084D-02 -0.467527D-01
     23  0.325275D-05  0.000000D+00  0.223155D-05 -0.353833D-05 -0.588546D-05
     24 -0.174866D-05  0.000000D+00  0.000000D+00  0.000000D+00 -0.378242D-05
     25  0.293981D-05  0.112608D-05  0.000000D+00 -0.265784D-05 -0.220964D-05
     26 -0.206160D-05  0.000000D+00 -0.225161D-05  0.179765D-05  0.000000D+00
     27  0.000000D+00 -0.148744D-05 -0.144531D-05  0.000000D+00  0.626859D-05
     28  0.161708D-05  0.168704D-05 -0.494490D-05  0.140883D-05 -0.174986D-05
     29 -0.109630D-05 -0.150071D-05  0.126540D-05  0.000000D+00  0.301134D-05
     30  0.139448D-05  0.167378D-05 -0.223418D-05  0.000000D+00 -0.500711D-05
     31 -0.340664D-05  0.000000D+00 -0.298017D-05  0.592748D-05  0.000000D+00
     32  0.000000D+00  0.000000D+00 -0.142064D-05  0.270152D-05 -0.236257D-05
     33  0.246218D-05 -0.593529D-05  0.446895D-05 -0.364543D-05  0.711674D-05
     34  0.000000D+00  0.000000D+00 -0.143591D-04  0.161532D-04  0.351416D-05
     35 -0.452294D-05  0.771075D-05 -0.385837D-05  0.000000D+00 -0.645576D-05
     36 -0.343675D-05  0.588110D-05  0.000000D+00 -0.181510D-05  0.283028D-05
     37  0.185153D-05 -0.213333D-05 -0.644401D-05  0.518609D-05 -0.380523D-05
     38  0.293772D-05 -0.396298D-05 -0.256170D-05  0.249504D-05  0.548082D-05
               21            22            23            24            25 
     21  0.739000D-01
     22 -0.268404D-01  0.735931D-01
     23  0.411643D-05 -0.395198D-05  0.228217D-01
     24 -0.249860D-05  0.417816D-05  0.325364D-02  0.172846D-01
     25  0.895414D-05 -0.967762D-05  0.917169D-02 -0.775381D-02  0.154811D-01
     26  0.233911D-05 -0.154747D-05 -0.103964D-01  0.627711D-02 -0.144444D-02
     27 -0.127133D-05  0.337234D-05 -0.177995D-01 -0.755867D-02 -0.297945D-02
     28  0.187087D-04 -0.196308D-04 -0.787609D-02 -0.391115D-02  0.210818D-02
     29 -0.632088D-05  0.894841D-05 -0.442941D-02  0.322301D-02 -0.915941D-02
     30  0.136592D-04 -0.140547D-04  0.549397D-02  0.687053D-02 -0.407178D-02
     31 -0.363743D-05  0.547389D-05 -0.191146D-01  0.203752D-02 -0.116410D-01
     32  0.177280D-05 -0.143951D-05 -0.227040D-02 -0.100403D-01  0.292854D-02
     33  0.130178D-05 -0.419786D-05  0.783116D-02 -0.682942D-02  0.975246D-02
     34  0.100463D-04 -0.106241D-04  0.512996D-02 -0.801090D-03  0.153693D-02
     35 -0.121718D-05  0.000000D+00  0.573777D-02  0.887426D-02 -0.439105D-02
     36  0.221817D-04 -0.214479D-04 -0.439290D-02  0.515054D-02 -0.958495D-02
     37 -0.111551D-04  0.874409D-05  0.887539D-02  0.187196D-02  0.515184D-02
     38  0.122438D-04 -0.126687D-04 -0.125528D-02 -0.185176D-02 -0.420614D-04
               26            27            28            29            30 
     26  0.152290D-01
     27  0.726135D-02  0.221857D-01
     28  0.607311D-02  0.766817D-02  0.123027D-01
     29 -0.150698D-02  0.766958D-02 -0.211133D-02  0.123026D-01
     30 -0.269522D-02 -0.684790D-02  0.252325D-02  0.252166D-02  0.118928D-01
     31  0.951120D-02  0.703230D-02  0.514990D-02 -0.288098D-03 -0.217049D-02
     32 -0.484138D-02 -0.178301D-02  0.173688D-02 -0.687533D-02 -0.335544D-02
     33 -0.490811D-02  0.703216D-02 -0.288793D-03  0.515026D-02 -0.217069D-02
     34 -0.439412D-02 -0.178268D-02 -0.687588D-02  0.173666D-02 -0.335655D-02
     35 -0.125456D-02 -0.177975D-01 -0.442756D-02 -0.787645D-02  0.549353D-02
     36 -0.415080D-04 -0.297679D-02 -0.915893D-02  0.210877D-02 -0.407337D-02
     37 -0.185160D-02 -0.755852D-02  0.322379D-02 -0.391133D-02  0.687098D-02
     38 -0.638545D-03  0.726222D-02 -0.150759D-02  0.607389D-02 -0.269592D-02
               31            32            33            34            35 
     31  0.234804D-01
     32  0.527251D-02  0.119609D-01
     33 -0.190229D-01 -0.640300D-02  0.234814D-01
     34 -0.640087D-02 -0.129541D-02  0.527091D-02  0.119627D-01
     35  0.783110D-02  0.513120D-02 -0.191141D-01 -0.226959D-02  0.228184D-01
     36  0.975281D-02  0.153779D-02 -0.116402D-01  0.293002D-02  0.916909D-02
     37 -0.683018D-02 -0.801599D-03  0.203862D-02 -0.100426D-01  0.325234D-02
     38 -0.490847D-02 -0.439501D-02  0.951250D-02 -0.484298D-02 -0.103969D-01
               36            37            38 
     36  0.154804D-01
     37 -0.775522D-02  0.172855D-01
     38 -0.144391D-02  0.627791D-02  0.152309D-01
 Leave Link  716 at Tue Dec  1 17:37:45 2015, MaxMem=    33554432 cpu:         0.0
 (Enter /home/Applications/g09/g09/l103.exe)

 GradGradGradGradGradGradGradGradGradGradGradGradGradGradGradGradGradGrad
 Berny optimization.
 Red2BG is reusing G-inverse.
 Internal  Forces:  Max     0.000072503 RMS     0.000021715
 Search for a local minimum.
 Step number   1 out of a maximum of    2
 All quantities printed in internal units (Hartrees-Bohrs-Radians)
 Second derivative matrix not updated -- analytic derivatives used.
 ITU=  0
     Eigenvalues ---    0.01639   0.02070   0.03753   0.04041   0.07368
     Eigenvalues ---    0.08249   0.09709   0.09910   0.11459   0.11681
     Eigenvalues ---    0.16702   0.24982   0.37607   0.38139   0.40488
     Eigenvalues ---    0.41277   0.61503   0.62085   0.66456   0.78784
     Eigenvalues ---    1.04155
 Angle between quadratic step and forces=  61.96 degrees.
 Linear search not attempted -- first point.
 Iteration  1 RMS(Cart)=  0.00013509 RMS(Int)=  0.00000004
 Iteration  2 RMS(Cart)=  0.00000003 RMS(Int)=  0.00000002
 ITry= 1 IFail=0 DXMaxC= 3.88D-04 DCOld= 1.00D+10 DXMaxT= 3.00D-01 DXLimC= 3.00D+00 Rises=F
 Variable       Old X    -DE/DX   Delta X   Delta X   Delta X     New X
                                 (Linear)    (Quad)   (Total)
    R1        2.45414   0.00007   0.00000   0.00010   0.00010   2.45423
    R2        2.56921  -0.00006   0.00000  -0.00009  -0.00009   2.56912
    R3        2.04475   0.00003   0.00000   0.00008   0.00008   2.04483
    R4        2.55838   0.00000   0.00000   0.00000   0.00000   2.55838
    R5        2.01333   0.00001   0.00000   0.00001   0.00001   2.01335
    R6        2.55845  -0.00005   0.00000  -0.00007  -0.00007   2.55838
    R7        2.45426  -0.00002   0.00000  -0.00003  -0.00003   2.45423
    R8        2.01337  -0.00001   0.00000  -0.00002  -0.00002   2.01335
    R9        2.04481   0.00000   0.00000   0.00002   0.00002   2.04483
    A1        1.88407  -0.00003   0.00000  -0.00008  -0.00008   1.88399
    A2        2.21380   0.00002   0.00000   0.00008   0.00008   2.21389
    A3        2.18531   0.00000   0.00000   0.00000   0.00000   2.18531
    A4        1.90500  -0.00001   0.00000   0.00000   0.00000   1.90500
    A5        2.29387   0.00001   0.00000  -0.00001  -0.00001   2.29386
    A6        2.08432   0.00001   0.00000   0.00001   0.00001   2.08433
    A7        1.84678   0.00000   0.00000   0.00002   0.00002   1.84680
    A8        1.90503   0.00001   0.00000  -0.00003  -0.00003   1.90500
    A9        2.08438  -0.00002   0.00000  -0.00005  -0.00005   2.08433
   A10        2.29377   0.00000   0.00000   0.00009   0.00009   2.29386
   A11        1.88390   0.00003   0.00000   0.00010   0.00010   1.88399
   A12        2.18543  -0.00002   0.00000  -0.00013  -0.00013   2.18531
   A13        2.21386   0.00000   0.00000   0.00003   0.00003   2.21389
    D1        0.00002  -0.00001   0.00000  -0.00002  -0.00002   0.00000
    D2        3.14143   0.00001   0.00000   0.00016   0.00016   3.14159
    D3       -3.14148  -0.00001   0.00000  -0.00011  -0.00011  -3.14159
    D4       -0.00007   0.00000   0.00000   0.00007   0.00007   0.00000
    D5       -0.00006   0.00001   0.00000   0.00006   0.00006   0.00000
    D6       -3.14105  -0.00002   0.00000  -0.00054  -0.00054  -3.14159
    D7        3.14145   0.00001   0.00000   0.00014   0.00014   3.14159
    D8        0.00045  -0.00001   0.00000  -0.00045  -0.00045   0.00000
    D9        0.00002   0.00000   0.00000  -0.00002  -0.00002   0.00000
   D10       -3.14142  -0.00001   0.00000  -0.00017  -0.00017  -3.14159
   D11       -0.00005   0.00000   0.00000   0.00005   0.00005   0.00000
   D12        3.14128   0.00001   0.00000   0.00031   0.00031   3.14159
   D13        0.00007   0.00000   0.00000  -0.00007  -0.00007   0.00000
   D14        3.14105   0.00002   0.00000   0.00054   0.00054   3.14159
   D15       -3.14123  -0.00002   0.00000  -0.00036  -0.00036  -3.14159
   D16       -0.00024   0.00000   0.00000   0.00024   0.00024   0.00000
         Item               Value     Threshold  Converged?
 Maximum Force            0.000073     0.000450     YES
 RMS     Force            0.000022     0.000300     YES
 Maximum Displacement     0.000388     0.001800     YES
 RMS     Displacement     0.000135     0.001200     YES
 Predicted change in Energy=-3.522200D-08
 Optimization completed.
    -- Stationary point found.
                           ----------------------------
                           !   Optimized Parameters   !
                           ! (Angstroms and Degrees)  !
 --------------------------                            --------------------------
 ! Name  Definition              Value          Derivative Info.                !
 --------------------------------------------------------------------------------
 ! R1    R(1,2)                  1.2987         -DE/DX =    0.0001              !
 ! R2    R(1,5)                  1.3596         -DE/DX =   -0.0001              !
 ! R3    R(1,9)                  1.082          -DE/DX =    0.0                 !
 ! R4    R(2,3)                  1.3538         -DE/DX =    0.0                 !
 ! R5    R(2,8)                  1.0654         -DE/DX =    0.0                 !
 ! R6    R(3,4)                  1.3539         -DE/DX =    0.0                 !
 ! R7    R(4,5)                  1.2987         -DE/DX =    0.0                 !
 ! R8    R(4,7)                  1.0654         -DE/DX =    0.0                 !
 ! R9    R(5,6)                  1.0821         -DE/DX =    0.0                 !
 ! A1    A(2,1,5)              107.9492         -DE/DX =    0.0                 !
 ! A2    A(2,1,9)              126.8417         -DE/DX =    0.0                 !
 ! A3    A(5,1,9)              125.2091         -DE/DX =    0.0                 !
 ! A4    A(1,2,3)              109.1484         -DE/DX =    0.0                 !
 ! A5    A(1,2,8)              131.429          -DE/DX =    0.0                 !
 ! A6    A(3,2,8)              119.4226         -DE/DX =    0.0                 !
 ! A7    A(2,3,4)              105.8129         -DE/DX =    0.0                 !
 ! A8    A(3,4,5)              109.1502         -DE/DX =    0.0                 !
 ! A9    A(3,4,7)              119.4263         -DE/DX =    0.0                 !
 ! A10   A(5,4,7)              131.4235         -DE/DX =    0.0                 !
 ! A11   A(1,5,4)              107.9392         -DE/DX =    0.0                 !
 ! A12   A(1,5,6)              125.2162         -DE/DX =    0.0                 !
 ! A13   A(4,5,6)              126.8446         -DE/DX =    0.0                 !
 ! D1    D(5,1,2,3)              0.0013         -DE/DX =    0.0                 !
 ! D2    D(5,1,2,8)            179.9909         -DE/DX =    0.0                 !
 ! D3    D(9,1,2,3)           -179.9935         -DE/DX =    0.0                 !
 ! D4    D(9,1,2,8)             -0.0039         -DE/DX =    0.0                 !
 ! D5    D(2,1,5,4)             -0.0032         -DE/DX =    0.0                 !
 ! D6    D(2,1,5,6)           -179.9692         -DE/DX =    0.0                 !
 ! D7    D(9,1,5,4)            179.9917         -DE/DX =    0.0                 !
 ! D8    D(9,1,5,6)              0.0257         -DE/DX =    0.0                 !
 ! D9    D(1,2,3,4)              0.001          -DE/DX =    0.0                 !
 ! D10   D(8,2,3,4)           -179.9901         -DE/DX =    0.0                 !
 ! D11   D(2,3,4,5)             -0.003          -DE/DX =    0.0                 !
 ! D12   D(2,3,4,7)            179.9823         -DE/DX =    0.0                 !
 ! D13   D(3,4,5,1)              0.0038         -DE/DX =    0.0                 !
 ! D14   D(3,4,5,6)            179.9691         -DE/DX =    0.0                 !
 ! D15   D(7,4,5,1)           -179.9791         -DE/DX =    0.0                 !
 ! D16   D(7,4,5,6)             -0.0139         -DE/DX =    0.0                 !
 --------------------------------------------------------------------------------
 GradGradGradGradGradGradGradGradGradGradGradGradGradGradGradGradGradGrad

 Leave Link  103 at Tue Dec  1 17:37:46 2015, MaxMem=    33554432 cpu:         0.0
 (Enter /home/Applications/g09/g09/l9999.exe)
 1\1\GINC-DUSTIN-DESKTOP\Freq\RAM1\ZDO\C4H4O1\DUSTIN\01-Dec-2015\0\\#P 
 Geom=AllCheck Guess=TCheck SCRF=Check GenChk RAM1/ZDO Freq\\AM1-Repara
 m Input\\0,1\C,0.9023672681,-0.685297001,-0.0061235157\C,-0.3338846756
 ,-1.0830246983,-0.0130251423\O,-1.1483549428,-0.0016491472,-0.00122184
 8\C,-0.3297625378,1.0766196214,0.0132438667\C,0.9050457738,0.674167226
 7,0.0104560577\H,1.7903024987,1.2963539324,0.0190363091\H,-0.752405213
 4,2.0545717754,0.0241511784\H,-0.7602943955,-2.0592982686,-0.025762695
 1\H,1.7852162244,-1.3108694408,-0.0123632109\\Version=ES64L-G09RevD.01
 \State=1-A\HF=1.7520186\RMSD=2.387e-10\RMSF=3.649e-05\ZeroPoint=0.0787
 209\Thermal=0.0821449\Dipole=0.1735743,-0.0003553,0.0003151\DipoleDeri
 v=-0.5425684,0.3199574,0.0032189,0.1334944,-0.2472754,-0.001384,0.0008
 925,-0.0010925,-0.1201959,0.6240468,-0.1784384,-0.0017804,-0.3503706,-
 0.0503853,-0.0055669,-0.0038457,-0.0051864,0.3539283,-0.6150853,0.0010
 773,-0.0004486,0.0010548,-0.0356605,0.0037225,-0.0003837,0.0037652,-0.
 3443637,0.626078,0.1758646,0.0024808,0.3478183,-0.0524359,-0.0042457,0
 .0046295,-0.0046567,0.3539374,-0.5442492,-0.3188144,-0.0043739,-0.1323
 376,-0.245496,-0.0016388,-0.0022025,-0.0018853,-0.1201765,0.2083792,0.
 117344,0.0016798,0.1088347,0.1753182,0.0021279,0.0015632,0.0020862,0.0
 10873,0.0176244,-0.0726219,-0.000709,-0.0891409,0.1401898,0.0023829,-0
 .0009104,0.0024128,-0.0724478,0.018243,0.0731077,0.0010473,0.08961,0.1
 395439,0.0027552,0.0012632,0.0027096,-0.0724483,0.2075315,-0.1174763,-
 0.0011149,-0.1089637,0.1761988,0.0018468,-0.0010056,0.0018469,0.010894
 3\Polar=36.5053034,-0.0016206,35.6028098,0.0494517,0.3540392,6.3903499
 \HyperPolar=2.4581799,-0.0498024,-13.1466829,0.0776113,-0.0064521,-0.2
 082077,-0.0195705,4.2364943,-0.0088555,0.0210178\PG=C01 [X(C4H4O1)]\NI
 mag=0\\1.13781466,0.01787986,0.92604965,0.00171076,0.00850251,0.231634
 82,-0.69728830,-0.14630752,-0.00273889,1.05739099,-0.24771301,-0.15058
 000,-0.00076475,0.11215697,0.95139234,-0.00397891,-0.00060589,-0.12165
 737,0.00273889,0.00883770,0.24332206,-0.11688864,0.01544311,-0.0000574
 8,-0.23706969,0.26227078,0.00297880,0.70153533,0.07247336,0.00711668,-
 0.00016359,0.21195079,-0.38893481,-0.00304685,0.00022063,0.86030835,0.
 00063840,-0.00025454,0.03086721,0.00236285,-0.00295379,-0.11025316,0.0
 0095706,0.00892251,0.12658797,0.01125529,0.08735113,0.00106157,-0.0013
 8913,-0.01159163,-0.00017586,-0.23884256,-0.21245781,-0.00280319,1.056
 27065,0.01179041,-0.02298830,-0.00037509,0.01120707,-0.10303950,-0.001
 54153,-0.26277571,-0.38704635,-0.00380282,-0.11251227,0.95216564,0.000
 14238,-0.00024956,0.00909732,0.00009721,-0.00158838,0.02569569,-0.0034
 0628,-0.00371134,-0.11028516,0.00003543,0.00835662,0.24336081,-0.08252
 021,-0.05836798,-0.00065397,0.01086041,-0.01193510,-0.00015000,-0.1172
 0151,-0.07198557,-0.00111928,-0.69558533,0.24970501,0.00205055,1.13745
 600,0.05640528,-0.58098062,-0.00558042,-0.08748888,-0.02262117,-0.0005
 2189,-0.01495730,0.00744987,-0.00031967,0.14829728,-0.15209730,-0.0001
 1234,-0.01857178,0.92620131,0.00074168,-0.00576793,-0.11595219,-0.0010
 6809,-0.00040480,0.00909407,-0.00042880,-0.00041140,0.03085517,0.00082
 086,0.00005412,-0.12167394,0.00123009,0.00836561,0.23168082,-0.0013668
 7,-0.01504209,-0.00019245,0.00002219,-0.00166969,-0.00002962,-0.003720
 05,-0.00039432,-0.00002192,-0.03996514,-0.01191245,-0.00021302,-0.2268
 5719,-0.12980178,-0.00176736,0.27423082,-0.02425413,-0.02911839,-0.000
 47009,-0.00148747,-0.00440839,-0.00013889,0.00137128,0.00042168,-0.000
 08790,-0.00339353,0.00888813,0.00004701,-0.13006502,-0.13209803,-0.001
 04693,0.15838686,0.15905450,-0.00030278,-0.00045403,0.00673080,-0.0000
 2715,-0.00013899,0.00688626,-0.00000290,-0.00009009,0.00799300,-0.0001
 0772,0.00003335,0.00470128,-0.00177363,-0.00104958,-0.05869549,0.00222
 207,0.00171614,0.03364357,-0.00316073,0.00179748,-0.00000343,0.0011731
 3,-0.00192491,-0.00003212,0.00791291,-0.02023170,-0.00024461,-0.092954
 56,0.11094502,0.00126992,-0.02175967,0.03297257,0.00034835,-0.00250652
 ,-0.00012664,-0.00000550,0.11201284,0.00198587,-0.00184649,-0.00015427
 ,0.00094673,-0.00552305,-0.00013634,-0.00219697,-0.04982124,-0.0007006
 2,0.10380728,-0.28593513,-0.00246498,0.01905425,-0.01474816,-0.0002232
 7,0.00114718,0.00018273,0.00000153,-0.12465398,0.35866799,0.00000150,-
 0.00015549,0.01132653,0.00000214,-0.00014058,0.00591770,-0.00002829,-0
 .00073209,0.00811899,0.00118325,-0.00245295,-0.06370068,0.00018145,-0.
 00020092,0.00663188,0.00000913,-0.00000019,0.00017932,-0.00135263,0.00
 364930,0.03495577,-0.02195873,-0.03294752,-0.00045205,-0.09378704,-0.1
 1169504,-0.00142549,0.00799889,0.02001388,0.00024472,0.00117689,0.0018
 9920,0.00001459,-0.00317533,-0.00179130,-0.00004652,-0.00043403,-0.001
 09530,-0.00001180,-0.00028763,-0.00012815,0.00000223,0.11297754,-0.019
 02631,-0.01454853,-0.00029230,-0.10456049,-0.28511308,-0.00290266,0.00
 197900,-0.04992052,-0.00070784,-0.00097110,-0.00552640,-0.00014150,-0.
 00198058,-0.00183039,-0.00016482,-0.00003862,-0.00067193,0.00000445,0.
 00012791,-0.00030044,0.00002654,0.12560711,0.35772456,-0.00028151,-0.0
 0031394,0.00663017,-0.00133778,-0.00291607,-0.06370831,0.00002401,-0.0
 0067451,0.00812174,-0.00002153,-0.00013760,0.00591806,-0.00004712,-0.0
 0016491,0.01132651,-0.00000004,0.00000201,-0.00100967,0.00000540,0.000
 02492,-0.00242001,0.00167699,0.00417980,0.03496256,-0.22588661,0.13019
 329,0.00132594,-0.03991242,0.01210171,0.00007432,-0.00372474,0.0004107
 4,-0.00001402,0.00003403,0.00165362,0.00000921,-0.00121730,0.01493614,
 0.00016980,0.00059683,0.00066395,0.00000940,-0.00042977,0.00003780,0.0
 0000124,-0.00251057,-0.00113695,-0.00001843,0.27305059,0.13045864,-0.1
 3310415,-0.00070200,0.00358284,0.00882783,0.00005636,-0.00135484,0.000
 42629,-0.00009534,0.00147063,-0.00442062,-0.00013552,0.02414680,-0.029
 27564,-0.00040059,-0.00067515,-0.00225026,-0.00002278,0.00109427,-0.00
 067625,0.00000638,0.00013708,0.00018670,0.00000030,-0.15886026,0.16028
 613,0.00132848,-0.00070114,-0.05867722,-0.00002920,0.00006966,0.004703
 07,-0.00003609,-0.00009263,0.00799418,0.00000720,-0.00013409,0.0068866
 3,0.00028193,-0.00041588,0.00673324,-0.00000680,-0.00002116,-0.0004291
 2,0.00001462,0.00000373,-0.00100954,-0.00000268,-0.00000166,0.00017892
 ,-0.00155745,0.00129319,0.03361980\\-0.00007157,-0.00008547,-0.0000112
 4,0.00007426,0.00000961,0.00000700,-0.00002752,-0.00005017,-0.00000943
 ,-0.00001009,0.00003060,0.00001418,0.00006294,0.00005282,0.00005913,-0
 .00000500,0.00000787,-0.00003099,0.00000480,0.00001361,-0.00001671,0.0
 0000428,0.00000773,-0.00000683,-0.00003209,0.00001339,-0.00000512\\\@


 SOME THINGS ARE EASY, THEY ARE ONLY HARD TO DO.
            -- A. EINSTEIN TO J. O. HIRSCHFELDER
 THE ONLY TROUBLE WITH A SURE THING IS THE UNCERTAINTY.
     -- FROM A TEABAG (BELONGING TO W.H.?)
 Job cpu time:       0 days  0 hours  0 minutes  0.3 seconds.
 File lengths (MBytes):  RWF=      5 Int=      0 D2E=      0 Chk=      2 Scr=      1
 Normal termination of Gaussian 09 at Tue Dec  1 17:37:46 2015.
