 Entering Gaussian System, Link 0=g09
 Input=FuranAM1_60P5.com
 Output=FuranAM1_60P5.log
 Initial command:
 /home/Applications/g09/g09/l1.exe "/home/Applications/g09/scratch/Gau-7925.inp" -scrdir="/home/Applications/g09/scratch/"
 Entering Link 1 = /home/Applications/g09/g09/l1.exe PID=      7927.
  
 Copyright (c) 1988,1990,1992,1993,1995,1998,2003,2009,2013,
            Gaussian, Inc.  All Rights Reserved.
  
 This is part of the Gaussian(R) 09 program.  It is based on
 the Gaussian(R) 03 system (copyright 2003, Gaussian, Inc.),
 the Gaussian(R) 98 system (copyright 1998, Gaussian, Inc.),
 the Gaussian(R) 94 system (copyright 1995, Gaussian, Inc.),
 the Gaussian 92(TM) system (copyright 1992, Gaussian, Inc.),
 the Gaussian 90(TM) system (copyright 1990, Gaussian, Inc.),
 the Gaussian 88(TM) system (copyright 1988, Gaussian, Inc.),
 the Gaussian 86(TM) system (copyright 1986, Carnegie Mellon
 University), and the Gaussian 82(TM) system (copyright 1983,
 Carnegie Mellon University). Gaussian is a federally registered
 trademark of Gaussian, Inc.
  
 This software contains proprietary and confidential information,
 including trade secrets, belonging to Gaussian, Inc.
  
 This software is provided under written license and may be
 used, copied, transmitted, or stored only in accord with that
 written license.
  
 The following legend is applicable only to US Government
 contracts under FAR:
  
                    RESTRICTED RIGHTS LEGEND
  
 Use, reproduction and disclosure by the US Government is
 subject to restrictions as set forth in subparagraphs (a)
 and (c) of the Commercial Computer Software - Restricted
 Rights clause in FAR 52.227-19.
  
 Gaussian, Inc.
 340 Quinnipiac St., Bldg. 40, Wallingford CT 06492
  
  
 ---------------------------------------------------------------
 Warning -- This program may not be used in any manner that
 competes with the business of Gaussian, Inc. or will provide
 assistance to any competitor of Gaussian, Inc.  The licensee
 of this program is prohibited from giving any competitor of
 Gaussian, Inc. access to this program.  By using this program,
 the user acknowledges that Gaussian, Inc. is engaged in the
 business of creating and licensing software in the field of
 computational chemistry and represents and warrants to the
 licensee that it is not a competitor of Gaussian, Inc. and that
 it will not use this program in any manner prohibited above.
 ---------------------------------------------------------------
  

 Cite this work as:
 Gaussian 09, Revision D.01,
 M. J. Frisch, G. W. Trucks, H. B. Schlegel, G. E. Scuseria, 
 M. A. Robb, J. R. Cheeseman, G. Scalmani, V. Barone, B. Mennucci, 
 G. A. Petersson, H. Nakatsuji, M. Caricato, X. Li, H. P. Hratchian, 
 A. F. Izmaylov, J. Bloino, G. Zheng, J. L. Sonnenberg, M. Hada, 
 M. Ehara, K. Toyota, R. Fukuda, J. Hasegawa, M. Ishida, T. Nakajima, 
 Y. Honda, O. Kitao, H. Nakai, T. Vreven, J. A. Montgomery, Jr., 
 J. E. Peralta, F. Ogliaro, M. Bearpark, J. J. Heyd, E. Brothers, 
 K. N. Kudin, V. N. Staroverov, T. Keith, R. Kobayashi, J. Normand, 
 K. Raghavachari, A. Rendell, J. C. Burant, S. S. Iyengar, J. Tomasi, 
 M. Cossi, N. Rega, J. M. Millam, M. Klene, J. E. Knox, J. B. Cross, 
 V. Bakken, C. Adamo, J. Jaramillo, R. Gomperts, R. E. Stratmann, 
 O. Yazyev, A. J. Austin, R. Cammi, C. Pomelli, J. W. Ochterski, 
 R. L. Martin, K. Morokuma, V. G. Zakrzewski, G. A. Voth, 
 P. Salvador, J. J. Dannenberg, S. Dapprich, A. D. Daniels, 
 O. Farkas, J. B. Foresman, J. V. Ortiz, J. Cioslowski, 
 and D. J. Fox, Gaussian, Inc., Wallingford CT, 2013.
 
 ******************************************
 Gaussian 09:  ES64L-G09RevD.01 24-Apr-2013
                15-Dec-2015 
 ******************************************
 ------------------------------------------------------------
 #P AM1(Input,print) CIS(Singlets,NStates=15) pop(full) force
 ------------------------------------------------------------
 1/10=7,30=1,38=1/1,3;
 2/12=2,17=6,18=5,40=1/2;
 3/5=2,16=1,25=1,41=700000,71=1,135=100,136=1/1,2,8,3;
 4/35=1/1;
 5/5=2,35=1,38=5/2;
 8/6=1,10=1,108=15/1;
 9/15=2,41=15,42=1,48=1,49=10/14;
 10/5=4/2;
 6/7=3,18=1/1;
 7/12=6,13=5,29=1/1,2,3,16;
 1/10=7,30=1/3;
 99//99;
 Leave Link    1 at Tue Dec 15 17:06:00 2015, MaxMem=           0 cpu:         0.0
 (Enter /home/Applications/g09/g09/l101.exe)
 -----------------
 AM1-Reparam Input
 -----------------
 Symbolic Z-matrix:
 Charge =  0 Multiplicity = 1
 6                     0.96407  -0.6902    0.04665 
 6                    -0.38008  -1.04309   0.01954 
 8                    -1.18844  -0.02265   0.00926 
 6                    -0.35639   1.0654    0.04339 
 6                     0.96261   0.70231   0.04212 
 1                     1.8383    1.38486   0.04833 
 1                    -0.81577   2.06849   0.02137 
 1                    -0.80592  -1.99927   0.03051 
 1                     1.79127  -1.39701  -0.01248 
 
 NAtoms=      9 NQM=        9 NQMF=       0 NMMI=      0 NMMIF=      0
                NMic=       0 NMicF=      0.
                    Isotopes and Nuclear Properties:
 (Nuclear quadrupole moments (NQMom) in fm**2, nuclear magnetic moments (NMagM)
  in nuclear magnetons)

  Atom         1           2           3           4           5           6           7           8           9
 IAtWgt=          12          12          16          12          12           1           1           1           1
 AtmWgt=  12.0000000  12.0000000  15.9949146  12.0000000  12.0000000   1.0078250   1.0078250   1.0078250   1.0078250
 NucSpn=           0           0           0           0           0           1           1           1           1
 AtZEff=   0.0000000   0.0000000   0.0000000   0.0000000   0.0000000   0.0000000   0.0000000   0.0000000   0.0000000
 NQMom=    0.0000000   0.0000000   0.0000000   0.0000000   0.0000000   0.0000000   0.0000000   0.0000000   0.0000000
 NMagM=    0.0000000   0.0000000   0.0000000   0.0000000   0.0000000   2.7928460   2.7928460   2.7928460   2.7928460
 AtZNuc=   6.0000000   6.0000000   8.0000000   6.0000000   6.0000000   1.0000000   1.0000000   1.0000000   1.0000000
 Leave Link  101 at Tue Dec 15 17:06:00 2015, MaxMem=    33554432 cpu:         0.0
 (Enter /home/Applications/g09/g09/l103.exe)

 GradGradGradGradGradGradGradGradGradGradGradGradGradGradGradGradGradGrad
 Berny optimization.
 Initialization pass.
 Trust Radius=3.00D-01 FncErr=1.00D-07 GrdErr=1.00D-07
 Number of steps in this run=      2 maximum allowed number of steps=      2.
 GradGradGradGradGradGradGradGradGradGradGradGradGradGradGradGradGradGrad

 Leave Link  103 at Tue Dec 15 17:06:00 2015, MaxMem=    33554432 cpu:         0.0
 (Enter /home/Applications/g09/g09/l202.exe)
                          Input orientation:                          
 ---------------------------------------------------------------------
 Center     Atomic      Atomic             Coordinates (Angstroms)
 Number     Number       Type             X           Y           Z
 ---------------------------------------------------------------------
      1          6           0        0.964074   -0.690201    0.046651
      2          6           0       -0.380080   -1.043094    0.019540
      3          8           0       -1.188442   -0.022654    0.009263
      4          6           0       -0.356388    1.065400    0.043385
      5          6           0        0.962608    0.702308    0.042123
      6          1           0        1.838300    1.384862    0.048333
      7          1           0       -0.815771    2.068490    0.021372
      8          1           0       -0.805915   -1.999270    0.030511
      9          1           0        1.791271   -1.397012   -0.012479
 ---------------------------------------------------------------------
                    Distance matrix (angstroms):
                    1          2          3          4          5
     1  C    0.000000
     2  C    1.389971   0.000000
     3  O    2.253961   1.301865   0.000000
     4  C    2.196762   2.108762   1.370160   0.000000
     5  C    1.392517   2.202215   2.270169   1.368060   0.000000
     6  H    2.251702   3.288922   3.338232   2.217822   1.110295
     7  H    3.283118   3.141940   2.124127   1.103498   2.242658
     8  H    2.201541   1.046770   2.013402   3.097490   3.228983
     9  H    1.089648   2.200238   3.281466   3.267879   2.257611
                    6          7          8          9
     6  H    0.000000
     7  H    2.740833   0.000000
     8  H    4.294711   4.067782   0.000000
     9  H    2.782936   4.336764   2.666447   0.000000
 Stoichiometry    C4H4O
 Framework group  C1[X(C4H4O)]
 Deg. of freedom    21
 Full point group                 C1      NOp   1
 Largest Abelian subgroup         C1      NOp   1
 Largest concise Abelian subgroup C1      NOp   1
                         Standard orientation:                         
 ---------------------------------------------------------------------
 Center     Atomic      Atomic             Coordinates (Angstroms)
 Number     Number       Type             X           Y           Z
 ---------------------------------------------------------------------
      1          6           0        0.620232    1.021634   -0.011508
      2          6           0       -0.753987    0.813278   -0.000132
      3          8           0       -1.092145   -0.443872    0.008531
      4          6           0        0.103143   -1.113403   -0.010312
      5          6           0        1.170354   -0.257542    0.001872
      6          1           0        2.244777   -0.537404    0.008794
      7          1           0        0.078390   -2.216367    0.013477
      8          1           0       -1.523544    1.522542   -0.021462
      9          1           0        1.099085    1.998400    0.051417
 ---------------------------------------------------------------------
 Rotational constants (GHZ):     10.0129199      9.0097999      4.7430949
 Leave Link  202 at Tue Dec 15 17:06:00 2015, MaxMem=    33554432 cpu:         0.0
 (Enter /home/Applications/g09/g09/l301.exe)

 Semi-emprical parameters in input format:
 Method=8 CoreType=1 PeptideFC=0.0111590000 RIJScale=0.5404210000
 ****
 H       
 PQN=1 NValence=1 F0ss=0.4980120000 ZetaOverlap=1.0856700000 U=-0.4186260000
 Beta=-0.2268830000 CoreKO=1.0354420000 KON=0,0,0,1.0458670000 KON=1,0,1,1.0879310000
 KON=0,1,1,1.0589200000 KON=2,1,1,1.0697690000 EISol=-0.4188110042 EHeat=0.0830298228
 Alpha=1.4609850000
 GCore=0.0085280000,1.5127750000,2.2676710000
 GCore=0.0003530000,1.4551640000,3.4779940000
 GCore=-0.0013010000,0.5600570000,3.5861320000
 ****
 C       
 PQN=2,2 NValence=4 F0ss=0.4494440000 F0sp=0.4215150000 F0pp=0.3497590000 F2pp=0.1898720000
 G1sp=0.2701540000
 ZetaOverlap=1.8086650000,1.3781170000
 U=-1.7687090000,-1.4557970000
 Beta=-0.5012330000,-0.3063130000 DDN=0,1,0.7474020000 DDN=1,1,0.7268010000
 CoreKO=1.1356210000 KON=0,0,0,1.0966100000 KON=1,0,1,0.8998210000 KON=0,1,1,1.1124280000
 KON=2,1,1,0.7957910000 EISol=-4.4398989268 EHeat=0.2723305520 Alpha=1.2756240000
 DipHyp=1.4947180026
 GCore=0.0007890000,1.4001430000,2.6678360000
 GCore=0.0028980000,1.4001430000,3.2840710000
 GCore=-0.0013930000,1.3017660000,3.7634120000
 GCore=-0.0000850000,1.4001430000,4.6744780000
 ****
 O       
 PQN=2,2 NValence=6 F0ss=0.5596260000 F0sp=0.5321300000 F0pp=0.4958710000 F2pp=0.2543430000
 G1sp=0.4216980000
 ZetaOverlap=2.6354490000,2.4967270000
 U=-3.3169990000,-2.0345890000
 Beta=-1.1573400000,-1.1944970000 DDN=0,1,0.4953610000 DDN=1,1,0.5082060000
 CoreKO=0.8822960000 KON=0,0,0,0.8822960000 KON=1,0,1,0.5019540000 KON=0,1,1,0.7875880000
 KON=2,1,1,0.5515580000 EISol=-11.6164441184 EHeat=0.0949133088 Alpha=2.3677360000
 DipHyp=0.9906650029
 GCore=0.0205230000,1.2640290000,1.6023330000
 GCore=0.0056550000,1.9602000000,2.7307880000
 ****
 
 Standard basis: VSTO-6G (5D, 7F)
 Ernie: Thresh=  0.10000D-02 Tol=  0.10000D-05 Strict=F.
  NNHCO=     0 NNPyr=     0 NCTC=     0               EPep=         0.000000000
    EC=        68.743075430  ECS=         2.479952928   EG=         0.398187182
   EHC=         0.000000000  EAt=       -31.051283842  AtH=         1.516354808
 EPDDG=         0.000000000  ECC=        71.621215540 EAtT=        32.567638650
 There are    24 symmetry adapted cartesian basis functions of A   symmetry.
 There are    24 symmetry adapted basis functions of A   symmetry.
    24 basis functions,   144 primitive gaussians,    24 cartesian basis functions
    13 alpha electrons       13 beta electrons
       nuclear repulsion energy       104.1888541904 Hartrees.
 IExCor=    0 DFT=F Ex=HF Corr=None ExCW=0 ScaHFX=  1.000000
 ScaDFX=  1.000000  1.000000  1.000000  1.000000 ScalE2=  1.000000  1.000000
 IRadAn=      0 IRanWt=     -1 IRanGd=            0 ICorTp=0 IEmpDi=  4
 Integral buffers will be    131072 words long.
 Regular integral format.
 Two-electron integral symmetry is turned off.
 Leave Link  301 at Tue Dec 15 17:06:00 2015, MaxMem=    33554432 cpu:         0.0
 (Enter /home/Applications/g09/g09/l302.exe)
 Do NDO integrals.
 NPDir=0 NMtPBC=     1 NCelOv=     1 NCel=       1 NClECP=     1 NCelD=      1
         NCelK=      1 NCelE2=     1 NClLst=     1 CellRange=     0.0.
 One-electron integrals computed using PRISM.
 NBasis=    24 RedAO= F EigKep=  0.00D+00  NBF=    24
 NBsUse=    24 1.00D-04 EigRej=  0.00D+00 NBFU=    24
 Leave Link  302 at Tue Dec 15 17:06:00 2015, MaxMem=    33554432 cpu:         0.0
 (Enter /home/Applications/g09/g09/l308.exe)
 Leave Link  308 at Tue Dec 15 17:06:00 2015, MaxMem=    33554432 cpu:         0.0
 (Enter /home/Applications/g09/g09/l303.exe)
 DipDrv:  MaxL=1.
 Leave Link  303 at Tue Dec 15 17:06:00 2015, MaxMem=    33554432 cpu:         0.0
 (Enter /home/Applications/g09/g09/l401.exe)
 Simple Huckel Guess.
 JPrj=0 DoOrth=F DoCkMO=F.
 Leave Link  401 at Tue Dec 15 17:06:00 2015, MaxMem=    33554432 cpu:         0.0
 (Enter /home/Applications/g09/g09/l502.exe)
 Closed shell SCF:
 Using DIIS extrapolation, IDIIS=  1040.
 Overlap will be assumed to be unity.
 Two-electron integral symmetry not used.
 Keep J ints in memory in canonical form, NReq=888082.
 IVT=       79475 IEndB=       79475 NGot=    33554432 MDV=    33473473
 LenX=    33473473 LenY=    33472456
 Requested convergence on RMS density matrix=1.00D-08 within 128 cycles.
 Requested convergence on MAX density matrix=1.00D-06.
 Requested convergence on             energy=1.00D-06.
 No special actions if energy rises.
 FoFCou: FMM=F IPFlag=           0 FMFlag=           0 FMFlg1=           0
         NFxFlg=           0 DoJE=F BraDBF=F KetDBF=F FulRan=T
         wScrn=  0.000000 ICntrl=     600 IOpCl=  2 I1Cent=           0 NGrid=           0
         NMat0=    1 NMatS0=     54 NMatT0=    0 NMatD0=    1 NMtDS0=    0 NMtDT0=    0
 Symmetry not used in FoFCou.

 Cycle   1  Pass 1  IDiag  1:
 E=  4.93653597957213    
 DIIS: error= 1.37D-01 at cycle   1 NSaved=   1.
 NSaved= 1 IEnMin= 1 EnMin=  4.93653597957213     IErMin= 1 ErrMin= 1.37D-01
 ErrMax= 1.37D-01  0.00D+00 EMaxC= 1.00D-01 BMatC= 4.35D-01 BMatP= 4.35D-01
 IDIUse=3 WtCom= 0.00D+00 WtEn= 1.00D+00
 Coeff-Com:  0.100D+01
 Coeff-En:   0.100D+01
 Coeff:      0.100D+01
 GapD=    2.000 DampG=2.000 DampE=0.250 DampFc=0.5000 IDamp=-1.
 Damping current iteration by 5.00D-01
 RMSDP=6.12D-02 MaxDP=6.70D-01              OVMax= 0.00D+00

 Cycle   2  Pass 1  IDiag  1:
 E=  4.06262946241243     Delta-E=       -0.873906517160 Rises=F Damp=T
 DIIS: error= 8.34D-02 at cycle   2 NSaved=   2.
 NSaved= 2 IEnMin= 2 EnMin=  4.06262946241243     IErMin= 2 ErrMin= 8.34D-02
 ErrMax= 8.34D-02  0.00D+00 EMaxC= 1.00D-01 BMatC= 1.60D-01 BMatP= 4.35D-01
 IDIUse=3 WtCom= 1.66D-01 WtEn= 8.34D-01
 Coeff-Com: -0.119D+01 0.219D+01
 Coeff-En:   0.000D+00 0.100D+01
 Coeff:     -0.197D+00 0.120D+01
 RMSDP=3.60D-02 MaxDP=3.50D-01 DE=-8.74D-01 OVMax= 0.00D+00

 Cycle   3  Pass 1  IDiag  1:
 E=  2.89122021100793     Delta-E=       -1.171409251404 Rises=F Damp=F
 DIIS: error= 2.23D-02 at cycle   3 NSaved=   3.
 NSaved= 3 IEnMin= 3 EnMin=  2.89122021100793     IErMin= 3 ErrMin= 2.23D-02
 ErrMax= 2.23D-02  0.00D+00 EMaxC= 1.00D-01 BMatC= 1.69D-02 BMatP= 1.60D-01
 IDIUse=3 WtCom= 7.77D-01 WtEn= 2.23D-01
 Coeff-Com:  0.477D+00-0.111D+01 0.163D+01
 Coeff-En:   0.000D+00 0.000D+00 0.100D+01
 Coeff:      0.370D+00-0.858D+00 0.149D+01
 RMSDP=1.30D-02 MaxDP=6.86D-02 DE=-1.17D+00 OVMax= 0.00D+00

 Cycle   4  Pass 1  IDiag  1:
 E=  2.82175261727778     Delta-E=       -0.069467593730 Rises=F Damp=F
 DIIS: error= 5.33D-03 at cycle   4 NSaved=   4.
 NSaved= 4 IEnMin= 4 EnMin=  2.82175261727778     IErMin= 4 ErrMin= 5.33D-03
 ErrMax= 5.33D-03  0.00D+00 EMaxC= 1.00D-01 BMatC= 1.15D-03 BMatP= 1.69D-02
 IDIUse=3 WtCom= 9.47D-01 WtEn= 5.33D-02
 Coeff-Com: -0.891D-01 0.184D+00-0.451D+00 0.136D+01
 Coeff-En:   0.000D+00 0.000D+00 0.000D+00 0.100D+01
 Coeff:     -0.844D-01 0.174D+00-0.427D+00 0.134D+01
 RMSDP=4.05D-03 MaxDP=2.46D-02 DE=-6.95D-02 OVMax= 0.00D+00

 Cycle   5  Pass 1  IDiag  3:
 E=  2.81659849786300     Delta-E=       -0.005154119415 Rises=F Damp=F
 DIIS: error= 1.07D-03 at cycle   5 NSaved=   5.
 NSaved= 5 IEnMin= 5 EnMin=  2.81659849786300     IErMin= 5 ErrMin= 1.07D-03
 ErrMax= 1.07D-03  0.00D+00 EMaxC= 1.00D-01 BMatC= 4.20D-05 BMatP= 1.15D-03
 IDIUse=3 WtCom= 9.89D-01 WtEn= 1.07D-02
 Coeff-Com:  0.181D-01-0.333D-01 0.966D-01-0.461D+00 0.138D+01
 Coeff-En:   0.000D+00 0.000D+00 0.000D+00 0.000D+00 0.100D+01
 Coeff:      0.179D-01-0.330D-01 0.956D-01-0.456D+00 0.138D+01
 Gap=     0.416 Goal=   None    Shift=    0.000
 RMSDP=8.59D-04 MaxDP=5.55D-03 DE=-5.15D-03 OVMax= 6.27D-03

 Cycle   6  Pass 1  IDiag  3:
 E=  2.81638535582977     Delta-E=       -0.000213142033 Rises=F Damp=F
 DIIS: error= 2.25D-04 at cycle   6 NSaved=   6.
 NSaved= 6 IEnMin= 6 EnMin=  2.81638535582977     IErMin= 6 ErrMin= 2.25D-04
 ErrMax= 2.25D-04  0.00D+00 EMaxC= 1.00D-01 BMatC= 1.83D-06 BMatP= 4.20D-05
 IDIUse=3 WtCom= 9.98D-01 WtEn= 2.25D-03
 Coeff-Com: -0.140D-02 0.241D-02-0.167D-01 0.115D+00-0.535D+00 0.144D+01
 Coeff-En:   0.000D+00 0.000D+00 0.000D+00 0.000D+00 0.000D+00 0.100D+01
 Coeff:     -0.139D-02 0.240D-02-0.167D-01 0.114D+00-0.534D+00 0.144D+01
 Gap=     0.417 Goal=   None    Shift=    0.000
 RMSDP=1.86D-04 MaxDP=1.22D-03 DE=-2.13D-04 OVMax= 1.19D-03

 Cycle   7  Pass 1  IDiag  3:
 E=  2.81637665583531     Delta-E=       -0.000008699994 Rises=F Damp=F
 DIIS: error= 2.53D-05 at cycle   7 NSaved=   7.
 NSaved= 7 IEnMin= 7 EnMin=  2.81637665583531     IErMin= 7 ErrMin= 2.53D-05
 ErrMax= 2.53D-05  0.00D+00 EMaxC= 1.00D-01 BMatC= 3.23D-08 BMatP= 1.83D-06
 IDIUse=1 WtCom= 1.00D+00 WtEn= 0.00D+00
 Coeff-Com:  0.871D-04-0.107D-03 0.572D-02-0.425D-01 0.207D+00-0.607D+00
 Coeff-Com:  0.144D+01
 Coeff:      0.871D-04-0.107D-03 0.572D-02-0.425D-01 0.207D+00-0.607D+00
 Coeff:      0.144D+01
 Gap=     0.416 Goal=   None    Shift=    0.000
 RMSDP=2.24D-05 MaxDP=1.26D-04 DE=-8.70D-06 OVMax= 1.88D-04

 Cycle   8  Pass 1  IDiag  3:
 E=  2.81637651466784     Delta-E=       -0.000000141167 Rises=F Damp=F
 DIIS: error= 4.03D-06 at cycle   8 NSaved=   8.
 NSaved= 8 IEnMin= 8 EnMin=  2.81637651466784     IErMin= 8 ErrMin= 4.03D-06
 ErrMax= 4.03D-06  0.00D+00 EMaxC= 1.00D-01 BMatC= 6.04D-10 BMatP= 3.23D-08
 IDIUse=1 WtCom= 1.00D+00 WtEn= 0.00D+00
 Coeff-Com: -0.655D-05-0.315D-04-0.116D-02 0.923D-02-0.464D-01 0.137D+00
 Coeff-Com: -0.361D+00 0.126D+01
 Coeff:     -0.655D-05-0.315D-04-0.116D-02 0.923D-02-0.464D-01 0.137D+00
 Coeff:     -0.361D+00 0.126D+01
 Gap=     0.416 Goal=   None    Shift=    0.000
 RMSDP=2.66D-06 MaxDP=1.69D-05 DE=-1.41D-07 OVMax= 1.98D-05

 Cycle   9  Pass 1  IDiag  3:
 E=  2.81637651222920     Delta-E=       -0.000000002439 Rises=F Damp=F
 DIIS: error= 1.13D-06 at cycle   9 NSaved=   9.
 NSaved= 9 IEnMin= 9 EnMin=  2.81637651222920     IErMin= 9 ErrMin= 1.13D-06
 ErrMax= 1.13D-06  0.00D+00 EMaxC= 1.00D-01 BMatC= 3.31D-11 BMatP= 6.04D-10
 IDIUse=1 WtCom= 1.00D+00 WtEn= 0.00D+00
 Coeff-Com:  0.444D-05 0.194D-05 0.495D-04-0.394D-03 0.221D-02-0.554D-02
 Coeff-Com:  0.156D-01-0.266D+00 0.125D+01
 Coeff:      0.444D-05 0.194D-05 0.495D-04-0.394D-03 0.221D-02-0.554D-02
 Coeff:      0.156D-01-0.266D+00 0.125D+01
 Gap=     0.416 Goal=   None    Shift=    0.000
 RMSDP=7.67D-07 MaxDP=6.32D-06 DE=-2.44D-09 OVMax= 5.43D-06

 Cycle  10  Pass 1  IDiag  3:
 E=  2.81637651206079     Delta-E=       -0.000000000168 Rises=F Damp=F
 DIIS: error= 2.67D-07 at cycle  10 NSaved=  10.
 NSaved=10 IEnMin=10 EnMin=  2.81637651206079     IErMin=10 ErrMin= 2.67D-07
 ErrMax= 2.67D-07  0.00D+00 EMaxC= 1.00D-01 BMatC= 2.31D-12 BMatP= 3.31D-11
 IDIUse=1 WtCom= 1.00D+00 WtEn= 0.00D+00
 Coeff-Com:  0.103D-05-0.356D-05 0.790D-06-0.329D-04 0.150D-03-0.102D-02
 Coeff-Com:  0.232D-02 0.754D-01-0.537D+00 0.146D+01
 Coeff:      0.103D-05-0.356D-05 0.790D-06-0.329D-04 0.150D-03-0.102D-02
 Coeff:      0.232D-02 0.754D-01-0.537D+00 0.146D+01
 Gap=     0.416 Goal=   None    Shift=    0.000
 RMSDP=2.27D-07 MaxDP=2.05D-06 DE=-1.68D-10 OVMax= 2.31D-06

 Cycle  11  Pass 1  IDiag  3:
 E=  2.81637651204760     Delta-E=       -0.000000000013 Rises=F Damp=F
 DIIS: error= 1.02D-07 at cycle  11 NSaved=  11.
 NSaved=11 IEnMin=11 EnMin=  2.81637651204760     IErMin=11 ErrMin= 1.02D-07
 ErrMax= 1.02D-07  0.00D+00 EMaxC= 1.00D-01 BMatC= 1.90D-13 BMatP= 2.31D-12
 IDIUse=1 WtCom= 1.00D+00 WtEn= 0.00D+00
 Coeff-Com: -0.631D-06 0.121D-05-0.168D-05 0.442D-04-0.256D-03 0.110D-02
 Coeff-Com: -0.274D-02-0.275D-01 0.237D+00-0.859D+00 0.165D+01
 Coeff:     -0.631D-06 0.121D-05-0.168D-05 0.442D-04-0.256D-03 0.110D-02
 Coeff:     -0.274D-02-0.275D-01 0.237D+00-0.859D+00 0.165D+01
 Gap=     0.416 Goal=   None    Shift=    0.000
 RMSDP=7.90D-08 MaxDP=7.05D-07 DE=-1.32D-11 OVMax= 8.09D-07

 Cycle  12  Pass 1  IDiag  3:
 E=  2.81637651204623     Delta-E=       -0.000000000001 Rises=F Damp=F
 DIIS: error= 1.48D-08 at cycle  12 NSaved=  12.
 NSaved=12 IEnMin=12 EnMin=  2.81637651204623     IErMin=12 ErrMin= 1.48D-08
 ErrMax= 1.48D-08  0.00D+00 EMaxC= 1.00D-01 BMatC= 6.93D-15 BMatP= 1.90D-13
 IDIUse=1 WtCom= 1.00D+00 WtEn= 0.00D+00
 Coeff-Com: -0.579D-07 0.141D-06 0.242D-06-0.169D-04 0.104D-03-0.444D-03
 Coeff-Com:  0.119D-02 0.794D-02-0.769D-01 0.296D+00-0.696D+00 0.147D+01
 Coeff:     -0.579D-07 0.141D-06 0.242D-06-0.169D-04 0.104D-03-0.444D-03
 Coeff:      0.119D-02 0.794D-02-0.769D-01 0.296D+00-0.696D+00 0.147D+01
 Gap=     0.416 Goal=   None    Shift=    0.000
 RMSDP=1.34D-08 MaxDP=1.11D-07 DE=-1.36D-12 OVMax= 1.20D-07

 Cycle  13  Pass 1  IDiag  3:
 E=  2.81637651204615     Delta-E=        0.000000000000 Rises=F Damp=F
 DIIS: error= 1.74D-09 at cycle  13 NSaved=  13.
 NSaved=13 IEnMin=13 EnMin=  2.81637651204615     IErMin=13 ErrMin= 1.74D-09
 ErrMax= 1.74D-09  0.00D+00 EMaxC= 1.00D-01 BMatC= 1.97D-16 BMatP= 6.93D-15
 IDIUse=1 WtCom= 1.00D+00 WtEn= 0.00D+00
 Coeff-Com:  0.121D-07-0.204D-07-0.207D-06 0.489D-05-0.280D-04 0.115D-03
 Coeff-Com: -0.315D-03-0.183D-02 0.187D-01-0.733D-01 0.180D+00-0.476D+00
 Coeff-Com:  0.135D+01
 Coeff:      0.121D-07-0.204D-07-0.207D-06 0.489D-05-0.280D-04 0.115D-03
 Coeff:     -0.315D-03-0.183D-02 0.187D-01-0.733D-01 0.180D+00-0.476D+00
 Coeff:      0.135D+01
 Gap=     0.416 Goal=   None    Shift=    0.000
 RMSDP=1.79D-09 MaxDP=1.10D-08 DE=-8.53D-14 OVMax= 1.07D-08

 Cycle  14  Pass 2  IDiag  1:
 SCF Done:  E(RAM1) =   2.81637651205     A.U. after   14 cycles
            NFock= 13  Conv=0.18D-08     -V/T= 1.1903
 KE=-1.479691920755D+01 PE=-1.696314113604D+02 EE= 8.305585288951D+01
 Leave Link  502 at Tue Dec 15 17:06:00 2015, MaxMem=    33554432 cpu:         0.0
 (Enter /home/Applications/g09/g09/l801.exe)
 Range of M.O.s used for correlation:     1    24
 NBasis=    24 NAE=    13 NBE=    13 NFC=     0 NFV=     0
 NROrb=     24 NOA=    13 NOB=    13 NVA=    11 NVB=    11
 Leave Link  801 at Tue Dec 15 17:06:00 2015, MaxMem=    33554432 cpu:         0.0
 (Enter /home/Applications/g09/g09/l914.exe)
 RHF ground state
 MDV=    33554432 DFT=F DoStab=F Mixed=F DoRPA=F DoScal=F NonHer=F
 Making orbital integer symmetry assigments:
 Orbital symmetries:
       Occupied  (A) (A) (A) (A) (A) (A) (A) (A) (A) (A) (A) (A)
                 (A)
       Virtual   (A) (A) (A) (A) (A) (A) (A) (A) (A) (A) (A)
    60 initial guesses have been made.
 Convergence on wavefunction:    0.000001000000000
 Davidson Disk Diagonalization:  ConvIn= 1.00D-06 SkipCon=T Conv= 1.00D-06.
 Max sub-space:   240 roots to seek:    60 dimension of matrix:          286
 Iteration     1 Dimension    60 NMult     0 NNew     60
 CISAX will form    60 AO SS matrices at one time.
 NMat=    60 NSing=    60 JSym2X= 0.
 FoFJK:  IHMeth= 8 ICntrl=       0 DoSepK=F KAlg= 0 I1Cent=   0 FoldK=F
 IRaf=         1 NMat= 120 IRICut=       1 DoRegI=T DoRafI=F ISym2E= 0.
 FoFCou: FMM=F IPFlag=           0 FMFlag=      100000 FMFlg1=           0
         NFxFlg=           0 DoJE=F BraDBF=F KetDBF=F FulRan=T
         wScrn=  0.000000 ICntrl=       0 IOpCl=  0 I1Cent=           0 NGrid=           0
         NMat0=  120 NMatS0=     60 NMatT0=    0 NMatD0=  120 NMtDS0=    0 NMtDT0=    0
 Symmetry not used in FoFCou.
 New state      5 was old state      7
 New state      6 was old state      5
 New state      7 was old state      8
 New state      8 was old state      6
 New state     10 was old state     14
 New state     12 was old state     10
 New state     14 was old state     15
 New state     15 was old state     12
 Excitation Energies [eV] at current iteration:
 Root      1 :     5.651452102896686
 Root      2 :     6.646454925869563
 Root      3 :     6.933383051246810
 Root      4 :     7.087159518167892
 Root      5 :     7.776120076737943
 Root      6 :     8.170473764865280
 Root      7 :     8.265247253807846
 Root      8 :     8.626444963002205
 Root      9 :     8.865320071607119
 Root     10 :     9.218735486889750
 Root     11 :     9.569912439656996
 Root     12 :     9.654404763996444
 Root     13 :     9.713302138766146
 Root     14 :     9.785033420703247
 Root     15 :    10.024541091441800
 Root     16 :    10.140079001229540
 Root     17 :    10.177097407268440
 Root     18 :    10.350613077659960
 Root     19 :    10.639280908200180
 Root     20 :    11.122270871126550
 Root     21 :    11.201609744709740
 Root     22 :    11.274702513753980
 Root     23 :    11.352360938848090
 Root     24 :    11.547800871425700
 Root     25 :    11.782731720418070
 Root     26 :    11.855304942067020
 Root     27 :    11.979587570676880
 Root     28 :    12.204041118980680
 Root     29 :    12.379339671562520
 Root     30 :    12.422576737115080
 Root     31 :    12.521653894110750
 Root     32 :    12.630376490414600
 Root     33 :    12.833194973214710
 Root     34 :    12.849467202966350
 Root     35 :    12.916280369296600
 Root     36 :    13.057984729633550
 Root     37 :    13.512271771595480
 Root     38 :    13.646014864192630
 Root     39 :    13.726739017598450
 Root     40 :    13.904440541878320
 Root     41 :    14.153493872299600
 Root     42 :    14.319016875676840
 Root     43 :    14.340481637172620
 Root     44 :    14.566510348497860
 Root     45 :    14.666080758971190
 Root     46 :    14.925960270677680
 Root     47 :    15.033399306152750
 Root     48 :    15.076322380335470
 Root     49 :    15.289488505895070
 Root     50 :    15.459913866848100
 Root     51 :    15.518706246504220
 Root     52 :    15.619491557870470
 Root     53 :    15.720291963590220
 Root     54 :    16.235430349822530
 Root     55 :    16.559234160271050
 Root     56 :    16.681975150582100
 Root     57 :    16.803042111615980
 Root     58 :    16.865924264639620
 Root     59 :    17.298159678816260
 Root     60 :    17.702480540895230
 Iteration     2 Dimension   120 NMult    60 NNew     60
 CISAX will form    60 AO SS matrices at one time.
 NMat=    60 NSing=    60 JSym2X= 0.
 Root      1 not converged, maximum delta is    0.022139100962714
 Root      2 not converged, maximum delta is    0.030767010231118
 Root      3 not converged, maximum delta is    0.024052425864153
 Root      4 not converged, maximum delta is    0.034147048402054
 Root      5 not converged, maximum delta is    0.019181648437017
 Root      6 not converged, maximum delta is    0.018424308138149
 Root      7 not converged, maximum delta is    0.034063638988552
 Root      8 not converged, maximum delta is    0.017595893748728
 Root      9 not converged, maximum delta is    0.043662728034718
 Root     10 not converged, maximum delta is    0.059655145057193
 New state     11 was old state     12
 Root     11 not converged, maximum delta is    0.247602612070394
 New state     12 was old state     11
 Root     12 not converged, maximum delta is    0.117176716192227
 Root     13 not converged, maximum delta is    0.228375279830545
 Root     14 not converged, maximum delta is    0.129321601632273
 Root     15 not converged, maximum delta is    0.073785741090738
 Excitation Energies [eV] at current iteration:
 Root      1 :     5.587021189131661   Change is   -0.064430913765025
 Root      2 :     6.613817817415165   Change is   -0.032637108454397
 Root      3 :     6.903558905353420   Change is   -0.029824145893391
 Root      4 :     7.045326678287815   Change is   -0.041832839880078
 Root      5 :     7.758412178582490   Change is   -0.017707898155453
 Root      6 :     8.149950474340026   Change is   -0.020523290525253
 Root      7 :     8.219122650614413   Change is   -0.046124603193435
 Root      8 :     8.601877955169781   Change is   -0.024567007832423
 Root      9 :     8.836861927263854   Change is   -0.028458144343264
 Root     10 :     9.160928431920274   Change is   -0.057807054969475
 Root     11 :     9.385511337360537   Change is   -0.268893426635906
 Root     12 :     9.516007154693629   Change is   -0.053905284963368
 Root     13 :     9.652034265764710   Change is   -0.061267873001436
 Root     14 :     9.734343547693500   Change is   -0.050689873009746
 Root     15 :     9.928430132298988   Change is   -0.096110959142816
 Root     16 :    10.044503093224390   Change is   -0.095575908005151
 Root     17 :    10.132223889346870   Change is   -0.218389188313096
 Root     18 :    10.160063941212560   Change is   -0.017033466055871
 Root     19 :    10.413148630013790   Change is   -0.226132278186390
 Root     20 :    10.871364741974070   Change is   -0.250906129152478
 Root     21 :    10.980015484449380   Change is   -0.221594260260362
 Root     22 :    11.118740197416500   Change is   -0.233620741431588
 Root     23 :    11.243978675240430   Change is   -0.030723838513546
 Root     24 :    11.467523325302150   Change is   -0.080277546123551
 Root     25 :    11.601798957306450   Change is   -0.180932763111623
 Root     26 :    11.634317622297320   Change is   -0.220987319769704
 Root     27 :    11.775088815957690   Change is   -0.204498754719187
 Root     28 :    11.888698122626080   Change is   -0.315342996354598
 Root     29 :    12.110310416051980   Change is   -0.269029255510549
 Root     30 :    12.333197115294610   Change is   -0.089379621820472
 Root     31 :    12.435014575804170   Change is   -0.086639318306571
 Root     32 :    12.534519516456430   Change is   -0.095856973958176
 Root     33 :    12.652052104254100   Change is   -0.181142868960614
 Root     34 :    12.743861561556950   Change is   -0.172418807739654
 Root     35 :    12.815896478673830   Change is   -0.033570724292518
 Root     36 :    12.969628084235160   Change is   -0.088356645398392
 Root     37 :    13.294183004523530   Change is   -0.218088767071950
 Root     38 :    13.495311722522280   Change is   -0.150703141670354
 Root     39 :    13.598944045750800   Change is   -0.127794971847645
 Root     40 :    13.804865516582450   Change is   -0.099575025295877
 Root     41 :    14.015518549004100   Change is   -0.137975323295496
 Root     42 :    14.185429019981330   Change is   -0.155052617191284
 Root     43 :    14.251314943158370   Change is   -0.067701932518469
 Root     44 :    14.270258801590800   Change is   -0.806063578744674
 Root     45 :    14.376168831695700   Change is   -0.190341516802158
 Root     46 :    14.480267025668180   Change is   -0.185813733303012
 Root     47 :    14.858398406179900   Change is   -0.067561864497784
 Root     48 :    14.917490196710300   Change is   -0.115909109442447
 Root     49 :    15.089691680900720   Change is   -0.199796824994355
 Root     50 :    15.285412768108590   Change is   -0.174501098739508
 Root     51 :    15.316029213322050   Change is   -0.202677033182174
 Root     52 :    15.432703842958440   Change is   -0.186787714912027
 Root     53 :    15.613012095217240   Change is   -0.107279868372971
 Root     54 :    16.033124297244810   Change is   -0.202306052577721
 Root     55 :    16.208123258418010   Change is   -0.351110901853043
 Root     56 :    16.529546771815570   Change is   -0.336377492824051
 Root     57 :    16.574174383362710   Change is   -0.107800767219394
 Root     58 :    16.667457712872950   Change is   -0.135584398743031
 Root     59 :    16.878813360735330   Change is   -0.419346318080928
 Root     60 :    16.891666945351390
 Iteration     3 Dimension   135 NMult   120 NNew     15
 CISAX will form    15 AO SS matrices at one time.
 NMat=    15 NSing=    15 JSym2X= 0.
 Root      1 not converged, maximum delta is    0.001722141991186
 Root      2 not converged, maximum delta is    0.000051202955537
 Root      3 not converged, maximum delta is    0.000065144293620
 Root      4 not converged, maximum delta is    0.000152150740327
 Root      5 not converged, maximum delta is    0.000037928269923
 Root      6 not converged, maximum delta is    0.000062204052172
 Root      7 not converged, maximum delta is    0.000037911673773
 Root      8 not converged, maximum delta is    0.000940172270030
 Root      9 not converged, maximum delta is    0.000063886758738
 Root     10 not converged, maximum delta is    0.000118358034224
 Root     11 not converged, maximum delta is    0.002444092134087
 Root     12 not converged, maximum delta is    0.000702063169582
 Root     13 not converged, maximum delta is    0.001373333727990
 Root     14 not converged, maximum delta is    0.001090819915170
 Root     15 not converged, maximum delta is    0.002710163512089
 Excitation Energies [eV] at current iteration:
 Root      1 :     5.586550740723113   Change is   -0.000470448408548
 Root      2 :     6.613817484745176   Change is   -0.000000332669990
 Root      3 :     6.903558268402914   Change is   -0.000000636950507
 Root      4 :     7.045323145732263   Change is   -0.000003532555551
 Root      5 :     7.758411596339068   Change is   -0.000000582243422
 Root      6 :     8.149949726779139   Change is   -0.000000747560887
 Root      7 :     8.219122121584650   Change is   -0.000000529029762
 Root      8 :     8.601752219115108   Change is   -0.000125736054675
 Root      9 :     8.836860614355297   Change is   -0.000001312908558
 Root     10 :     9.160924364587455   Change is   -0.000004067332821
 Root     11 :     9.384154424786443   Change is   -0.001356912574095
 Root     12 :     9.515943583564678   Change is   -0.000063571128951
 Root     13 :     9.651793009923820   Change is   -0.000241255840891
 Root     14 :     9.734215877272046   Change is   -0.000127670421454
 Root     15 :     9.927737367696393   Change is   -0.000692764602596
 Iteration     4 Dimension   143 NMult   135 NNew      8
 CISAX will form     8 AO SS matrices at one time.
 NMat=     8 NSing=     8 JSym2X= 0.
 Root      1 not converged, maximum delta is    0.000046515633343
 Root      2 not converged, maximum delta is    0.000002982111777
 Root      3 not converged, maximum delta is    0.000001291909140
 Root      4 not converged, maximum delta is    0.000002037123706
 Root      5 not converged, maximum delta is    0.000002550173726
 Root      6 not converged, maximum delta is    0.000005965220073
 Root      7 not converged, maximum delta is    0.000001804523986
 Root      8 not converged, maximum delta is    0.000047787312040
 Root      9 not converged, maximum delta is    0.000002005542901
 Root     10 not converged, maximum delta is    0.000004956094937
 Root     11 not converged, maximum delta is    0.000102352115626
 Root     12 not converged, maximum delta is    0.000026117524983
 Root     13 not converged, maximum delta is    0.000055076061505
 Root     14 not converged, maximum delta is    0.000044607828704
 Root     15 not converged, maximum delta is    0.000130990654365
 Excitation Energies [eV] at current iteration:
 Root      1 :     5.586549996395238   Change is   -0.000000744327874
 Root      2 :     6.613817483512518   Change is   -0.000000001232658
 Root      3 :     6.903558267936328   Change is   -0.000000000466586
 Root      4 :     7.045323144083285   Change is   -0.000000001648979
 Root      5 :     7.758411595579386   Change is   -0.000000000759683
 Root      6 :     8.149949723343719   Change is   -0.000000003435421
 Root      7 :     8.219122120677474   Change is   -0.000000000907176
 Root      8 :     8.601751781139365   Change is   -0.000000437975741
 Root      9 :     8.836860613626556   Change is   -0.000000000728741
 Root     10 :     9.160924355225655   Change is   -0.000000009361799
 Root     11 :     9.384150785277503   Change is   -0.000003639508940
 Root     12 :     9.515943393834156   Change is   -0.000000189730523
 Root     13 :     9.651792405512845   Change is   -0.000000604410973
 Root     14 :     9.734215512367197   Change is   -0.000000364904849
 Root     15 :     9.927736115854319   Change is   -0.000001251842074
 Convergence achieved on expansion vectors.
 ***********************************************************************
 Excited states from <AA,BB:AA,BB> singles matrix:
 ***********************************************************************
 
 1PDM for each excited state written to RWF  633
 Ground to excited state transition densities written to RWF  633
 Ground to excited state transition electric dipole moments (Au):
       state          X           Y           Z        Dip. S.      Osc.
         1        -0.5086      1.4540     -0.0320      2.3738      0.3249
         2         0.0074     -0.0135      0.1788      0.0322      0.0052
         3        -0.0007     -0.0215      0.0671      0.0050      0.0008
         4        -0.0089      0.0438     -0.0144      0.0022      0.0004
         5         0.0248     -0.0100     -0.1822      0.0339      0.0064
         6         0.0067     -0.0046      0.2304      0.0532      0.0106
         7         0.0051     -0.0086      0.1109      0.0124      0.0025
         8        -0.6450     -0.2092     -0.0050      0.4598      0.0969
         9         0.0180     -0.0075      0.0058      0.0004      0.0001
        10         0.0045     -0.0034     -0.0039      0.0000      0.0000
        11         0.2212      0.0829      0.0670      0.0603      0.0139
        12        -0.0020     -0.0630      0.6038      0.3685      0.0859
        13        -0.3212      0.3114      0.1334      0.2180      0.0515
        14         0.2030     -0.1896      0.0621      0.0810      0.0193
        15        -0.0887     -0.7369     -0.0013      0.5509      0.1340
 Ground to excited state transition velocity dipole moments (Au):
       state          X           Y           Z        Dip. S.      Osc.
         1         0.0608     -0.1874      0.0023      0.0388      0.1260
         2        -0.0028      0.0003     -0.1574      0.0248      0.0680
         3         0.0027      0.0026     -0.0990      0.0098      0.0258
         4         0.0022     -0.0117     -0.0017      0.0001      0.0004
         5        -0.0044      0.0035     -0.0071      0.0001      0.0002
         6        -0.0017      0.0052     -0.0241      0.0006      0.0014
         7         0.0001      0.0026     -0.0180      0.0003      0.0007
         8         0.2115      0.0704      0.0018      0.0497      0.1048
         9        -0.0075      0.0020      0.0171      0.0004      0.0007
        10        -0.0013      0.0056     -0.0102      0.0001      0.0003
        11        -0.0270     -0.0401      0.0130      0.0025      0.0048
        12         0.0039      0.0122      0.0644      0.0043      0.0082
        13         0.0139     -0.0534     -0.0463      0.0052      0.0098
        14        -0.0007      0.0350     -0.0561      0.0044      0.0081
        15        -0.0160      0.0855     -0.0178      0.0079      0.0144
 Ground to excited state transition magnetic dipole moments (Au):
       state          X           Y           Z
         1         0.0190     -0.0012     -0.5768
         2        -0.2076      0.1491      0.0181
         3         0.2864      0.1985      0.0042
         4        -0.7649     -0.3696     -0.0369
         5         0.3911     -0.8187      0.0019
         6         0.0533      0.4843      0.0135
         7        -0.7118     -0.0841      0.0018
         8         0.0112     -0.0286      0.0395
         9         0.0025     -0.0533      0.0175
        10        -0.1460     -0.0204      0.0033
        11         0.0058     -0.0151      0.1316
        12         0.1113     -0.0177     -0.0046
        13        -0.1762     -0.1651     -0.1552
        14        -0.2102     -0.1861      0.1308
        15         0.0019     -0.0297      0.1240
 Ground to excited state transition velocity quadrupole moments (Au):
       state          XX          YY          ZZ          XY          XZ          YZ
         1         0.2289     -0.2290      0.0048     -0.2518      0.0077     -0.0041
         2         0.0004      0.0027      0.0007     -0.0036     -0.0764     -0.1373
         3         0.0078      0.0096      0.0010      0.0059     -0.1232      0.1817
         4         0.0044     -0.0235     -0.0040     -0.0170     -0.0928      0.2203
         5         0.0028      0.0213      0.0010      0.0053     -0.1356     -0.0762
         6         0.0017      0.0217     -0.0059     -0.0004     -0.2248      0.0545
         7         0.0014      0.0013      0.0028      0.0102      0.0746     -0.4157
         8         0.2761     -0.1900     -0.0192      0.1306     -0.0064     -0.0132
         9        -0.0179      0.0193     -0.0009     -0.0007      0.1121     -0.1732
        10        -0.0017      0.0191     -0.0076      0.0073      0.0426     -0.1807
        11        -0.1390      0.0688      0.0038     -0.0020      0.0177      0.0139
        12         0.0168      0.0067      0.0083     -0.0029      0.0271      0.1011
        13         0.0443     -0.2713     -0.0227     -0.0665      0.1483     -0.1246
        14         0.0000      0.2027      0.0220      0.0450      0.1739     -0.1762
        15        -0.2849     -0.2170     -0.0414      0.1927      0.0281      0.0060
 <0|del|b> * <b|rxdel|0> + <0|del|b> * <b|delr+rdel|0>
 Rotatory Strengths (R) in cgs (10**-40 erg-esu-cm/Gauss)
       state          XX          YY          ZZ    R(velocity)    E-M Angle
         1        -0.3576      0.2890      0.3474      0.0929       90.00
         2        -3.2084     -3.5658      0.3185     -2.1519       93.15
         3        -0.2368      2.0210      0.6707      0.8183       88.54
         4         4.5540     -1.5713      4.4793      2.4873       74.52
         5        -3.0406     -1.7012     -6.7270     -3.8229      124.22
         6         3.9932     -0.6160      1.6005      1.6592       79.94
         7        -0.7445      0.0374     -0.0656     -0.2576       91.45
         8        -1.3979     -0.6675      3.0314      0.3220       87.78
         9        -0.0471      1.7378     -1.3120      0.1262       80.53
        10        -0.4855      0.4867      0.0839      0.0283       90.00
        11         3.0806      1.2344      0.1198      1.4783       71.00
        12        -1.0387      0.7216      0.1550     -0.0541       90.00
        13        26.9054     -0.0834      0.1757      8.9992       49.08
        14       -22.2138     -4.4659     -0.3987     -9.0261      131.98
        15       -10.2558      1.0627     -0.0697     -3.0876      114.95
 1/2[<0|r|b>*<b|rxdel|0> + (<0|rxdel|b>*<b|r|0>)*]
 Rotatory Strengths (R) in cgs (10**-40 erg-esu-cm/Gauss)
       state          XX          YY          ZZ     R(length)
         1         6.8405      1.2776    -13.0699     -1.6506
         2         1.0855      1.4215     -2.2840      0.0744
         3         0.1485      3.0151     -0.1992      0.9881
         4        -4.8174     11.4560     -0.3748      2.0879
         5        -6.8470     -5.7861      0.2479     -4.1284
         6        -0.2513      1.5823     -2.2013     -0.2901
         7         2.5701     -0.5121     -0.1436      0.6381
         8         5.1189     -4.2326      0.1404      0.3422
         9        -0.0323     -0.2814     -0.0722     -0.1286
        10         0.4666     -0.0483      0.0093      0.1425
        11        -0.9111      0.8882     -6.2321     -2.0850
        12         0.1537     -0.7882      1.9490      0.4382
        13       -40.0359     36.3490     14.6434      3.6522
        14        30.1704    -24.9546     -5.7478     -0.1774
        15         0.1177    -15.4803      0.1097     -5.0843
  1/2[<0|del|b>*<b|r|0> + (<0|r|b>*<b|del|0>)*] (Au)
       state          X           Y           Z        Dip. S.   Osc.(frdel)
         1        -0.0309     -0.2724     -0.0001      0.3034      0.2023
         2         0.0000      0.0000     -0.0281      0.0282      0.0188
         3         0.0000     -0.0001     -0.0066      0.0067      0.0045
         4         0.0000     -0.0005      0.0000      0.0005      0.0003
         5        -0.0001      0.0000      0.0013     -0.0011     -0.0008
         6         0.0000      0.0000     -0.0056      0.0056      0.0037
         7         0.0000      0.0000     -0.0020      0.0020      0.0013
         8        -0.1364     -0.0147      0.0000      0.1511      0.1008
         9        -0.0001      0.0000      0.0001      0.0001      0.0000
        10         0.0000      0.0000      0.0000      0.0000      0.0000
        11        -0.0060     -0.0033      0.0009      0.0084      0.0056
        12         0.0000     -0.0008      0.0389     -0.0381     -0.0254
        13        -0.0045     -0.0166     -0.0062      0.0273      0.0182
        14        -0.0002     -0.0066     -0.0035      0.0103      0.0069
        15         0.0014     -0.0630      0.0000      0.0616      0.0411

 Excitation energies and oscillator strengths:
 
 Excited State   1:      Singlet-A      5.5865 eV  221.93 nm  f=0.3249  <S**2>=0.000
      13 -> 14         0.69368
 This state for optimization and/or second-order correction.
 Total Energy, E(CIS) =   3.02167845571    
 Copying the excited state density for this state as the 1-particle RhoCI density.
 
 Excited State   2:      Singlet-A      6.6138 eV  187.46 nm  f=0.0052  <S**2>=0.000
      11 -> 15         0.10413
      13 -> 15         0.64481
      13 -> 17         0.23409
 
 Excited State   3:      Singlet-A      6.9036 eV  179.59 nm  f=0.0008  <S**2>=0.000
      11 -> 16        -0.12776
      13 -> 16         0.64413
      13 -> 18         0.18353
      13 -> 19        -0.10475
 
 Excited State   4:      Singlet-A      7.0453 eV  175.98 nm  f=0.0004  <S**2>=0.000
       9 -> 14         0.13318
      12 -> 14         0.68898
 
 Excited State   5:      Singlet-A      7.7584 eV  159.81 nm  f=0.0064  <S**2>=0.000
      10 -> 14         0.67562
      11 -> 14        -0.14181
      13 -> 17        -0.10789
 
 Excited State   6:      Singlet-A      8.1499 eV  152.13 nm  f=0.0106  <S**2>=0.000
      10 -> 14         0.12291
      11 -> 15        -0.13043
      13 -> 15        -0.20068
      13 -> 17         0.62587
      13 -> 21        -0.11661
 
 Excited State   7:      Singlet-A      8.2191 eV  150.85 nm  f=0.0025  <S**2>=0.000
      11 -> 16         0.12174
      13 -> 16        -0.15027
      13 -> 17         0.13648
      13 -> 18         0.47336
      13 -> 21         0.44839
 
 Excited State   8:      Singlet-A      8.6018 eV  144.14 nm  f=0.0969  <S**2>=0.000
      10 -> 14         0.14137
      11 -> 14         0.67136
 
 Excited State   9:      Singlet-A      8.8369 eV  140.30 nm  f=0.0001  <S**2>=0.000
      13 -> 16         0.10316
      13 -> 18        -0.11119
      13 -> 19         0.62172
      13 -> 20        -0.11426
      13 -> 21         0.23880
 
 Excited State  10:      Singlet-A      9.1609 eV  135.34 nm  f=0.0000  <S**2>=0.000
      13 -> 18         0.45844
      13 -> 19         0.24164
      13 -> 20        -0.12167
      13 -> 21        -0.44669
 
 Excited State  11:      Singlet-A      9.3842 eV  132.12 nm  f=0.0139  <S**2>=0.000
       8 -> 15        -0.15766
       9 -> 15         0.11779
       9 -> 18        -0.10742
      10 -> 15         0.27844
      10 -> 16         0.13277
      10 -> 17         0.29800
      12 -> 15         0.17263
      12 -> 16        -0.26689
      12 -> 18        -0.22282
      12 -> 21        -0.14301
      13 -> 20         0.11249
 
 Excited State  12:      Singlet-A      9.5159 eV  130.29 nm  f=0.0859  <S**2>=0.000
      11 -> 15        -0.16844
      13 -> 19         0.13886
      13 -> 20         0.63520
 
 Excited State  13:      Singlet-A      9.6518 eV  128.46 nm  f=0.0515  <S**2>=0.000
       9 -> 15        -0.10937
      10 -> 15        -0.21141
      11 -> 15         0.40585
      12 -> 15         0.39592
      12 -> 17         0.14139
      13 -> 20         0.14043
 
 Excited State  14:      Singlet-A      9.7342 eV  127.37 nm  f=0.0193  <S**2>=0.000
      10 -> 15         0.27263
      11 -> 15         0.44981
      12 -> 15        -0.32339
      12 -> 17        -0.12858
      13 -> 15        -0.11066
 
 Excited State  15:      Singlet-A      9.9277 eV  124.89 nm  f=0.1340  <S**2>=0.000
       8 -> 16         0.13316
      10 -> 15         0.17402
      10 -> 16         0.13982
      12 -> 15         0.22156
      12 -> 16         0.54111
      12 -> 20         0.11904
 SavETr:  write IOETrn=   770 NScale= 10 NData=  16 NLR=1 NState=   15 LETran=     280.
 The selected state is a singlet
 CISAX will form     1 AO SS matrices at one time.
 NMat=     1 NSing=     1 JSym2X= 0.
 Leave Link  914 at Tue Dec 15 17:06:00 2015, MaxMem=    33554432 cpu:         0.1
 (Enter /home/Applications/g09/g09/l1002.exe)
 Minotr:  Closed shell wavefunction.
          Computing CIS/TD-HF/TD-KS derivatives.
          Using Z-Vector for PSCF gradient.
          Skipping F1 and S1 gradient terms here.
          IDoAtm=111111111
          Direct CPHF calculation.
          Differentiating once with respect to electric field.
                with respect to dipole field.
          Differentiating once with respect to nuclear coordinates.
          Electric field/nuclear overlap derivatives assumed to be zero.
          Requested convergence is 1.0D-10 RMS, and 1.0D-09 maximum.
          NewPWx=T KeepS1=F KeepF1=F KeepIn=T MapXYZ=F SortEE=F KeepMc=T.
          MDV=      33495423 using IRadAn=       0.
 Keep J ints in memory in canonical form, NReq=871704.
 FoFCou: FMM=F IPFlag=           0 FMFlag=           0 FMFlg1=           0
         NFxFlg=           0 DoJE=F BraDBF=F KetDBF=F FulRan=T
         wScrn=  0.000000 ICntrl=     600 IOpCl=  2 I1Cent=           0 NGrid=           0
         NMat0=    1 NMatS0=     54 NMatT0=    0 NMatD0=    1 NMtDS0=    0 NMtDT0=    0
 Symmetry not used in FoFCou.
          Solving linear equations separately, MaxMat=       0.
          There are     1 degrees of freedom in the 1st order CPHF.  IDoFFX=0 NUNeed=     1.
 LinEq1:  Iter=  0 NonCon=     1 RMS=7.32D-03 Max=4.89D-02 NDo=     1
 AX will form     1 AO Fock derivatives at one time.
 LinEq1:  Iter=  1 NonCon=     1 RMS=6.25D-04 Max=1.90D-03 NDo=     1
 LinEq1:  Iter=  2 NonCon=     1 RMS=9.09D-05 Max=8.31D-04 NDo=     1
 LinEq1:  Iter=  3 NonCon=     1 RMS=1.06D-05 Max=4.99D-05 NDo=     1
 LinEq1:  Iter=  4 NonCon=     1 RMS=1.78D-06 Max=8.27D-06 NDo=     1
 LinEq1:  Iter=  5 NonCon=     1 RMS=2.17D-07 Max=8.37D-07 NDo=     1
 LinEq1:  Iter=  6 NonCon=     1 RMS=2.89D-08 Max=9.89D-08 NDo=     1
 LinEq1:  Iter=  7 NonCon=     1 RMS=2.82D-09 Max=1.09D-08 NDo=     1
 LinEq1:  Iter=  8 NonCon=     1 RMS=2.72D-10 Max=8.97D-10 NDo=     1
 LinEq1:  Iter=  9 NonCon=     0 RMS=3.11D-11 Max=1.16D-10 NDo=     1
 Linear equations converged to 1.000D-10 1.000D-09 after     9 iterations.
 End of Minotr F.D. properties file   721 does not exist.
 End of Minotr F.D. properties file   722 does not exist.
 End of Minotr F.D. properties file   788 does not exist.
 Leave Link 1002 at Tue Dec 15 17:06:00 2015, MaxMem=    33554432 cpu:         0.0
 (Enter /home/Applications/g09/g09/l601.exe)
 Copying SCF densities to generalized density rwf, IOpCl= 0 IROHF=0.

 **********************************************************************

            Population analysis using the SCF density.

 **********************************************************************

 Orbital symmetries:
       Occupied  (A) (A) (A) (A) (A) (A) (A) (A) (A) (A) (A) (A)
                 (A)
       Virtual   (A) (A) (A) (A) (A) (A) (A) (A) (A) (A) (A)
 The electronic state is 1-A.
 Alpha  occ. eigenvalues --   -1.72568  -1.12365  -0.91458  -0.78909  -0.74617
 Alpha  occ. eigenvalues --   -0.66295  -0.63890  -0.52350  -0.48762  -0.42855
 Alpha  occ. eigenvalues --   -0.42100  -0.40441  -0.29221
 Alpha virt. eigenvalues --    0.12425   0.18330   0.19377   0.24762   0.27265
 Alpha virt. eigenvalues --    0.28317   0.29675   0.31566   0.39298   0.48657
 Alpha virt. eigenvalues --    0.51883
     Molecular Orbital Coefficients:
                           1         2         3         4         5
                           O         O         O         O         O
     Eigenvalues --    -1.72568  -1.12365  -0.91458  -0.78909  -0.74617
   1 1   C  1S          0.09914   0.47939   0.23409  -0.27172  -0.14569
   2        1PX        -0.08612  -0.02152  -0.19517   0.06411  -0.37198
   3        1PY        -0.10453  -0.19555   0.14365  -0.21247   0.06843
   4        1PZ         0.00128   0.00502   0.00246  -0.00719  -0.00814
   5 2   C  1S          0.30118   0.18385   0.53913   0.16481   0.34549
   6        1PX        -0.02851   0.34765  -0.09870  -0.41483  -0.08247
   7        1PY        -0.30727   0.03931   0.08674  -0.29895   0.19260
   8        1PZ         0.00137  -0.00131  -0.00236  -0.00049  -0.01231
   9 3   O  1S          0.77281  -0.30283  -0.03706  -0.04540  -0.24529
  10        1PX         0.06952   0.13455  -0.08435  -0.10293   0.11235
  11        1PY         0.04142   0.04493   0.21921   0.25926   0.01256
  12        1PZ        -0.00104  -0.00070  -0.00115  -0.00009  -0.00442
  13 4   C  1S          0.26299   0.21377  -0.48965  -0.08297   0.43446
  14        1PX        -0.21355   0.23638   0.03124   0.51362  -0.01822
  15        1PY         0.18367   0.22361   0.07269   0.02694  -0.19717
  16        1PZ         0.00429   0.00126  -0.00899  -0.00574   0.00166
  17 5   C  1S          0.09766   0.48204  -0.22166   0.28384  -0.15577
  18        1PX        -0.13188  -0.15910   0.03260   0.10918  -0.23089
  19        1PY         0.01206   0.11550   0.21892  -0.22392  -0.31852
  20        1PZ         0.00012  -0.00155  -0.00039  -0.00406  -0.00313
  21 6   H  1S          0.00502   0.14085  -0.11152   0.20871  -0.13795
  22 7   H  1S          0.04915   0.01997  -0.24294  -0.02754   0.29776
  23 8   H  1S          0.06358   0.01281   0.30007   0.09268   0.26718
  24 9   H  1S          0.00585   0.14292   0.12756  -0.20342  -0.11490
                           6         7         8         9        10
                           O         O         O         O         O
     Eigenvalues --    -0.66295  -0.63890  -0.52350  -0.48762  -0.42855
   1 1   C  1S          0.21450  -0.02753  -0.16991  -0.01979  -0.09019
   2        1PX         0.22228  -0.02893   0.00347  -0.34237  -0.33958
   3        1PY         0.23161  -0.01567  -0.09502   0.20411  -0.31542
   4        1PZ         0.04665   0.39014   0.00309  -0.00582  -0.03090
   5 2   C  1S          0.02946   0.00717  -0.11817  -0.11627   0.14429
   6        1PX        -0.21587   0.02390  -0.22610   0.41199   0.30764
   7        1PY         0.36097  -0.04665   0.53565   0.22566   0.08329
   8        1PZ         0.05820   0.59827   0.00249  -0.00341  -0.10766
   9 3   O  1S          0.22698  -0.02861   0.04671   0.35574   0.00649
  10        1PX        -0.18798   0.02235   0.04051  -0.17025   0.02368
  11        1PY        -0.10510   0.01938  -0.17340  -0.05236  -0.05501
  12        1PZ         0.02638   0.23747   0.00470   0.00459  -0.00010
  13 4   C  1S          0.09816  -0.01309   0.06207  -0.15521  -0.14704
  14        1PX         0.06234   0.00574  -0.14832   0.50079  -0.26647
  15        1PY        -0.35915   0.02720   0.55713   0.04665  -0.19511
  16        1PZ         0.05704   0.52670   0.02452  -0.00542   0.12308
  17 5   C  1S          0.21914  -0.02762   0.15178  -0.03428   0.08689
  18        1PX         0.29935  -0.03641  -0.02144  -0.06203   0.45418
  19        1PY        -0.00337  -0.00773  -0.07282  -0.37828   0.07454
  20        1PZ         0.04163   0.37932   0.01208  -0.00542   0.05242
  21 6   H  1S          0.27806  -0.03235   0.07587   0.00596   0.36151
  22 7   H  1S          0.25036  -0.01801  -0.32037  -0.08693   0.04081
  23 8   H  1S          0.24888  -0.03169   0.28629  -0.12358  -0.00996
  24 9   H  1S          0.28624  -0.01963  -0.14148   0.01064  -0.37156
                          11        12        13        14        15
                           O         O         O         V         V
     Eigenvalues --    -0.42100  -0.40441  -0.29221   0.12425   0.18330
   1 1   C  1S          0.02136  -0.06690  -0.01169   0.01534  -0.16290
   2        1PX         0.06053  -0.03733  -0.01038   0.00747   0.31489
   3        1PY         0.05474   0.47899  -0.01818   0.01914   0.00184
   4        1PZ        -0.13269   0.00903   0.62453  -0.65938  -0.00278
   5 2   C  1S         -0.02808   0.11739  -0.00626   0.00169  -0.13561
   6        1PX        -0.05061   0.05672   0.00087  -0.00386   0.45323
   7        1PY        -0.02806  -0.25882   0.00336   0.00038  -0.20668
   8        1PZ        -0.66209  -0.01484  -0.31463   0.18712   0.00434
   9 3   O  1S          0.00000  -0.17939   0.00419  -0.00025   0.02258
  10        1PX        -0.00585   0.20705  -0.00654  -0.00251   0.12453
  11        1PY         0.01148   0.06788  -0.00230   0.00110   0.01959
  12        1PZ        -0.02002  -0.01020  -0.20478  -0.00295   0.00192
  13 4   C  1S          0.01228   0.12162  -0.00226   0.00356  -0.05184
  14        1PX         0.05503  -0.20031   0.00134  -0.00113   0.09961
  15        1PY         0.02686   0.28271  -0.00744  -0.00057   0.08811
  16        1PZ         0.66625  -0.00507  -0.40882  -0.22101  -0.00485
  17 5   C  1S         -0.01698  -0.03308   0.00575   0.00619  -0.11920
  18        1PX        -0.08152   0.35303  -0.00944  -0.00939   0.11450
  19        1PY        -0.00662  -0.35755   0.00302   0.00041  -0.01667
  20        1PZ         0.26248   0.00948   0.54864   0.69302   0.00638
  21 6   H  1S         -0.06704   0.31861  -0.00244   0.00006  -0.08055
  22 7   H  1S         -0.00238  -0.15114   0.00002  -0.00215   0.15577
  23 8   H  1S         -0.00046  -0.10548   0.00230  -0.00521   0.71489
  24 9   H  1S          0.06360   0.27685  -0.00014  -0.01468  -0.03869
                          16        17        18        19        20
                           V         V         V         V         V
     Eigenvalues --     0.19377   0.24762   0.27265   0.28317   0.29675
   1 1   C  1S         -0.06948  -0.07652   0.12178  -0.00298  -0.45063
   2        1PX        -0.07150   0.42724  -0.18344   0.44420  -0.03976
   3        1PY         0.11274   0.12019   0.43957   0.05478  -0.26839
   4        1PZ         0.00160   0.01178   0.01658   0.00966  -0.02126
   5 2   C  1S          0.01914   0.41122  -0.19748   0.25271   0.10883
   6        1PX        -0.08409   0.16802  -0.06980   0.11855   0.09311
   7        1PY         0.11402   0.20279  -0.12198   0.12989   0.12633
   8        1PZ        -0.00086  -0.00677  -0.00117  -0.00466  -0.00082
   9 3   O  1S          0.01193   0.04807   0.00634   0.01443   0.04596
  10        1PX         0.04954   0.01904  -0.01990   0.02993   0.06901
  11        1PY         0.06164  -0.00167   0.03918  -0.00868   0.03846
  12        1PZ        -0.00315  -0.00246   0.00246  -0.00064   0.00520
  13 4   C  1S         -0.15693   0.26204   0.32374  -0.17239   0.25463
  14        1PX         0.11575   0.16053   0.21492  -0.06598   0.23713
  15        1PY         0.49230   0.00950  -0.01708  -0.02611  -0.02169
  16        1PZ        -0.00531   0.00095   0.00190  -0.00026  -0.00172
  17 5   C  1S         -0.09382  -0.00680  -0.12556  -0.24137  -0.29185
  18        1PX         0.13624   0.35079  -0.04211  -0.47976   0.01049
  19        1PY         0.23484   0.05420   0.47966  -0.13302   0.36839
  20        1PZ         0.00241   0.00192  -0.00593  -0.00488   0.00899
  21 6   H  1S          0.00392  -0.38783   0.26415   0.54072   0.24124
  22 7   H  1S          0.74071  -0.15573  -0.17575   0.05967  -0.13219
  23 8   H  1S         -0.18954  -0.26706   0.11877  -0.12246  -0.07141
  24 9   H  1S         -0.05464  -0.29881  -0.42847  -0.22751   0.50461
                          21        22        23        24
                           V         V         V         V
     Eigenvalues --     0.31566   0.39298   0.48657   0.51883
   1 1   C  1S         -0.51196   0.00226   0.05840  -0.01983
   2        1PX        -0.04762   0.00021  -0.00505   0.04357
   3        1PY         0.38338   0.00107   0.02499  -0.01271
   4        1PZ        -0.00365   0.03121   0.00021   0.00022
   5 2   C  1S          0.13041   0.00058  -0.14616  -0.18313
   6        1PX         0.14699  -0.00482  -0.10962   0.13883
   7        1PY        -0.00020  -0.00077   0.19857   0.20257
   8        1PZ        -0.00126  -0.23288   0.00101  -0.00328
   9 3   O  1S         -0.00390  -0.00022   0.16866   0.01907
  10        1PX        -0.00092   0.01617   0.85145  -0.29521
  11        1PY        -0.01403   0.00069   0.28950   0.85881
  12        1PZ         0.00005   0.94873  -0.01521   0.00428
  13 4   C  1S         -0.18521  -0.00127  -0.15297   0.14956
  14        1PX        -0.14947  -0.00417   0.10868  -0.22915
  15        1PY        -0.12540  -0.00006  -0.20596   0.02273
  16        1PZ         0.00053  -0.20845  -0.00104   0.00302
  17 5   C  1S          0.58017   0.00263   0.05110   0.02570
  18        1PX        -0.26594   0.00117   0.01584  -0.01640
  19        1PY         0.24742  -0.00264  -0.01154  -0.04328
  20        1PZ        -0.00846   0.03003  -0.00063  -0.00068
  21 6   H  1S         -0.07798  -0.00212  -0.03017   0.00148
  22 7   H  1S          0.01751   0.00133  -0.03933   0.00927
  23 8   H  1S         -0.00643  -0.00208  -0.03865  -0.01681
  24 9   H  1S          0.04903  -0.00167  -0.03306  -0.00537
     Density Matrix:
                           1         2         3         4         5
   1 1   C  1S          0.95746
   2        1PX         0.12286   0.95281
   3        1PY         0.07456   0.04111   1.11290
   4        1PZ        -0.00569  -0.00281  -0.00226   1.12652
   5 2   C  1S          0.31238  -0.52468   0.00427  -0.00093   1.25104
   6        1PX         0.43226  -0.56370  -0.02828  -0.00092  -0.13931
   7        1PY         0.10852  -0.19258   0.08249   0.00099  -0.23623
   8        1PZ        -0.00646   0.00405  -0.00293   0.26157   0.00792
   9 3   O  1S          0.03341  -0.06076  -0.00176   0.00000   0.00864
  10        1PX         0.00551  -0.08174  -0.01425  -0.00144   0.11921
  11        1PY         0.02560  -0.05020  -0.00834   0.00126   0.41866
  12        1PZ         0.00169   0.00146   0.00090  -0.06287  -0.00116
  13 4   C  1S         -0.01493   0.04621  -0.00312   0.00088  -0.00563
  14        1PX         0.05931  -0.02018  -0.01608  -0.00163  -0.05599
  15        1PY        -0.02040   0.00600  -0.00033  -0.00275  -0.01076
  16        1PZ         0.00432   0.00544   0.00705  -0.27861   0.00102
  17 5   C  1S          0.30210   0.26606  -0.44359   0.00841  -0.01421
  18        1PX        -0.14775   0.03563   0.18282  -0.01134   0.02892
  19        1PY         0.50285   0.34843  -0.46553   0.00274   0.03465
  20        1PZ        -0.01778  -0.01356  -0.01055   0.91265  -0.00238
  21 6   H  1S         -0.00500   0.01055  -0.00800  -0.00063   0.08756
  22 7   H  1S          0.07682   0.01337  -0.06429  -0.00157   0.05851
  23 8   H  1S          0.06912  -0.10191  -0.01839  -0.00051   0.52937
  24 9   H  1S          0.54617   0.36195   0.72125   0.02818   0.04892
                           6         7         8         9        10
   6        1PX         1.35751
   7        1PY         0.05436   1.54997
   8        1PZ        -0.00001   0.00630   1.82130
   9 3   O  1S         -0.01289  -0.10141   0.00046   1.93170
  10        1PX         0.13537  -0.21614   0.00441  -0.29155   0.32647
  11        1PY        -0.17731  -0.46610   0.00492  -0.13649  -0.00012
  12        1PZ         0.00267   0.00774   0.44300   0.00513  -0.00292
  13 4   C  1S         -0.04941  -0.03241   0.00220   0.00281   0.35506
  14        1PX         0.00806   0.00894  -0.00183  -0.07440  -0.38312
  15        1PY        -0.00703   0.00094   0.00033   0.05396   0.29671
  16        1PZ        -0.00111  -0.00118  -0.01431   0.00043   0.01121
  17 5   C  1S          0.02219   0.05021  -0.00180   0.02997   0.01814
  18        1PX        -0.00669  -0.01405   0.00269  -0.03553  -0.06701
  19        1PY         0.00302  -0.00172   0.00075  -0.03870  -0.05032
  20        1PZ         0.00081  -0.00110  -0.24546  -0.00061   0.00008
  21 6   H  1S          0.08362  -0.00252   0.00037   0.00921   0.03146
  22 7   H  1S          0.00528  -0.05446  -0.00065   0.01597  -0.02615
  23 8   H  1S         -0.53321   0.54803  -0.01020   0.02013  -0.07126
  24 9   H  1S          0.00616  -0.03993  -0.00122   0.00913   0.00653
                          11        12        13        14        15
  11        1PY         0.34232
  12        1PZ        -0.00016   0.19918
  13 4   C  1S         -0.19921  -0.00745   1.24916
  14        1PX         0.27261   0.01071  -0.27371   1.51492
  15        1PY         0.01514  -0.00325   0.05551  -0.10269   1.37937
  16        1PZ        -0.00297   0.39417  -0.00310   0.00138   0.00533
  17 5   C  1S         -0.01316  -0.00051   0.33127   0.38232   0.24935
  18        1PX        -0.01439   0.00001  -0.36139  -0.30762  -0.24646
  19        1PY        -0.00839   0.00046  -0.39941  -0.41026  -0.14463
  20        1PZ        -0.00112  -0.05297  -0.00998  -0.00569  -0.00516
  21 6   H  1S         -0.01575  -0.00159   0.05012  -0.03303   0.03338
  22 7   H  1S         -0.06562   0.00181   0.52362   0.01165  -0.77465
  23 8   H  1S          0.03961  -0.00235   0.06268  -0.04740   0.04351
  24 9   H  1S          0.02784  -0.00297   0.08720   0.05046   0.06057
                          16        17        18        19        20
  16        1PZ         1.81527
  17 5   C  1S          0.00038   0.95565
  18        1PX        -0.00142   0.12950   1.08378
  19        1PY         0.00065   0.02842  -0.06260   0.98986
  20        1PZ         0.31899   0.00458  -0.00040   0.00035   1.03711
  21 6   H  1S         -0.00074   0.53793   0.78502  -0.21176   0.00526
  22 7   H  1S          0.00936   0.06477  -0.07220  -0.05271  -0.00093
  23 8   H  1S          0.00152   0.07261  -0.03354   0.04874   0.00149
  24 9   H  1S         -0.00442   0.00051  -0.00492   0.01001   0.00676
                          21        22        23        24
  21 6   H  1S          0.83149
  22 7   H  1S         -0.00908   0.69793
  23 8   H  1S          0.01035   0.00985   0.69127
  24 9   H  1S         -0.00298   0.00561  -0.00913   0.82502
    Full Mulliken population analysis:
                           1         2         3         4         5
   1 1   C  1S          0.95746
   2        1PX         0.00000   0.95281
   3        1PY         0.00000   0.00000   1.11290
   4        1PZ         0.00000   0.00000   0.00000   1.12652
   5 2   C  1S          0.00000   0.00000   0.00000   0.00000   1.25104
   6        1PX         0.00000   0.00000   0.00000   0.00000   0.00000
   7        1PY         0.00000   0.00000   0.00000   0.00000   0.00000
   8        1PZ         0.00000   0.00000   0.00000   0.00000   0.00000
   9 3   O  1S          0.00000   0.00000   0.00000   0.00000   0.00000
  10        1PX         0.00000   0.00000   0.00000   0.00000   0.00000
  11        1PY         0.00000   0.00000   0.00000   0.00000   0.00000
  12        1PZ         0.00000   0.00000   0.00000   0.00000   0.00000
  13 4   C  1S          0.00000   0.00000   0.00000   0.00000   0.00000
  14        1PX         0.00000   0.00000   0.00000   0.00000   0.00000
  15        1PY         0.00000   0.00000   0.00000   0.00000   0.00000
  16        1PZ         0.00000   0.00000   0.00000   0.00000   0.00000
  17 5   C  1S          0.00000   0.00000   0.00000   0.00000   0.00000
  18        1PX         0.00000   0.00000   0.00000   0.00000   0.00000
  19        1PY         0.00000   0.00000   0.00000   0.00000   0.00000
  20        1PZ         0.00000   0.00000   0.00000   0.00000   0.00000
  21 6   H  1S          0.00000   0.00000   0.00000   0.00000   0.00000
  22 7   H  1S          0.00000   0.00000   0.00000   0.00000   0.00000
  23 8   H  1S          0.00000   0.00000   0.00000   0.00000   0.00000
  24 9   H  1S          0.00000   0.00000   0.00000   0.00000   0.00000
                           6         7         8         9        10
   6        1PX         1.35751
   7        1PY         0.00000   1.54997
   8        1PZ         0.00000   0.00000   1.82130
   9 3   O  1S          0.00000   0.00000   0.00000   1.93170
  10        1PX         0.00000   0.00000   0.00000   0.00000   0.32647
  11        1PY         0.00000   0.00000   0.00000   0.00000   0.00000
  12        1PZ         0.00000   0.00000   0.00000   0.00000   0.00000
  13 4   C  1S          0.00000   0.00000   0.00000   0.00000   0.00000
  14        1PX         0.00000   0.00000   0.00000   0.00000   0.00000
  15        1PY         0.00000   0.00000   0.00000   0.00000   0.00000
  16        1PZ         0.00000   0.00000   0.00000   0.00000   0.00000
  17 5   C  1S          0.00000   0.00000   0.00000   0.00000   0.00000
  18        1PX         0.00000   0.00000   0.00000   0.00000   0.00000
  19        1PY         0.00000   0.00000   0.00000   0.00000   0.00000
  20        1PZ         0.00000   0.00000   0.00000   0.00000   0.00000
  21 6   H  1S          0.00000   0.00000   0.00000   0.00000   0.00000
  22 7   H  1S          0.00000   0.00000   0.00000   0.00000   0.00000
  23 8   H  1S          0.00000   0.00000   0.00000   0.00000   0.00000
  24 9   H  1S          0.00000   0.00000   0.00000   0.00000   0.00000
                          11        12        13        14        15
  11        1PY         0.34232
  12        1PZ         0.00000   0.19918
  13 4   C  1S          0.00000   0.00000   1.24916
  14        1PX         0.00000   0.00000   0.00000   1.51492
  15        1PY         0.00000   0.00000   0.00000   0.00000   1.37937
  16        1PZ         0.00000   0.00000   0.00000   0.00000   0.00000
  17 5   C  1S          0.00000   0.00000   0.00000   0.00000   0.00000
  18        1PX         0.00000   0.00000   0.00000   0.00000   0.00000
  19        1PY         0.00000   0.00000   0.00000   0.00000   0.00000
  20        1PZ         0.00000   0.00000   0.00000   0.00000   0.00000
  21 6   H  1S          0.00000   0.00000   0.00000   0.00000   0.00000
  22 7   H  1S          0.00000   0.00000   0.00000   0.00000   0.00000
  23 8   H  1S          0.00000   0.00000   0.00000   0.00000   0.00000
  24 9   H  1S          0.00000   0.00000   0.00000   0.00000   0.00000
                          16        17        18        19        20
  16        1PZ         1.81527
  17 5   C  1S          0.00000   0.95565
  18        1PX         0.00000   0.00000   1.08378
  19        1PY         0.00000   0.00000   0.00000   0.98986
  20        1PZ         0.00000   0.00000   0.00000   0.00000   1.03711
  21 6   H  1S          0.00000   0.00000   0.00000   0.00000   0.00000
  22 7   H  1S          0.00000   0.00000   0.00000   0.00000   0.00000
  23 8   H  1S          0.00000   0.00000   0.00000   0.00000   0.00000
  24 9   H  1S          0.00000   0.00000   0.00000   0.00000   0.00000
                          21        22        23        24
  21 6   H  1S          0.83149
  22 7   H  1S          0.00000   0.69793
  23 8   H  1S          0.00000   0.00000   0.69127
  24 9   H  1S          0.00000   0.00000   0.00000   0.82502
     Gross orbital populations:
                           1
   1 1   C  1S          0.95746
   2        1PX         0.95281
   3        1PY         1.11290
   4        1PZ         1.12652
   5 2   C  1S          1.25104
   6        1PX         1.35751
   7        1PY         1.54997
   8        1PZ         1.82130
   9 3   O  1S          1.93170
  10        1PX         0.32647
  11        1PY         0.34232
  12        1PZ         0.19918
  13 4   C  1S          1.24916
  14        1PX         1.51492
  15        1PY         1.37937
  16        1PZ         1.81527
  17 5   C  1S          0.95565
  18        1PX         1.08378
  19        1PY         0.98986
  20        1PZ         1.03711
  21 6   H  1S          0.83149
  22 7   H  1S          0.69793
  23 8   H  1S          0.69127
  24 9   H  1S          0.82502
          Condensed to atoms (all electrons):
               1          2          3          4          5          6
     1  C    4.149689   0.000000   0.000000   0.000000   0.000000   0.000000
     2  C    0.000000   5.979816   0.000000   0.000000   0.000000   0.000000
     3  O    0.000000   0.000000   2.799677   0.000000   0.000000   0.000000
     4  C    0.000000   0.000000   0.000000   5.958714   0.000000   0.000000
     5  C    0.000000   0.000000   0.000000   0.000000   4.066399   0.000000
     6  H    0.000000   0.000000   0.000000   0.000000   0.000000   0.831485
     7  H    0.000000   0.000000   0.000000   0.000000   0.000000   0.000000
     8  H    0.000000   0.000000   0.000000   0.000000   0.000000   0.000000
     9  H    0.000000   0.000000   0.000000   0.000000   0.000000   0.000000
               7          8          9
     1  C    0.000000   0.000000   0.000000
     2  C    0.000000   0.000000   0.000000
     3  O    0.000000   0.000000   0.000000
     4  C    0.000000   0.000000   0.000000
     5  C    0.000000   0.000000   0.000000
     6  H    0.000000   0.000000   0.000000
     7  H    0.697933   0.000000   0.000000
     8  H    0.000000   0.691269   0.000000
     9  H    0.000000   0.000000   0.825018
 Mulliken charges:
               1
     1  C   -0.149689
     2  C   -1.979816
     3  O    3.200323
     4  C   -1.958714
     5  C   -0.066399
     6  H    0.168515
     7  H    0.302067
     8  H    0.308731
     9  H    0.174982
 Sum of Mulliken charges =   0.00000
 Mulliken charges with hydrogens summed into heavy atoms:
               1
     1  C    0.025294
     2  C   -1.671085
     3  O    3.200323
     4  C   -1.656647
     5  C    0.102116
 Charge=              0.0000 electrons
 Dipole moment (field-independent basis, Debye):
    X=             -9.4681    Y=             -3.8086    Z=              0.2481  Tot=             10.2084
 N-N= 1.041888541904D+02 E-N=-1.696314113585D+02  KE=-1.479691920755D+01
 Orbital energies and kinetic energies (alpha):
                                 1                 2
   1         O                -1.725685         -1.232744
   2         O                -1.123647         -1.001179
   3         O                -0.914578         -0.839287
   4         O                -0.789094         -0.596947
   5         O                -0.746167         -0.674772
   6         O                -0.662950         -0.572076
   7         O                -0.638897         -0.524862
   8         O                -0.523501         -0.377044
   9         O                -0.487621         -0.249286
  10         O                -0.428552         -0.418239
  11         O                -0.421000         -0.319391
  12         O                -0.404412         -0.318442
  13         O                -0.292208         -0.274191
  14         V                 0.124248         -0.172060
  15         V                 0.183302         -0.191986
  16         V                 0.193774         -0.205549
  17         V                 0.247620         -0.162244
  18         V                 0.272652         -0.147944
  19         V                 0.283174         -0.149291
  20         V                 0.296754         -0.155719
  21         V                 0.315658         -0.105863
  22         V                 0.392976          0.493505
  23         V                 0.486568          0.528087
  24         V                 0.518831          0.581220
 Total kinetic energy from orbitals=-1.479691920755D+01
 Leave Link  601 at Tue Dec 15 17:06:00 2015, MaxMem=    33554432 cpu:         0.0
 (Enter /home/Applications/g09/g09/l701.exe)
 Compute integral first derivatives.
 ... and contract with generalized density number  6.
 Leave Link  701 at Tue Dec 15 17:06:01 2015, MaxMem=    33554432 cpu:         0.0
 (Enter /home/Applications/g09/g09/l702.exe)
 L702 exits ... SP integral derivatives will be done elsewhere.
 Leave Link  702 at Tue Dec 15 17:06:01 2015, MaxMem=    33554432 cpu:         0.0
 (Enter /home/Applications/g09/g09/l703.exe)
 Compute integral first derivatives, UseDBF=F ICtDFT=           0.
 Integral derivatives from FoFJK, PRISM(SPDF).
 Calling FoFJK, ICntrl=  10005127 FMM=F ISym2X=0 I1Cent= 0 IOpClX= 0 NMat=1 NMatS=1 NMatT=0.
 FoFJK:  IHMeth= 8 ICntrl=10005127 DoSepK=F KAlg= 0 I1Cent=   0 FoldK=F
 IRaf=         0 NMat=   1 IRICut=       1 DoRegI=T DoRafI=F ISym2E= 0.
 FoFCou: FMM=F IPFlag=           0 FMFlag=      100000 FMFlg1=         800
         NFxFlg=           0 DoJE=F BraDBF=F KetDBF=F FulRan=T
         wScrn=  0.000000 ICntrl=10005127 IOpCl=  0 I1Cent=           0 NGrid=           0
         NMat0=    1 NMatS0=      1 NMatT0=    0 NMatD0=    1 NMtDS0=    0 NMtDT0=    0
 Symmetry not used in FoFCou.
 Leave Link  703 at Tue Dec 15 17:06:01 2015, MaxMem=    33554432 cpu:         0.0
 (Enter /home/Applications/g09/g09/l716.exe)
 Dipole        =-4.11144311D+00-1.67019140D+00 9.85899051D-02
 ***** Axes restored to original set *****
 -------------------------------------------------------------------
 Center     Atomic                   Forces (Hartrees/Bohr)
 Number     Number              X              Y              Z
 -------------------------------------------------------------------
      1        6           0.149896239   -0.106773664    0.000611335
      2        6          -0.182656622   -0.148601710   -0.002349943
      3        8           0.033532469    0.069772280    0.002216760
      4        6          -0.246653270    0.132405124   -0.005011836
      5        6           0.177350062    0.115158705    0.005448746
      6        1           0.036910658    0.030351699   -0.000468864
      7        1          -0.001099889    0.054824062    0.000854947
      8        1          -0.016316393   -0.107515947    0.000321364
      9        1           0.049036745   -0.039620549   -0.001622509
 -------------------------------------------------------------------
 Cartesian Forces:  Max     0.246653270 RMS     0.094192796
 Z-matrix is all fixed cartesians, so copy forces.
 Force constants in Cartesian coordinates: 
                1             2             3             4             5 
      1  0.847989D+00
      2 -0.475053D-01  0.843805D+00
      3 -0.411341D-02  0.112744D-01  0.206321D+00
      4 -0.453930D+00 -0.834858D-01 -0.780257D-02  0.955204D+00
      5 -0.613253D-01 -0.198439D+00 -0.299986D-02 -0.639389D-01  0.997326D+00
      6 -0.972134D-02 -0.319092D-02 -0.917466D-01  0.106096D-01 -0.384081D-02
      7 -0.768967D-02  0.293111D-01 -0.250059D-03 -0.364316D+00  0.233273D+00
      8 -0.609802D-02  0.232333D-01  0.430722D-04  0.277593D+00 -0.451830D+00
      9 -0.669120D-03  0.134231D-02  0.110263D-01 -0.349433D-02  0.185842D-02
     10  0.974900D-02  0.921718D-05  0.712813D-05  0.244146D-01  0.193511D-01
     11  0.354260D-01  0.355280D-04 -0.407512D-03 -0.186772D-01 -0.148040D-01
     12 -0.772113D-03  0.321738D-04 -0.221508D-02  0.302402D-03  0.174890D-03
     13 -0.174122D+00  0.129090D-01  0.946969D-03  0.917217D-02 -0.349736D-01
     14 -0.122344D-01 -0.468819D+00  0.169834D-02  0.782199D-05 -0.415621D-04
     15  0.252155D-03  0.425699D-02 -0.926964D-01  0.324026D-03 -0.109111D-02
     16  0.178030D-01  0.187206D-04 -0.676860D-05  0.105041D-05  0.000000D+00
     17 -0.228518D-01 -0.246844D-04 -0.192688D-03  0.000000D+00  0.000000D+00
     18  0.123129D-02  0.732664D-04  0.221332D-01 -0.109211D-03  0.167814D-04
     19  0.000000D+00  0.000000D+00  0.496017D-04  0.550189D-05  0.227627D-05
     20  0.000000D+00  0.000000D+00  0.158657D-03  0.000000D+00  0.000000D+00
     21  0.114751D-04  0.201548D-04  0.619455D-02 -0.126198D-03 -0.522112D-04
     22  0.712573D-02 -0.271689D-01  0.355463D-03 -0.165645D+00 -0.110938D+00
     23 -0.317337D-02  0.120795D-01  0.100840D-03 -0.105817D+00 -0.353814D+00
     24  0.776235D-05 -0.176472D-02  0.225858D-01  0.102824D-02  0.465141D-02
     25 -0.246925D+00  0.115912D+00  0.108136D-01 -0.490702D-02  0.185498D-01
     26  0.117762D+00 -0.211872D+00 -0.967526D-02 -0.568156D-02  0.216020D-01
     27  0.137733D-01 -0.120437D-01 -0.816030D-01 -0.731966D-03  0.128250D-02
                6             7             8             9            10 
      6  0.187261D+00
      7 -0.484916D-02  0.622835D+00
      8  0.379416D-02 -0.725962D-01  0.779702D+00
      9 -0.510312D-01  0.132298D-01  0.535764D-02  0.597801D-01
     10  0.105873D-02 -0.287852D+00 -0.207207D+00 -0.981584D-02  0.895710D+00
     11 -0.838207D-03 -0.160717D+00 -0.357158D+00 -0.895687D-02  0.165375D-03
     12 -0.305715D-02 -0.797753D-02 -0.895261D-02 -0.488455D-01  0.104056D-01
     13  0.473140D-03 -0.787348D-02  0.601735D-02  0.147059D-03 -0.490205D+00
     14  0.108447D-03 -0.285922D-01  0.218590D-01  0.185054D-03  0.964188D-01
     15 -0.175048D-03 -0.100903D-02  0.475481D-03  0.795841D-02  0.201880D-02
     16 -0.499778D-04  0.000000D+00  0.000000D+00 -0.710734D-05 -0.481309D-02
     17  0.168438D-04  0.000000D+00  0.125706D-05 -0.474161D-04  0.617315D-02
     18  0.519619D-02 -0.394033D-04 -0.164737D-03  0.621383D-02  0.205838D-03
     19 -0.206746D-03  0.213513D-01 -0.163572D-01  0.941034D-03 -0.147004D+00
     20  0.938491D-05  0.979533D-02 -0.750747D-02  0.536075D-03  0.850910D-01
     21  0.474217D-02  0.779705D-03 -0.746463D-03  0.478974D-02 -0.370983D-02
     22  0.852628D-03  0.235444D-01  0.186477D-01 -0.339422D-03  0.000000D+00
     23  0.343519D-02 -0.104829D-01 -0.830225D-02  0.200605D-03 -0.198267D-05
     24 -0.707857D-01  0.225218D-03  0.221810D-03  0.430920D-02 -0.180752D-03
     25  0.183311D-02  0.000000D+00  0.000000D+00  0.795734D-05  0.000000D+00
     26  0.505914D-03  0.898629D-05  0.232660D-05 -0.475822D-03  0.000000D+00
     27  0.195968D-01 -0.109520D-03 -0.283554D-04  0.579906D-02  0.103564D-04
               11            12            13            14            15 
     11  0.848220D+00
     12  0.465416D-02  0.182305D+00
     13  0.727772D-01  0.888834D-03  0.879844D+00
     14 -0.206405D+00 -0.480058D-03  0.235749D-01  0.832192D+00
     15 -0.128929D-02 -0.959351D-01  0.490549D-03  0.881988D-04  0.210218D+00
     16 -0.174837D-01 -0.199502D-03 -0.243063D+00 -0.105203D+00 -0.110709D-02
     17  0.224249D-01  0.510582D-04 -0.105988D+00 -0.190705D+00 -0.794653D-03
     18  0.669466D-03  0.225205D-01 -0.186747D-02 -0.125052D-02 -0.822323D-01
     19  0.885082D-01 -0.307090D-02  0.715902D-02  0.260091D-01 -0.770285D-03
     20 -0.292312D+00  0.442726D-02  0.327645D-02  0.119017D-01  0.184618D-03
     21  0.622484D-02 -0.671552D-01 -0.978837D-04 -0.440691D-03  0.244876D-01
     22  0.000000D+00  0.769864D-05  0.311526D-05  0.000000D+00 -0.148222D-03
     23  0.000000D+00  0.745033D-04 -0.274900D-05  0.000000D+00  0.130796D-03
     24 -0.747815D-04  0.679215D-02 -0.118671D-03  0.182351D-04  0.564630D-02
     25  0.135202D-05  0.415541D-03  0.190861D-01  0.199279D-04 -0.509079D-04
     26  0.000000D+00  0.186166D-04  0.224091D-01  0.172151D-04 -0.196103D-02
     27  0.181900D-04  0.559067D-02 -0.862526D-03  0.729995D-04  0.227290D-01
               16            17            18            19            20 
     16  0.230066D+00
     17  0.122668D+00  0.168301D+00
     18  0.127887D-02  0.922877D-03  0.439156D-01
     19  0.000000D+00  0.000000D+00 -0.747581D-04  0.118488D+00
     20  0.000000D+00  0.182468D-05 -0.239122D-03 -0.981631D-01  0.287916D+00
     21  0.106787D-04  0.712423D-04 -0.933623D-02  0.313205D-02 -0.507687D-02
     22  0.000000D+00  0.000000D+00  0.000000D+00  0.000000D+00  0.000000D+00
     23  0.000000D+00  0.000000D+00  0.000000D+00  0.000000D+00  0.000000D+00
     24  0.000000D+00  0.000000D+00  0.000000D+00  0.000000D+00  0.000000D+00
     25  0.601281D-05 -0.202647D-05 -0.625152D-03  0.000000D+00  0.000000D+00
     26  0.000000D+00  0.000000D+00 -0.280073D-04  0.000000D+00  0.000000D+00
     27  0.808959D-04 -0.272640D-04 -0.841076D-02  0.000000D+00  0.000000D+00
               21            22            23            24            25 
     21  0.362774D-01
     22  0.000000D+00  0.134971D+00
     23  0.000000D+00  0.119478D+00  0.350021D+00
     24  0.000000D+00 -0.950195D-03 -0.374599D-02  0.399109D-01
     25  0.000000D+00  0.000000D+00  0.000000D+00 -0.116067D-04  0.232739D+00
     26  0.000000D+00 -0.182195D-04  0.160774D-04  0.694043D-03 -0.134481D+00
     27  0.000000D+00  0.222049D-03 -0.195943D-03 -0.845862D-02 -0.123826D-01
               26            27 
     26  0.190234D+00
     27  0.109215D-01  0.447568D-01
 Leave Link  716 at Tue Dec 15 17:06:01 2015, MaxMem=    33554432 cpu:         0.0
 (Enter /home/Applications/g09/g09/l103.exe)

 GradGradGradGradGradGradGradGradGradGradGradGradGradGradGradGradGradGrad
 Berny optimization.
 Search for a local minimum.
 Step number   1 out of a maximum of    2
 All quantities printed in internal units (Hartrees-Bohrs-Radians)
 Second derivative matrix not updated -- first step.
 ITU=  0
     Eigenvalues ---    0.01936   0.03141   0.06888   0.07390   0.07976
     Eigenvalues ---    0.08472   0.13049   0.15106   0.16107   0.24508
     Eigenvalues ---    0.25823   0.29227   0.38974   0.43605   0.63135
     Eigenvalues ---    0.82310   1.12596   1.37976   1.45644   1.52208
     Eigenvalues ---    1.71417
 Quadratic step=1.542D+00 exceeds max=3.000D-01 adjusted using Lamda=-9.568D-01.
 Angle between NR and scaled steps=  26.37 degrees.
 Angle between quadratic step and forces=  19.70 degrees.
 Linear search not attempted -- first point.
 TrRot= -0.003357  0.004082  0.000149 -0.000285 -0.000059 -0.000285
 Variable       Old X    -DE/DX   Delta X   Delta X   Delta X     New X
                                 (Linear)    (Quad)   (Total)
    X1        1.82184   0.14990   0.00000   0.07654   0.07240   1.89423
    Y1       -1.30429  -0.10677   0.00000  -0.06707  -0.06407  -1.36836
    Z1        0.08816   0.00061   0.00000  -0.00072  -0.00046   0.08770
    X2       -0.71825  -0.18266   0.00000  -0.08960  -0.09414  -0.81239
    Y2       -1.97116  -0.14860   0.00000  -0.09973  -0.09518  -2.06635
    Z2        0.03693  -0.00235   0.00000  -0.00081  -0.00071   0.03621
    X3       -2.24583   0.03353   0.00000   0.01122   0.00785  -2.23798
    Y3       -0.04281   0.06977   0.00000   0.02965   0.03500  -0.00781
    Z3        0.01750   0.00222   0.00000   0.00136   0.00138   0.01888
    X4       -0.67348  -0.24665   0.00000  -0.11221  -0.11437  -0.78785
    Y4        2.01331   0.13241   0.00000   0.09067   0.09520   2.10851
    Z4        0.08199  -0.00501   0.00000  -0.00334  -0.00323   0.07875
    X5        1.81907   0.17735   0.00000   0.07883   0.07626   1.89532
    Y5        1.32717   0.11516   0.00000   0.06771   0.07071   1.39788
    Z5        0.07960   0.00545   0.00000   0.00447   0.00473   0.08433
    X6        3.47388   0.03691   0.00000   0.04974   0.04788   3.52177
    Y6        2.61701   0.03035   0.00000   0.03986   0.04194   2.65895
    Z6        0.09134  -0.00047   0.00000  -0.00021   0.00015   0.09148
    X7       -1.54158  -0.00110   0.00000  -0.01900  -0.02010  -1.56168
    Y7        3.90888   0.05482   0.00000   0.06840   0.07337   3.98225
    Z7        0.04039   0.00085   0.00000  -0.00001   0.00004   0.04043
    X8       -1.52296  -0.01632   0.00000  -0.02586  -0.03143  -1.55439
    Y8       -3.77807  -0.10752   0.00000  -0.11531  -0.11035  -3.88842
    Z8        0.05766   0.00032   0.00000   0.00019   0.00025   0.05791
    X9        3.38501   0.04904   0.00000   0.06054   0.05565   3.44066
    Y9       -2.63997  -0.03962   0.00000  -0.04874  -0.04662  -2.68659
    Z9       -0.02358  -0.00162   0.00000  -0.00250  -0.00214  -0.02572
         Item               Value     Threshold  Converged?
 Maximum Force            0.246653     0.000450     NO 
 RMS     Force            0.094193     0.000300     NO 
 Maximum Displacement     0.114372     0.001800     NO 
 RMS     Displacement     0.057680     0.001200     NO 
 Predicted change in Energy=-1.122579D-01
 GradGradGradGradGradGradGradGradGradGradGradGradGradGradGradGradGradGrad

 Leave Link  103 at Tue Dec 15 17:06:01 2015, MaxMem=    33554432 cpu:         0.0
 (Enter /home/Applications/g09/g09/l9999.exe)
 1\1\GINC-DUSTIN-DESKTOP\Force\RAM1-FC\STO-3G\C4H4O1\DUSTIN\15-Dec-2015
 \0\\#P AM1(Input,print) CIS(Singlets,NStates=15) pop(full) force\\AM1-
 Reparam Input\\0,1\C,0.964074,-0.690201,0.046651\C,-0.38008,-1.043094,
 0.01954\O,-1.188442,-0.022654,0.009263\C,-0.356388,1.0654,0.043385\C,0
 .962608,0.702308,0.042123\H,1.8383,1.384862,0.048333\H,-0.815771,2.068
 49,0.021372\H,-0.805915,-1.99927,0.030511\H,1.791271,-1.397012,-0.0124
 79\\Version=ES64L-G09RevD.01\State=1-A\HF=2.8163765\RMSD=1.792e-09\RMS
 F=9.419e-02\Dipole=-4.4355046,-0.0941932,-0.1437022\PG=C01 [X(C4H4O1)]
 \\@


 CHINESE FORTUNE COOKIE OF JAN 1 1967 SAY....
 ALL THINGS ARE DIFFICULT BEFORE THEY ARE EASY.
 WE LEARN SO LITTLE AND FORGET SO MUCH.
 YOU WILL OVERCOME OBSTACLES TO ACHIEVE SUCCESS.
 AH SO.
 Job cpu time:       0 days  0 hours  0 minutes  0.7 seconds.
 File lengths (MBytes):  RWF=      7 Int=      0 D2E=      0 Chk=      2 Scr=      1
 Normal termination of Gaussian 09 at Tue Dec 15 17:06:01 2015.
