 Entering Gaussian System, Link 0=g09
 Input=FuranAM1_71P2.com
 Output=FuranAM1_71P2.log
 Initial command:
 /home/Applications/g09/g09/l1.exe "/home/Applications/g09/scratch/Gau-11453.inp" -scrdir="/home/Applications/g09/scratch/"
 Entering Link 1 = /home/Applications/g09/g09/l1.exe PID=     11455.
  
 Copyright (c) 1988,1990,1992,1993,1995,1998,2003,2009,2013,
            Gaussian, Inc.  All Rights Reserved.
  
 This is part of the Gaussian(R) 09 program.  It is based on
 the Gaussian(R) 03 system (copyright 2003, Gaussian, Inc.),
 the Gaussian(R) 98 system (copyright 1998, Gaussian, Inc.),
 the Gaussian(R) 94 system (copyright 1995, Gaussian, Inc.),
 the Gaussian 92(TM) system (copyright 1992, Gaussian, Inc.),
 the Gaussian 90(TM) system (copyright 1990, Gaussian, Inc.),
 the Gaussian 88(TM) system (copyright 1988, Gaussian, Inc.),
 the Gaussian 86(TM) system (copyright 1986, Carnegie Mellon
 University), and the Gaussian 82(TM) system (copyright 1983,
 Carnegie Mellon University). Gaussian is a federally registered
 trademark of Gaussian, Inc.
  
 This software contains proprietary and confidential information,
 including trade secrets, belonging to Gaussian, Inc.
  
 This software is provided under written license and may be
 used, copied, transmitted, or stored only in accord with that
 written license.
  
 The following legend is applicable only to US Government
 contracts under FAR:
  
                    RESTRICTED RIGHTS LEGEND
  
 Use, reproduction and disclosure by the US Government is
 subject to restrictions as set forth in subparagraphs (a)
 and (c) of the Commercial Computer Software - Restricted
 Rights clause in FAR 52.227-19.
  
 Gaussian, Inc.
 340 Quinnipiac St., Bldg. 40, Wallingford CT 06492
  
  
 ---------------------------------------------------------------
 Warning -- This program may not be used in any manner that
 competes with the business of Gaussian, Inc. or will provide
 assistance to any competitor of Gaussian, Inc.  The licensee
 of this program is prohibited from giving any competitor of
 Gaussian, Inc. access to this program.  By using this program,
 the user acknowledges that Gaussian, Inc. is engaged in the
 business of creating and licensing software in the field of
 computational chemistry and represents and warrants to the
 licensee that it is not a competitor of Gaussian, Inc. and that
 it will not use this program in any manner prohibited above.
 ---------------------------------------------------------------
  

 Cite this work as:
 Gaussian 09, Revision D.01,
 M. J. Frisch, G. W. Trucks, H. B. Schlegel, G. E. Scuseria, 
 M. A. Robb, J. R. Cheeseman, G. Scalmani, V. Barone, B. Mennucci, 
 G. A. Petersson, H. Nakatsuji, M. Caricato, X. Li, H. P. Hratchian, 
 A. F. Izmaylov, J. Bloino, G. Zheng, J. L. Sonnenberg, M. Hada, 
 M. Ehara, K. Toyota, R. Fukuda, J. Hasegawa, M. Ishida, T. Nakajima, 
 Y. Honda, O. Kitao, H. Nakai, T. Vreven, J. A. Montgomery, Jr., 
 J. E. Peralta, F. Ogliaro, M. Bearpark, J. J. Heyd, E. Brothers, 
 K. N. Kudin, V. N. Staroverov, T. Keith, R. Kobayashi, J. Normand, 
 K. Raghavachari, A. Rendell, J. C. Burant, S. S. Iyengar, J. Tomasi, 
 M. Cossi, N. Rega, J. M. Millam, M. Klene, J. E. Knox, J. B. Cross, 
 V. Bakken, C. Adamo, J. Jaramillo, R. Gomperts, R. E. Stratmann, 
 O. Yazyev, A. J. Austin, R. Cammi, C. Pomelli, J. W. Ochterski, 
 R. L. Martin, K. Morokuma, V. G. Zakrzewski, G. A. Voth, 
 P. Salvador, J. J. Dannenberg, S. Dapprich, A. D. Daniels, 
 O. Farkas, J. B. Foresman, J. V. Ortiz, J. Cioslowski, 
 and D. J. Fox, Gaussian, Inc., Wallingford CT, 2013.
 
 ******************************************
 Gaussian 09:  ES64L-G09RevD.01 24-Apr-2013
                15-Dec-2015 
 ******************************************
 ------------------------------------------------------------
 #P AM1(Input,print) CIS(Singlets,NStates=15) pop(full) force
 ------------------------------------------------------------
 1/10=7,30=1,38=1/1,3;
 2/12=2,17=6,18=5,40=1/2;
 3/5=2,16=1,25=1,41=700000,71=1,135=100,136=1/1,2,8,3;
 4/35=1/1;
 5/5=2,35=1,38=5/2;
 8/6=1,10=1,108=15/1;
 9/15=2,41=15,42=1,48=1,49=10/14;
 10/5=4/2;
 6/7=3,18=1/1;
 7/12=6,13=5,29=1/1,2,3,16;
 1/10=7,30=1/3;
 99//99;
 Leave Link    1 at Tue Dec 15 17:09:44 2015, MaxMem=           0 cpu:         0.0
 (Enter /home/Applications/g09/g09/l101.exe)
 -----------------
 AM1-Reparam Input
 -----------------
 Symbolic Z-matrix:
 Charge =  0 Multiplicity = 1
 6                     0.97025  -0.67191   0.01071 
 6                    -0.30749  -1.13293   0.04843 
 8                    -1.2003    0.04902   0.02194 
 6                    -0.39127   1.11928   0.02752 
 6                     0.93065   0.71084   0.02005 
 1                     1.80688   1.40564   0.03406 
 1                    -0.88385   2.06422  -0.01528 
 1                    -0.82021  -2.0706    0.03492 
 1                     1.83574  -1.38373   0.00481 
 
 NAtoms=      9 NQM=        9 NQMF=       0 NMMI=      0 NMMIF=      0
                NMic=       0 NMicF=      0.
                    Isotopes and Nuclear Properties:
 (Nuclear quadrupole moments (NQMom) in fm**2, nuclear magnetic moments (NMagM)
  in nuclear magnetons)

  Atom         1           2           3           4           5           6           7           8           9
 IAtWgt=          12          12          16          12          12           1           1           1           1
 AtmWgt=  12.0000000  12.0000000  15.9949146  12.0000000  12.0000000   1.0078250   1.0078250   1.0078250   1.0078250
 NucSpn=           0           0           0           0           0           1           1           1           1
 AtZEff=   0.0000000   0.0000000   0.0000000   0.0000000   0.0000000   0.0000000   0.0000000   0.0000000   0.0000000
 NQMom=    0.0000000   0.0000000   0.0000000   0.0000000   0.0000000   0.0000000   0.0000000   0.0000000   0.0000000
 NMagM=    0.0000000   0.0000000   0.0000000   0.0000000   0.0000000   2.7928460   2.7928460   2.7928460   2.7928460
 AtZNuc=   6.0000000   6.0000000   8.0000000   6.0000000   6.0000000   1.0000000   1.0000000   1.0000000   1.0000000
 Leave Link  101 at Tue Dec 15 17:09:44 2015, MaxMem=    33554432 cpu:         0.0
 (Enter /home/Applications/g09/g09/l103.exe)

 GradGradGradGradGradGradGradGradGradGradGradGradGradGradGradGradGradGrad
 Berny optimization.
 Initialization pass.
 Trust Radius=3.00D-01 FncErr=1.00D-07 GrdErr=1.00D-07
 Number of steps in this run=      2 maximum allowed number of steps=      2.
 GradGradGradGradGradGradGradGradGradGradGradGradGradGradGradGradGradGrad

 Leave Link  103 at Tue Dec 15 17:09:44 2015, MaxMem=    33554432 cpu:         0.0
 (Enter /home/Applications/g09/g09/l202.exe)
                          Input orientation:                          
 ---------------------------------------------------------------------
 Center     Atomic      Atomic             Coordinates (Angstroms)
 Number     Number       Type             X           Y           Z
 ---------------------------------------------------------------------
      1          6           0        0.970251   -0.671909    0.010708
      2          6           0       -0.307486   -1.132931    0.048433
      3          8           0       -1.200297    0.049015    0.021937
      4          6           0       -0.391270    1.119277    0.027521
      5          6           0        0.930653    0.710840    0.020048
      6          1           0        1.806884    1.405644    0.034064
      7          1           0       -0.883853    2.064222   -0.015275
      8          1           0       -0.820213   -2.070597    0.034916
      9          1           0        1.835736   -1.383728    0.004806
 ---------------------------------------------------------------------
                    Distance matrix (angstroms):
                    1          2          3          4          5
     1  C    0.000000
     2  C    1.358888   0.000000
     3  O    2.287168   1.481489   0.000000
     4  C    2.249971   2.253863   1.341647   0.000000
     5  C    1.383347   2.221100   2.231359   1.383603   0.000000
     6  H    2.239805   3.303805   3.299049   2.216739   1.118360
     7  H    3.305267   3.249315   2.040240   1.066485   2.263918
     8  H    2.272152   1.068779   2.153459   3.218593   3.286662
     9  H    1.120618   2.158287   3.357163   3.350389   2.281803
                    6          7          8          9
     6  H    0.000000
     7  H    2.770600   0.000000
     8  H    4.357280   4.135613   0.000000
     9  H    2.789675   4.391461   2.743494   0.000000
 Stoichiometry    C4H4O
 Framework group  C1[X(C4H4O)]
 Deg. of freedom    21
 Full point group                 C1      NOp   1
 Largest Abelian subgroup         C1      NOp   1
 Largest concise Abelian subgroup C1      NOp   1
                         Standard orientation:                         
 ---------------------------------------------------------------------
 Center     Atomic      Atomic             Coordinates (Angstroms)
 Number     Number       Type             X           Y           Z
 ---------------------------------------------------------------------
      1          6           0       -1.066028    0.549571    0.013166
      2          6           0       -0.878971   -0.796044   -0.016967
      3          8           0        0.582850   -1.035453    0.006998
      4          6           0        1.153102    0.178886   -0.007447
      5          6           0        0.175993    1.158476   -0.003216
      6          1           0        0.382676    2.257368   -0.024410
      7          1           0        2.218832    0.183356    0.032427
      8          1           0       -1.469872   -1.686384    0.003517
      9          1           0       -2.099014    0.983952    0.019260
 ---------------------------------------------------------------------
 Rotational constants (GHZ):      9.5286189      8.8356892      4.5852987
 Leave Link  202 at Tue Dec 15 17:09:44 2015, MaxMem=    33554432 cpu:         0.0
 (Enter /home/Applications/g09/g09/l301.exe)

 Semi-emprical parameters in input format:
 Method=8 CoreType=1 PeptideFC=0.0106250000 RIJScale=0.5404210000
 ****
 H       
 PQN=1 NValence=1 F0ss=0.5085940000 ZetaOverlap=1.0856700000 U=-0.4186260000
 Beta=-0.2268830000 CoreKO=1.0354420000 KON=0,0,0,1.0458670000 KON=1,0,1,0.9802520000
 KON=0,1,1,1.0589200000 KON=2,1,1,1.0697690000 EISol=-0.4188110042 EHeat=0.0830298228
 Alpha=1.4609850000
 GCore=0.0085280000,1.4882240000,2.2676710000
 GCore=0.0003530000,1.4551640000,3.3455890000
 GCore=-0.0013010000,0.5600570000,3.4989800000
 ****
 C       
 PQN=2,2 NValence=4 F0ss=0.4494440000 F0sp=0.4261420000 F0pp=0.3388090000 F2pp=0.1878900000
 G1sp=0.2701540000
 ZetaOverlap=1.8086650000,1.3781170000
 U=-1.7687090000,-1.4557970000
 Beta=-0.5453250000,-0.3336900000 DDN=0,1,0.7474020000 DDN=1,1,0.7268010000
 CoreKO=1.1454130000 KON=0,0,0,1.1124280000 KON=1,0,1,0.8473510000 KON=0,1,1,1.1124280000
 KON=2,1,1,0.8516400000 EISol=-4.4398989268 EHeat=0.2723305520 Alpha=1.2914650000
 DipHyp=1.4947180026
 GCore=0.0007890000,1.3361580000,2.6678360000
 GCore=0.0028980000,1.2968490000,3.2840710000
 GCore=-0.0015090000,1.3827320000,3.5104240000
 GCore=-0.0000850000,1.4650940000,4.6088130000
 ****
 O       
 PQN=2,2 NValence=6 F0ss=0.5666750000 F0sp=0.5321300000 F0pp=0.4958710000 F2pp=0.2358080000
 G1sp=0.4216980000
 ZetaOverlap=2.6354490000,2.7379220000
 U=-3.5951870000,-2.0345890000
 Beta=-1.1573400000,-1.2994290000 DDN=0,1,0.4953610000 DDN=1,1,0.4852320000
 CoreKO=0.8515990000 KON=0,0,0,0.8208680000 KON=1,0,1,0.5019540000 KON=0,1,1,0.8682050000
 KON=2,1,1,0.5515580000 EISol=-11.6164441184 EHeat=0.0949133088 Alpha=2.4031680000
 DipHyp=0.9906650029
 GCore=0.0204720000,1.2640290000,1.6023330000
 GCore=0.0054290000,1.9602000000,2.7307880000
 ****
 
 Standard basis: VSTO-6G (5D, 7F)
 Ernie: Thresh=  0.10000D-02 Tol=  0.10000D-05 Strict=F.
  NNHCO=     0 NNPyr=     0 NCTC=     0               EPep=         0.000000000
    EC=        67.893888656  ECS=         2.260910025   EG=         0.356057354
   EHC=         0.000000000  EAt=       -31.051283842  AtH=         1.516354808
 EPDDG=         0.000000000  ECC=        70.510856036 EAtT=        32.567638650
 There are    24 symmetry adapted cartesian basis functions of A   symmetry.
 There are    24 symmetry adapted basis functions of A   symmetry.
    24 basis functions,   144 primitive gaussians,    24 cartesian basis functions
    13 alpha electrons       13 beta electrons
       nuclear repulsion energy       103.0784946860 Hartrees.
 IExCor=    0 DFT=F Ex=HF Corr=None ExCW=0 ScaHFX=  1.000000
 ScaDFX=  1.000000  1.000000  1.000000  1.000000 ScalE2=  1.000000  1.000000
 IRadAn=      0 IRanWt=     -1 IRanGd=            0 ICorTp=0 IEmpDi=  4
 Integral buffers will be    131072 words long.
 Regular integral format.
 Two-electron integral symmetry is turned off.
 Leave Link  301 at Tue Dec 15 17:09:44 2015, MaxMem=    33554432 cpu:         0.0
 (Enter /home/Applications/g09/g09/l302.exe)
 Do NDO integrals.
 NPDir=0 NMtPBC=     1 NCelOv=     1 NCel=       1 NClECP=     1 NCelD=      1
         NCelK=      1 NCelE2=     1 NClLst=     1 CellRange=     0.0.
 One-electron integrals computed using PRISM.
 NBasis=    24 RedAO= F EigKep=  0.00D+00  NBF=    24
 NBsUse=    24 1.00D-04 EigRej=  0.00D+00 NBFU=    24
 Leave Link  302 at Tue Dec 15 17:09:44 2015, MaxMem=    33554432 cpu:         0.0
 (Enter /home/Applications/g09/g09/l308.exe)
 Leave Link  308 at Tue Dec 15 17:09:44 2015, MaxMem=    33554432 cpu:         0.0
 (Enter /home/Applications/g09/g09/l303.exe)
 DipDrv:  MaxL=1.
 Leave Link  303 at Tue Dec 15 17:09:44 2015, MaxMem=    33554432 cpu:         0.0
 (Enter /home/Applications/g09/g09/l401.exe)
 Simple Huckel Guess.
 JPrj=0 DoOrth=F DoCkMO=F.
 Leave Link  401 at Tue Dec 15 17:09:44 2015, MaxMem=    33554432 cpu:         0.0
 (Enter /home/Applications/g09/g09/l502.exe)
 Closed shell SCF:
 Using DIIS extrapolation, IDIIS=  1040.
 Overlap will be assumed to be unity.
 Two-electron integral symmetry not used.
 Keep J ints in memory in canonical form, NReq=888082.
 IVT=       79475 IEndB=       79475 NGot=    33554432 MDV=    33473473
 LenX=    33473473 LenY=    33472456
 Requested convergence on RMS density matrix=1.00D-08 within 128 cycles.
 Requested convergence on MAX density matrix=1.00D-06.
 Requested convergence on             energy=1.00D-06.
 No special actions if energy rises.
 FoFCou: FMM=F IPFlag=           0 FMFlag=           0 FMFlg1=           0
         NFxFlg=           0 DoJE=F BraDBF=F KetDBF=F FulRan=T
         wScrn=  0.000000 ICntrl=     600 IOpCl=  2 I1Cent=           0 NGrid=           0
         NMat0=    1 NMatS0=     54 NMatT0=    0 NMatD0=    1 NMtDS0=    0 NMtDT0=    0
 Symmetry not used in FoFCou.

 Cycle   1  Pass 1  IDiag  1:
 E=  4.16119461518841    
 DIIS: error= 1.66D-01 at cycle   1 NSaved=   1.
 NSaved= 1 IEnMin= 1 EnMin=  4.16119461518841     IErMin= 1 ErrMin= 1.66D-01
 ErrMax= 1.66D-01  0.00D+00 EMaxC= 1.00D-01 BMatC= 4.85D-01 BMatP= 4.85D-01
 IDIUse=3 WtCom= 0.00D+00 WtEn= 1.00D+00
 Coeff-Com:  0.100D+01
 Coeff-En:   0.100D+01
 Coeff:      0.100D+01
 GapD=    2.000 DampG=2.000 DampE=0.250 DampFc=0.5000 IDamp=-1.
 Damping current iteration by 5.00D-01
 RMSDP=6.86D-02 MaxDP=7.53D-01              OVMax= 0.00D+00

 Cycle   2  Pass 1  IDiag  1:
 E=  3.08315941511577     Delta-E=       -1.078035200073 Rises=F Damp=T
 DIIS: error= 8.94D-02 at cycle   2 NSaved=   2.
 NSaved= 2 IEnMin= 2 EnMin=  3.08315941511577     IErMin= 2 ErrMin= 8.94D-02
 ErrMax= 8.94D-02  0.00D+00 EMaxC= 1.00D-01 BMatC= 1.62D-01 BMatP= 4.85D-01
 IDIUse=3 WtCom= 1.06D-01 WtEn= 8.94D-01
 Coeff-Com: -0.109D+01 0.209D+01
 Coeff-En:   0.000D+00 0.100D+01
 Coeff:     -0.116D+00 0.112D+01
 RMSDP=3.74D-02 MaxDP=3.81D-01 DE=-1.08D+00 OVMax= 0.00D+00

 Cycle   3  Pass 1  IDiag  1:
 E=  1.78360731860200     Delta-E=       -1.299552096514 Rises=F Damp=F
 DIIS: error= 1.88D-02 at cycle   3 NSaved=   3.
 NSaved= 3 IEnMin= 3 EnMin=  1.78360731860200     IErMin= 3 ErrMin= 1.88D-02
 ErrMax= 1.88D-02  0.00D+00 EMaxC= 1.00D-01 BMatC= 1.28D-02 BMatP= 1.62D-01
 IDIUse=3 WtCom= 8.12D-01 WtEn= 1.88D-01
 Coeff-Com:  0.343D+00-0.757D+00 0.141D+01
 Coeff-En:   0.000D+00 0.000D+00 0.100D+01
 Coeff:      0.279D+00-0.615D+00 0.134D+01
 RMSDP=1.02D-02 MaxDP=5.65D-02 DE=-1.30D+00 OVMax= 0.00D+00

 Cycle   4  Pass 1  IDiag  3:
 E=  1.73507015689972     Delta-E=       -0.048537161702 Rises=F Damp=F
 DIIS: error= 5.94D-03 at cycle   4 NSaved=   4.
 NSaved= 4 IEnMin= 4 EnMin=  1.73507015689972     IErMin= 4 ErrMin= 5.94D-03
 ErrMax= 5.94D-03  0.00D+00 EMaxC= 1.00D-01 BMatC= 1.18D-03 BMatP= 1.28D-02
 IDIUse=3 WtCom= 9.41D-01 WtEn= 5.94D-02
 Coeff-Com: -0.574D-01 0.102D+00-0.422D+00 0.138D+01
 Coeff-En:   0.000D+00 0.000D+00 0.000D+00 0.100D+01
 Coeff:     -0.540D-01 0.962D-01-0.397D+00 0.135D+01
 Gap=     0.422 Goal=   None    Shift=    0.000
 RMSDP=4.03D-03 MaxDP=2.28D-02 DE=-4.85D-02 OVMax= 4.29D-02

 Cycle   5  Pass 1  IDiag  3:
 E=  1.72986529606985     Delta-E=       -0.005204860830 Rises=F Damp=F
 DIIS: error= 1.14D-03 at cycle   5 NSaved=   5.
 NSaved= 5 IEnMin= 5 EnMin=  1.72986529606985     IErMin= 5 ErrMin= 1.14D-03
 ErrMax= 1.14D-03  0.00D+00 EMaxC= 1.00D-01 BMatC= 4.35D-05 BMatP= 1.18D-03
 IDIUse=3 WtCom= 9.89D-01 WtEn= 1.14D-02
 Coeff-Com:  0.141D-01-0.248D-01 0.130D+00-0.553D+00 0.143D+01
 Coeff-En:   0.000D+00 0.000D+00 0.000D+00 0.000D+00 0.100D+01
 Coeff:      0.140D-01-0.246D-01 0.129D+00-0.547D+00 0.143D+01
 Gap=     0.422 Goal=   None    Shift=    0.000
 RMSDP=8.50D-04 MaxDP=4.60D-03 DE=-5.20D-03 OVMax= 7.15D-03

 Cycle   6  Pass 1  IDiag  3:
 E=  1.72965518877273     Delta-E=       -0.000210107297 Rises=F Damp=F
 DIIS: error= 1.89D-04 at cycle   6 NSaved=   6.
 NSaved= 6 IEnMin= 6 EnMin=  1.72965518877273     IErMin= 6 ErrMin= 1.89D-04
 ErrMax= 1.89D-04  0.00D+00 EMaxC= 1.00D-01 BMatC= 1.51D-06 BMatP= 4.35D-05
 IDIUse=3 WtCom= 9.98D-01 WtEn= 1.89D-03
 Coeff-Com: -0.100D-02 0.217D-02-0.296D-01 0.142D+00-0.514D+00 0.140D+01
 Coeff-En:   0.000D+00 0.000D+00 0.000D+00 0.000D+00 0.000D+00 0.100D+01
 Coeff:     -0.100D-02 0.216D-02-0.295D-01 0.142D+00-0.513D+00 0.140D+01
 Gap=     0.423 Goal=   None    Shift=    0.000
 RMSDP=1.58D-04 MaxDP=9.49D-04 DE=-2.10D-04 OVMax= 9.36D-04

 Cycle   7  Pass 1  IDiag  3:
 E=  1.72964846524727     Delta-E=       -0.000006723525 Rises=F Damp=F
 DIIS: error= 3.04D-05 at cycle   7 NSaved=   7.
 NSaved= 7 IEnMin= 7 EnMin=  1.72964846524727     IErMin= 7 ErrMin= 3.04D-05
 ErrMax= 3.04D-05  0.00D+00 EMaxC= 1.00D-01 BMatC= 3.40D-08 BMatP= 1.51D-06
 IDIUse=1 WtCom= 1.00D+00 WtEn= 0.00D+00
 Coeff-Com:  0.300D-04-0.829D-04 0.799D-02-0.427D-01 0.178D+00-0.568D+00
 Coeff-Com:  0.142D+01
 Coeff:      0.300D-04-0.829D-04 0.799D-02-0.427D-01 0.178D+00-0.568D+00
 Coeff:      0.142D+01
 Gap=     0.423 Goal=   None    Shift=    0.000
 RMSDP=2.08D-05 MaxDP=1.41D-04 DE=-6.72D-06 OVMax= 1.92D-04

 Cycle   8  Pass 1  IDiag  3:
 E=  1.72964832912500     Delta-E=       -0.000000136122 Rises=F Damp=F
 DIIS: error= 4.24D-06 at cycle   8 NSaved=   8.
 NSaved= 8 IEnMin= 8 EnMin=  1.72964832912500     IErMin= 8 ErrMin= 4.24D-06
 ErrMax= 4.24D-06  0.00D+00 EMaxC= 1.00D-01 BMatC= 7.34D-10 BMatP= 3.40D-08
 IDIUse=1 WtCom= 1.00D+00 WtEn= 0.00D+00
 Coeff-Com:  0.158D-05-0.247D-04-0.106D-02 0.676D-02-0.342D-01 0.118D+00
 Coeff-Com: -0.380D+00 0.129D+01
 Coeff:      0.158D-05-0.247D-04-0.106D-02 0.676D-02-0.342D-01 0.118D+00
 Coeff:     -0.380D+00 0.129D+01
 Gap=     0.423 Goal=   None    Shift=    0.000
 RMSDP=3.01D-06 MaxDP=1.75D-05 DE=-1.36D-07 OVMax= 2.07D-05

 Cycle   9  Pass 1  IDiag  3:
 E=  1.72964832629708     Delta-E=       -0.000000002828 Rises=F Damp=F
 DIIS: error= 8.38D-07 at cycle   9 NSaved=   9.
 NSaved= 9 IEnMin= 9 EnMin=  1.72964832629708     IErMin= 9 ErrMin= 8.38D-07
 ErrMax= 8.38D-07  0.00D+00 EMaxC= 1.00D-01 BMatC= 1.66D-11 BMatP= 7.34D-10
 IDIUse=1 WtCom= 1.00D+00 WtEn= 0.00D+00
 Coeff-Com:  0.358D-05-0.287D-05 0.190D-03-0.124D-02 0.668D-02-0.231D-01
 Coeff-Com:  0.759D-01-0.326D+00 0.127D+01
 Coeff:      0.358D-05-0.287D-05 0.190D-03-0.124D-02 0.668D-02-0.231D-01
 Coeff:      0.759D-01-0.326D+00 0.127D+01
 Gap=     0.423 Goal=   None    Shift=    0.000
 RMSDP=4.69D-07 MaxDP=3.71D-06 DE=-2.83D-09 OVMax= 4.42D-06

 Cycle  10  Pass 1  IDiag  3:
 E=  1.72964832622185     Delta-E=       -0.000000000075 Rises=F Damp=F
 DIIS: error= 2.61D-07 at cycle  10 NSaved=  10.
 NSaved=10 IEnMin=10 EnMin=  1.72964832622185     IErMin=10 ErrMin= 2.61D-07
 ErrMax= 2.61D-07  0.00D+00 EMaxC= 1.00D-01 BMatC= 1.26D-12 BMatP= 1.66D-11
 IDIUse=1 WtCom= 1.00D+00 WtEn= 0.00D+00
 Coeff-Com:  0.120D-05-0.283D-05-0.290D-04 0.227D-03-0.143D-02 0.501D-02
 Coeff-Com: -0.174D-01 0.855D-01-0.513D+00 0.144D+01
 Coeff:      0.120D-05-0.283D-05-0.290D-04 0.227D-03-0.143D-02 0.501D-02
 Coeff:     -0.174D-01 0.855D-01-0.513D+00 0.144D+01
 Gap=     0.423 Goal=   None    Shift=    0.000
 RMSDP=1.74D-07 MaxDP=1.82D-06 DE=-7.52D-11 OVMax= 2.13D-06

 Cycle  11  Pass 1  IDiag  3:
 E=  1.72964832621388     Delta-E=       -0.000000000008 Rises=F Damp=F
 DIIS: error= 7.67D-08 at cycle  11 NSaved=  11.
 NSaved=11 IEnMin=11 EnMin=  1.72964832621388     IErMin=11 ErrMin= 7.67D-08
 ErrMax= 7.67D-08  0.00D+00 EMaxC= 1.00D-01 BMatC= 1.39D-13 BMatP= 1.26D-12
 IDIUse=1 WtCom= 1.00D+00 WtEn= 0.00D+00
 Coeff-Com: -0.629D-06 0.130D-05 0.615D-05-0.630D-04 0.480D-03-0.167D-02
 Coeff-Com:  0.623D-02-0.347D-01 0.265D+00-0.101D+01 0.178D+01
 Coeff:     -0.629D-06 0.130D-05 0.615D-05-0.630D-04 0.480D-03-0.167D-02
 Coeff:      0.623D-02-0.347D-01 0.265D+00-0.101D+01 0.178D+01
 Gap=     0.423 Goal=   None    Shift=    0.000
 RMSDP=7.40D-08 MaxDP=7.72D-07 DE=-7.97D-12 OVMax= 8.75D-07

 Cycle  12  Pass 1  IDiag  3:
 E=  1.72964832621287     Delta-E=       -0.000000000001 Rises=F Damp=F
 DIIS: error= 1.30D-08 at cycle  12 NSaved=  12.
 NSaved=12 IEnMin=12 EnMin=  1.72964832621287     IErMin=12 ErrMin= 1.30D-08
 ErrMax= 1.30D-08  0.00D+00 EMaxC= 1.00D-01 BMatC= 6.40D-15 BMatP= 1.39D-13
 IDIUse=1 WtCom= 1.00D+00 WtEn= 0.00D+00
 Coeff-Com: -0.155D-07 0.880D-08-0.927D-06 0.115D-04-0.107D-03 0.359D-03
 Coeff-Com: -0.142D-02 0.918D-02-0.847D-01 0.367D+00-0.820D+00 0.153D+01
 Coeff:     -0.155D-07 0.880D-08-0.927D-06 0.115D-04-0.107D-03 0.359D-03
 Coeff:     -0.142D-02 0.918D-02-0.847D-01 0.367D+00-0.820D+00 0.153D+01
 Gap=     0.423 Goal=   None    Shift=    0.000
 RMSDP=1.44D-08 MaxDP=1.24D-07 DE=-1.01D-12 OVMax= 1.32D-07

 Cycle  13  Pass 1  IDiag  3:
 E=  1.72964832621291     Delta-E=        0.000000000000 Rises=F Damp=F
 DIIS: error= 1.23D-09 at cycle  13 NSaved=  13.
 NSaved=13 IEnMin=12 EnMin=  1.72964832621287     IErMin=13 ErrMin= 1.23D-09
 ErrMax= 1.23D-09  0.00D+00 EMaxC= 1.00D-01 BMatC= 1.45D-16 BMatP= 6.40D-15
 IDIUse=1 WtCom= 1.00D+00 WtEn= 0.00D+00
 Coeff-Com:  0.115D-07-0.168D-07 0.339D-06-0.366D-05 0.328D-04-0.108D-03
 Coeff-Com:  0.422D-03-0.269D-02 0.255D-01-0.113D+00 0.264D+00-0.583D+00
 Coeff-Com:  0.141D+01
 Coeff:      0.115D-07-0.168D-07 0.339D-06-0.366D-05 0.328D-04-0.108D-03
 Coeff:      0.422D-03-0.269D-02 0.255D-01-0.113D+00 0.264D+00-0.583D+00
 Coeff:      0.141D+01
 Gap=     0.423 Goal=   None    Shift=    0.000
 RMSDP=1.60D-09 MaxDP=9.20D-09 DE= 4.26D-14 OVMax= 9.42D-09

 Cycle  14  Pass 2  IDiag  1:
 SCF Done:  E(RAM1) =   1.72964832621     A.U. after   14 cycles
            NFock= 13  Conv=0.16D-08     -V/T= 1.1120
 KE=-1.543744895329D+01 PE=-1.679814191101D+02 EE= 8.207002170360D+01
 Leave Link  502 at Tue Dec 15 17:09:44 2015, MaxMem=    33554432 cpu:         0.0
 (Enter /home/Applications/g09/g09/l801.exe)
 Range of M.O.s used for correlation:     1    24
 NBasis=    24 NAE=    13 NBE=    13 NFC=     0 NFV=     0
 NROrb=     24 NOA=    13 NOB=    13 NVA=    11 NVB=    11
 Leave Link  801 at Tue Dec 15 17:09:44 2015, MaxMem=    33554432 cpu:         0.0
 (Enter /home/Applications/g09/g09/l914.exe)
 RHF ground state
 MDV=    33554432 DFT=F DoStab=F Mixed=F DoRPA=F DoScal=F NonHer=F
 Making orbital integer symmetry assigments:
 Orbital symmetries:
       Occupied  (A) (A) (A) (A) (A) (A) (A) (A) (A) (A) (A) (A)
                 (A)
       Virtual   (A) (A) (A) (A) (A) (A) (A) (A) (A) (A) (A)
    60 initial guesses have been made.
 Convergence on wavefunction:    0.000001000000000
 Davidson Disk Diagonalization:  ConvIn= 1.00D-06 SkipCon=T Conv= 1.00D-06.
 Max sub-space:   240 roots to seek:    60 dimension of matrix:          286
 Iteration     1 Dimension    60 NMult     0 NNew     60
 CISAX will form    60 AO SS matrices at one time.
 NMat=    60 NSing=    60 JSym2X= 0.
 FoFJK:  IHMeth= 8 ICntrl=       0 DoSepK=F KAlg= 0 I1Cent=   0 FoldK=F
 IRaf=         1 NMat= 120 IRICut=       1 DoRegI=T DoRafI=F ISym2E= 0.
 FoFCou: FMM=F IPFlag=           0 FMFlag=      100000 FMFlg1=           0
         NFxFlg=           0 DoJE=F BraDBF=F KetDBF=F FulRan=T
         wScrn=  0.000000 ICntrl=       0 IOpCl=  0 I1Cent=           0 NGrid=           0
         NMat0=  120 NMatS0=     60 NMatT0=    0 NMatD0=  120 NMtDS0=    0 NMtDT0=    0
 Symmetry not used in FoFCou.
 New state      3 was old state      4
 New state      4 was old state      5
 New state      5 was old state      3
 New state      7 was old state      8
 New state      8 was old state      7
 New state      9 was old state     10
 New state     10 was old state      9
 Excitation Energies [eV] at current iteration:
 Root      1 :     5.700193777710094
 Root      2 :     7.087938727989681
 Root      3 :     7.386966833451360
 Root      4 :     7.747045721626303
 Root      5 :     7.839500262886931
 Root      6 :     9.128677969472404
 Root      7 :     9.186341518355562
 Root      8 :     9.522647144520672
 Root      9 :     9.921759947239924
 Root     10 :    10.220313938437940
 Root     11 :    10.326547279093160
 Root     12 :    10.618470585649990
 Root     13 :    10.653757868254920
 Root     14 :    10.879839270851870
 Root     15 :    10.913960211352630
 Root     16 :    11.065548860875080
 Root     17 :    11.236076645798970
 Root     18 :    11.589637864986520
 Root     19 :    11.620515258349650
 Root     20 :    11.787503967226860
 Root     21 :    12.103589749791660
 Root     22 :    12.170879698638190
 Root     23 :    12.264843829007570
 Root     24 :    12.384460765695800
 Root     25 :    12.394816249876040
 Root     26 :    12.778348463368340
 Root     27 :    13.097295753486990
 Root     28 :    13.169591098481020
 Root     29 :    13.219459001382900
 Root     30 :    13.439001191629820
 Root     31 :    13.636173281283330
 Root     32 :    13.662685779521140
 Root     33 :    13.774398374863330
 Root     34 :    13.959179699980990
 Root     35 :    14.236007851603110
 Root     36 :    14.306288799459630
 Root     37 :    14.346957575203650
 Root     38 :    14.428462741189910
 Root     39 :    14.527863522140570
 Root     40 :    14.606618399002130
 Root     41 :    14.900616154406340
 Root     42 :    14.987820675424560
 Root     43 :    15.027270715011170
 Root     44 :    15.168009833602020
 Root     45 :    15.543763862677150
 Root     46 :    15.871962975273040
 Root     47 :    15.915640904081590
 Root     48 :    15.984966755440070
 Root     49 :    16.121318424168450
 Root     50 :    16.198135531415610
 Root     51 :    16.469303965769820
 Root     52 :    16.643617293920270
 Root     53 :    16.736532992117390
 Root     54 :    16.849543456409220
 Root     55 :    17.056438852742540
 Root     56 :    17.128336603411320
 Root     57 :    17.422816142665780
 Root     58 :    17.755739928824020
 Root     59 :    17.763494851907210
 Root     60 :    18.148436443554640
 Iteration     2 Dimension   120 NMult    60 NNew     60
 CISAX will form    60 AO SS matrices at one time.
 NMat=    60 NSing=    60 JSym2X= 0.
 Root      1 not converged, maximum delta is    0.017051932698151
 Root      2 not converged, maximum delta is    0.026671886355719
 Root      3 not converged, maximum delta is    0.023601274782148
 Root      4 not converged, maximum delta is    0.140335232091446
 Root      5 not converged, maximum delta is    0.147425516340089
 Root      6 not converged, maximum delta is    0.305892723126055
 Root      7 not converged, maximum delta is    0.326946307292216
 Root      8 not converged, maximum delta is    0.035198338716970
 Root      9 not converged, maximum delta is    0.044439730613357
 New state     10 was old state     11
 Root     10 not converged, maximum delta is    0.267982574722743
 New state     11 was old state     10
 Root     11 not converged, maximum delta is    0.165354757502352
 Root     12 not converged, maximum delta is    0.098314465735603
 Root     13 not converged, maximum delta is    0.126711018771717
 Root     14 not converged, maximum delta is    0.041901268386975
 Root     15 not converged, maximum delta is    0.034740060886575
 Excitation Energies [eV] at current iteration:
 Root      1 :     5.625208910659454   Change is   -0.074984867050640
 Root      2 :     7.058962633042226   Change is   -0.028976094947455
 Root      3 :     7.356307634869461   Change is   -0.030659198581898
 Root      4 :     7.706544095936777   Change is   -0.040501625689526
 Root      5 :     7.803363299972959   Change is   -0.036136962913972
 Root      6 :     9.090305247711926   Change is   -0.038372721760478
 Root      7 :     9.117942397332250   Change is   -0.068399121023311
 Root      8 :     9.454651352955365   Change is   -0.067995791565307
 Root      9 :     9.850878170542090   Change is   -0.070881776697834
 Root     10 :    10.024002713565840   Change is   -0.302544565527324
 Root     11 :    10.175708483946290   Change is   -0.044605454491657
 Root     12 :    10.533443872110040   Change is   -0.085026713539943
 Root     13 :    10.579865810650930   Change is   -0.073892057603989
 Root     14 :    10.773035203514810   Change is   -0.106804067337066
 Root     15 :    10.877455201028470   Change is   -0.036505010324153
 Root     16 :    10.966828820220210   Change is   -0.269247825578753
 Root     17 :    11.044832999264750   Change is   -0.020715861610331
 Root     18 :    11.324255303425510   Change is   -0.265382561561009
 Root     19 :    11.526922739902980   Change is   -0.093592518446678
 Root     20 :    11.566157709854460   Change is   -0.221346257372393
 Root     21 :    11.909303060592940   Change is   -0.194286689198726
 Root     22 :    12.023453505507060   Change is   -0.147426193131132
 Root     23 :    12.177152016081640   Change is   -0.087691812925929
 Root     24 :    12.184532784185710   Change is   -0.210283465690334
 Root     25 :    12.315684420140860   Change is   -0.068776345554935
 Root     26 :    12.572860222195280   Change is   -0.205488241173056
 Root     27 :    12.902155657687600   Change is   -0.195140095799386
 Root     28 :    12.941831279893240   Change is   -0.277627721489667
 Root     29 :    12.995881967558460   Change is   -0.173709130922560
 Root     30 :    13.313008647750730   Change is   -0.125992543879086
 Root     31 :    13.403683830582860   Change is   -0.232489450700472
 Root     32 :    13.543835200890430   Change is   -0.118850578630710
 Root     33 :    13.580412055958440   Change is   -0.193986318904887
 Root     34 :    13.785334039031620   Change is   -0.520954760428014
 Root     35 :    13.898827677695460   Change is   -0.060352022285527
 Root     36 :    13.984845821416660   Change is   -0.251162030186454
 Root     37 :    14.158703875799030   Change is   -0.188253699404624
 Root     38 :    14.324672985880460   Change is   -0.281945413121676
 Root     39 :    14.347343414156210   Change is   -0.081119327033701
 Root     40 :    14.390663635366590   Change is   -0.137199886773984
 Root     41 :    14.579241205662250   Change is   -0.321374948744091
 Root     42 :    14.663775096508030   Change is   -0.324045578916537
 Root     43 :    14.961456163743550   Change is   -0.065814551267616
 Root     44 :    15.036413459381030   Change is   -0.131596374220983
 Root     45 :    15.259152734912160   Change is   -0.284611127764988
 Root     46 :    15.579849084566870   Change is   -0.292113890706168
 Root     47 :    15.601007296626890   Change is   -0.520311127541567
 Root     48 :    15.818577123622870   Change is   -0.097063780458726
 Root     49 :    15.940912410253720   Change is   -0.044054345186348
 Root     50 :    16.045629464520360   Change is   -0.152506066895251
 Root     51 :    16.269566827890240   Change is   -0.374050466030030
 Root     52 :    16.280018129640360   Change is   -0.189285836129458
 Root     53 :    16.424784035656080   Change is   -0.311748956461313
 Root     54 :    16.485985945783420   Change is   -0.363557510625800
 Root     55 :    16.524575330174100
 Root     56 :    16.753732066216340   Change is   -0.374604537194982
 Root     57 :    16.823256475675830   Change is   -0.233182377066713
 Root     58 :    17.002736537565810   Change is   -0.420079605099967
 Root     59 :    17.011754474487880   Change is   -0.743985454336149
 Root     60 :    17.301648293949590   Change is   -0.461846557957624
 Iteration     3 Dimension   135 NMult   120 NNew     15
 CISAX will form    15 AO SS matrices at one time.
 NMat=    15 NSing=    15 JSym2X= 0.
 Root      1 not converged, maximum delta is    0.001164080027640
 Root      2 not converged, maximum delta is    0.000056395526704
 Root      3 not converged, maximum delta is    0.000047691550845
 Root      4 not converged, maximum delta is    0.000039264137310
 Root      5 not converged, maximum delta is    0.000072708277433
 Root      6 not converged, maximum delta is    0.000118169255500
 Root      7 not converged, maximum delta is    0.000084425031280
 Root      8 not converged, maximum delta is    0.001728564332505
 Root      9 not converged, maximum delta is    0.000106662268547
 Root     10 not converged, maximum delta is    0.002799555068817
 Root     11 not converged, maximum delta is    0.001438441632823
 Root     12 not converged, maximum delta is    0.002682896695118
 Root     13 not converged, maximum delta is    0.002654847433583
 Root     14 not converged, maximum delta is    0.002683906657036
 Root     15 not converged, maximum delta is    0.000364315914625
 Excitation Energies [eV] at current iteration:
 Root      1 :     5.624847545973336   Change is   -0.000361364686119
 Root      2 :     7.058961957670798   Change is   -0.000000675371428
 Root      3 :     7.356306848506090   Change is   -0.000000786363371
 Root      4 :     7.706543841179045   Change is   -0.000000254757731
 Root      5 :     7.803362476611173   Change is   -0.000000823361787
 Root      6 :     9.090303151286919   Change is   -0.000002096425006
 Root      7 :     9.117940761497813   Change is   -0.000001635834436
 Root      8 :     9.454175615582816   Change is   -0.000475737372548
 Root      9 :     9.850875126294016   Change is   -0.000003044248076
 Root     10 :    10.022931539198260   Change is   -0.001071174367581
 Root     11 :    10.175405809859290   Change is   -0.000302674086995
 Root     12 :    10.532951599157780   Change is   -0.000492272952265
 Root     13 :    10.579778217688760   Change is   -0.000087592962179
 Root     14 :    10.771815617822190   Change is   -0.001219585692615
 Root     15 :    10.877448589112700   Change is   -0.000006611915773
 Iteration     4 Dimension   143 NMult   135 NNew      8
 CISAX will form     8 AO SS matrices at one time.
 NMat=     8 NSing=     8 JSym2X= 0.
 Root      1 not converged, maximum delta is    0.000038223867835
 Root      2 not converged, maximum delta is    0.000001841445189
 Root      3 not converged, maximum delta is    0.000001832537167
 Root      4 not converged, maximum delta is    0.000001064965975
 Root      5 not converged, maximum delta is    0.000001688961788
 Root      6 not converged, maximum delta is    0.000003342529482
 Root      7 not converged, maximum delta is    0.000002610646555
 Root      8 not converged, maximum delta is    0.000044966223597
 Root      9 not converged, maximum delta is    0.000005128178148
 Root     10 not converged, maximum delta is    0.000059209769532
 Root     11 not converged, maximum delta is    0.000069948921825
 Root     12 not converged, maximum delta is    0.000114244822423
 Root     13 not converged, maximum delta is    0.000039311606478
 Root     14 not converged, maximum delta is    0.000100133721504
 Root     15 not converged, maximum delta is    0.000009938289974
 Excitation Energies [eV] at current iteration:
 Root      1 :     5.624846935757863   Change is   -0.000000610215473
 Root      2 :     7.058961956215270   Change is   -0.000000001455528
 Root      3 :     7.356306847275879   Change is   -0.000000001230212
 Root      4 :     7.706543840946090   Change is   -0.000000000232955
 Root      5 :     7.803362475511843   Change is   -0.000000001099330
 Root      6 :     9.090303146708983   Change is   -0.000000004577937
 Root      7 :     9.117940759058431   Change is   -0.000000002439383
 Root      8 :     9.454174826431847   Change is   -0.000000789150969
 Root      9 :     9.850875121154647   Change is   -0.000000005139367
 Root     10 :    10.022930468868870   Change is   -0.000001070329386
 Root     11 :    10.175404405148680   Change is   -0.000001404710615
 Root     12 :    10.532947763577180   Change is   -0.000003835580594
 Root     13 :    10.579777662234780   Change is   -0.000000555453970
 Root     14 :    10.771811317959080   Change is   -0.000004299863113
 Root     15 :    10.877448553788040   Change is   -0.000000035324654
 Convergence achieved on expansion vectors.
 ***********************************************************************
 Excited states from <AA,BB:AA,BB> singles matrix:
 ***********************************************************************
 
 1PDM for each excited state written to RWF  633
 Ground to excited state transition densities written to RWF  633
 Ground to excited state transition electric dipole moments (Au):
       state          X           Y           Z        Dip. S.      Osc.
         1         1.3090      0.8127     -0.0136      2.3741      0.3272
         2         0.0272      0.0019      0.1256      0.0165      0.0029
         3         0.0254      0.0076      0.0014      0.0007      0.0001
         4        -0.0166     -0.0116      0.1786      0.0323      0.0061
         5        -0.0392     -0.0382      0.0908      0.0112      0.0021
         6        -0.0254     -0.0334     -0.2078      0.0450      0.0100
         7        -0.0021     -0.0035      0.0678      0.0046      0.0010
         8         0.1123     -0.4926     -0.0256      0.2559      0.0593
         9         0.0111      0.0043     -0.0095      0.0002      0.0001
        10         0.4250      0.1052     -0.0282      0.1925      0.0473
        11        -0.7314     -0.1812      0.0029      0.5677      0.1415
        12         0.3233     -0.3926      0.1749      0.2892      0.0746
        13         0.1119     -0.1246     -0.4350      0.2173      0.0563
        14         0.7619      0.4394     -0.0113      0.7737      0.2042
        15         0.0286     -0.0246     -0.3255      0.1074      0.0286
 Ground to excited state transition velocity dipole moments (Au):
       state          X           Y           Z        Dip. S.      Osc.
         1        -0.1667     -0.1112      0.0041      0.0402      0.1295
         2        -0.0020      0.0005     -0.1221      0.0149      0.0383
         3        -0.0050     -0.0006      0.0027      0.0000      0.0001
         4         0.0018      0.0054     -0.1122      0.0126      0.0297
         5         0.0078      0.0029      0.0769      0.0060      0.0139
         6         0.0075      0.0044      0.0158      0.0003      0.0007
         7         0.0009      0.0020      0.0074      0.0001      0.0001
         8        -0.0961      0.1607      0.0054      0.0351      0.0673
         9         0.0014      0.0021     -0.0066      0.0000      0.0001
        10        -0.0385      0.0337     -0.0002      0.0026      0.0047
        11         0.0846      0.0358     -0.0139      0.0086      0.0154
        12        -0.0988      0.1524      0.0173      0.0333      0.0573
        13        -0.0354      0.0513     -0.0525      0.0066      0.0114
        14        -0.1438     -0.0243      0.0000      0.0213      0.0358
        15        -0.0040      0.0056     -0.0863      0.0075      0.0125
 Ground to excited state transition magnetic dipole moments (Au):
       state          X           Y           Z
         1        -0.0139      0.0103      0.6177
         2        -0.2324      0.1347      0.0090
         3         0.4104     -0.7604      0.0155
         4        -0.4760     -0.4949     -0.0110
         5        -0.6197     -0.0946     -0.0230
         6         0.5284      0.1175     -0.0256
         7         0.2548     -0.5399     -0.0072
         8        -0.0005      0.0363     -0.0934
         9        -0.1924      0.1125     -0.0168
        10         0.0121      0.0132      0.0889
        11        -0.0158      0.0176     -0.2045
        12         0.0200      0.0236      0.0237
        13        -0.0579     -0.0145      0.0066
        14        -0.0050     -0.0158      0.0667
        15         0.0335      0.1092     -0.0139
 Ground to excited state transition velocity quadrupole moments (Au):
       state          XX          YY          ZZ          XY          XZ          YZ
         1         0.2802     -0.2769      0.0036     -0.1537     -0.0044      0.0141
         2         0.0107     -0.0026     -0.0030     -0.0028     -0.1100     -0.1552
         3        -0.0010     -0.0090      0.0024     -0.0080     -0.1737     -0.0992
         4        -0.0009      0.0010      0.0068     -0.0056      0.1589      0.1119
         5        -0.0077      0.0220     -0.0012      0.0083     -0.1974      0.0582
         6         0.0058      0.0159     -0.0010      0.0144      0.0253      0.2322
         7         0.0068      0.0055     -0.0050     -0.0005      0.4114      0.2403
         8        -0.0537      0.0937     -0.0466     -0.3163     -0.0033      0.0003
         9         0.0104      0.0230     -0.0004     -0.0009      0.0744     -0.0208
        10         0.0806      0.0752     -0.0215     -0.1689     -0.0006      0.0079
        11         0.0294      0.3046      0.0656      0.2336     -0.0278     -0.0033
        12        -0.0296     -0.2314      0.1107      0.1059     -0.0140      0.0331
        13        -0.0456     -0.1183      0.0306      0.0277      0.0189     -0.0599
        14         0.5953      0.0960      0.1346      0.0050     -0.0042     -0.0023
        15         0.0026     -0.0058      0.0004     -0.0029     -0.1351      0.0153
 <0|del|b> * <b|rxdel|0> + <0|del|b> * <b|delr+rdel|0>
 Rotatory Strengths (R) in cgs (10**-40 erg-esu-cm/Gauss)
       state          XX          YY          ZZ    R(velocity)    E-M Angle
         1         0.4328      5.3239      6.8506      4.2024       88.29
         2        -0.8588     -0.9028      0.2294     -0.5107       90.98
         3         0.4783     -1.9445     -2.6012     -1.3558      108.39
         4        -2.0447     -0.0550     -3.5583     -1.8860       91.68
         5        -1.0306     -8.3810     -7.5861     -5.6659       98.17
         6         0.2416      5.3544      3.0102      2.8687       65.45
         7        -2.0705      0.4331     -0.2573     -0.6315      101.27
         8         4.2300      1.2470      5.4870      3.6547       73.33
         9         0.1909     -0.1806      0.1512      0.0539       90.00
        10         0.4616     -0.7882      0.2515     -0.0250       90.00
        11         1.1526      4.2268     -1.3393      1.3467       83.58
        12         7.2863     -6.0868      2.5169      1.2388       73.39
        13        -3.1931      4.7965      0.1406      0.5813       78.70
        14         0.2521      0.9296      0.7801      0.6539       83.71
        15         2.5035      0.6674     -0.1937      0.9924       80.27
 1/2[<0|r|b>*<b|rxdel|0> + (<0|rxdel|b>*<b|r|0>)*]
 Rotatory Strengths (R) in cgs (10**-40 erg-esu-cm/Gauss)
       state          XX          YY          ZZ     R(length)
         1        12.8916     -5.9351      5.9511      4.3026
         2         4.4718     -0.1847     -0.7994      1.1626
         3        -7.3839      4.0968     -0.0148     -1.1007
         4        -5.5716     -4.0640      1.3923     -2.7478
         5       -17.1622     -2.5540      1.4773     -6.0796
         6         9.4939      2.7761     -3.7573      2.8376
         7         0.3755     -1.3196      0.3463     -0.1993
         8         0.0415     12.6581     -1.6912      3.6694
         9         1.5130     -0.3388     -0.1130      0.3537
        10        -3.6342     -0.9821      1.7695     -0.9489
        11        -8.1635      2.2559      0.4138     -1.8313
        12        -4.5713      6.5577     -2.9368     -0.3168
        13         4.5805     -1.2785      2.0152      1.7724
        14         2.6719      4.9189      0.5341      2.7083
        15        -0.6779      1.9006     -3.2040     -0.6604
  1/2[<0|del|b>*<b|r|0> + (<0|r|b>*<b|del|0>)*] (Au)
       state          X           Y           Z        Dip. S.   Osc.(frdel)
         1        -0.2182     -0.0903     -0.0001      0.3086      0.2057
         2        -0.0001      0.0000     -0.0153      0.0154      0.0103
         3        -0.0001      0.0000      0.0000      0.0001      0.0001
         4         0.0000     -0.0001     -0.0200      0.0201      0.0134
         5        -0.0003     -0.0001      0.0070     -0.0066     -0.0044
         6        -0.0002     -0.0001     -0.0033      0.0036      0.0024
         7         0.0000      0.0000      0.0005     -0.0005     -0.0003
         8        -0.0108     -0.0792     -0.0001      0.0901      0.0601
         9         0.0000      0.0000      0.0001     -0.0001     -0.0001
        10        -0.0164      0.0035      0.0000      0.0128      0.0085
        11        -0.0618     -0.0065      0.0000      0.0684      0.0456
        12        -0.0319     -0.0598      0.0030      0.0887      0.0592
        13        -0.0040     -0.0064      0.0229     -0.0125     -0.0083
        14        -0.1096     -0.0107      0.0000      0.1203      0.0802
        15        -0.0001     -0.0001      0.0281     -0.0278     -0.0186

 Excitation energies and oscillator strengths:
 
 Excited State   1:      Singlet-A      5.6248 eV  220.42 nm  f=0.3272  <S**2>=0.000
      13 -> 14         0.69003
 This state for optimization and/or second-order correction.
 Total Energy, E(CIS) =   1.93635765657    
 Copying the excited state density for this state as the 1-particle RhoCI density.
 
 Excited State   2:      Singlet-A      7.0590 eV  175.64 nm  f=0.0029  <S**2>=0.000
      10 -> 15         0.11542
      13 -> 15         0.66873
      13 -> 17        -0.14708
 
 Excited State   3:      Singlet-A      7.3563 eV  168.54 nm  f=0.0001  <S**2>=0.000
      12 -> 14         0.69833
 
 Excited State   4:      Singlet-A      7.7065 eV  160.88 nm  f=0.0061  <S**2>=0.000
      11 -> 14         0.45039
      13 -> 16         0.50354
 
 Excited State   5:      Singlet-A      7.8034 eV  158.89 nm  f=0.0021  <S**2>=0.000
      11 -> 14         0.53546
      13 -> 16        -0.43543
 
 Excited State   6:      Singlet-A      9.0903 eV  136.39 nm  f=0.0100  <S**2>=0.000
      10 -> 16        -0.10346
      13 -> 15         0.11540
      13 -> 17         0.64641
      13 -> 18         0.17914
 
 Excited State   7:      Singlet-A      9.1179 eV  135.98 nm  f=0.0010  <S**2>=0.000
      13 -> 17        -0.16430
      13 -> 18         0.59630
      13 -> 19        -0.13730
      13 -> 22        -0.25933
 
 Excited State   8:      Singlet-A      9.4542 eV  131.14 nm  f=0.0593  <S**2>=0.000
      10 -> 14         0.62799
      11 -> 15        -0.11274
      11 -> 17         0.11706
      13 -> 20        -0.14966
 
 Excited State   9:      Singlet-A      9.8509 eV  125.86 nm  f=0.0001  <S**2>=0.000
      13 -> 18         0.20167
      13 -> 19         0.62894
      13 -> 21        -0.13040
 
 Excited State  10:      Singlet-A     10.0229 eV  123.70 nm  f=0.0473  <S**2>=0.000
       9 -> 15         0.15042
      10 -> 14         0.17774
      11 -> 15         0.17234
      11 -> 16         0.21626
      11 -> 17        -0.27528
      12 -> 15         0.31545
      12 -> 16        -0.13679
      12 -> 18         0.29304
      13 -> 14         0.10291
      13 -> 20        -0.13222
 
 Excited State  11:      Singlet-A     10.1754 eV  121.85 nm  f=0.1415  <S**2>=0.000
      10 -> 14        -0.10320
      11 -> 15        -0.42208
      11 -> 17         0.13860
      12 -> 15         0.48621
      12 -> 17        -0.12314
 
 Excited State  12:      Singlet-A     10.5329 eV  117.71 nm  f=0.0746  <S**2>=0.000
      10 -> 14         0.18368
      13 -> 19        -0.11318
      13 -> 20         0.61436
      13 -> 21        -0.16341
      13 -> 22         0.10777
 
 Excited State  13:      Singlet-A     10.5798 eV  117.19 nm  f=0.0563  <S**2>=0.000
      13 -> 18        -0.17426
      13 -> 19         0.18022
      13 -> 20         0.20896
      13 -> 21         0.49144
      13 -> 22        -0.34966
 
 Excited State  14:      Singlet-A     10.7718 eV  115.10 nm  f=0.2042  <S**2>=0.000
      11 -> 16         0.31827
      11 -> 19         0.12852
      12 -> 16         0.56530
      12 -> 17        -0.10581
 
 Excited State  15:      Singlet-A     10.8774 eV  113.98 nm  f=0.0286  <S**2>=0.000
      10 -> 15         0.38338
      13 -> 18         0.14956
      13 -> 21         0.33268
      13 -> 22         0.42441
 SavETr:  write IOETrn=   770 NScale= 10 NData=  16 NLR=1 NState=   15 LETran=     280.
 The selected state is a singlet
 CISAX will form     1 AO SS matrices at one time.
 NMat=     1 NSing=     1 JSym2X= 0.
 Leave Link  914 at Tue Dec 15 17:09:44 2015, MaxMem=    33554432 cpu:         0.1
 (Enter /home/Applications/g09/g09/l1002.exe)
 Minotr:  Closed shell wavefunction.
          Computing CIS/TD-HF/TD-KS derivatives.
          Using Z-Vector for PSCF gradient.
          Skipping F1 and S1 gradient terms here.
          IDoAtm=111111111
          Direct CPHF calculation.
          Differentiating once with respect to electric field.
                with respect to dipole field.
          Differentiating once with respect to nuclear coordinates.
          Electric field/nuclear overlap derivatives assumed to be zero.
          Requested convergence is 1.0D-10 RMS, and 1.0D-09 maximum.
          NewPWx=T KeepS1=F KeepF1=F KeepIn=T MapXYZ=F SortEE=F KeepMc=T.
          MDV=      33495423 using IRadAn=       0.
 Keep J ints in memory in canonical form, NReq=871704.
 FoFCou: FMM=F IPFlag=           0 FMFlag=           0 FMFlg1=           0
         NFxFlg=           0 DoJE=F BraDBF=F KetDBF=F FulRan=T
         wScrn=  0.000000 ICntrl=     600 IOpCl=  2 I1Cent=           0 NGrid=           0
         NMat0=    1 NMatS0=     54 NMatT0=    0 NMatD0=    1 NMtDS0=    0 NMtDT0=    0
 Symmetry not used in FoFCou.
          Solving linear equations separately, MaxMat=       0.
          There are     1 degrees of freedom in the 1st order CPHF.  IDoFFX=0 NUNeed=     1.
 LinEq1:  Iter=  0 NonCon=     1 RMS=9.12D-03 Max=6.62D-02 NDo=     1
 AX will form     1 AO Fock derivatives at one time.
 LinEq1:  Iter=  1 NonCon=     1 RMS=7.59D-04 Max=3.08D-03 NDo=     1
 LinEq1:  Iter=  2 NonCon=     1 RMS=9.78D-05 Max=6.97D-04 NDo=     1
 LinEq1:  Iter=  3 NonCon=     1 RMS=1.12D-05 Max=3.56D-05 NDo=     1
 LinEq1:  Iter=  4 NonCon=     1 RMS=1.61D-06 Max=7.47D-06 NDo=     1
 LinEq1:  Iter=  5 NonCon=     1 RMS=2.49D-07 Max=1.53D-06 NDo=     1
 LinEq1:  Iter=  6 NonCon=     1 RMS=3.64D-08 Max=1.81D-07 NDo=     1
 LinEq1:  Iter=  7 NonCon=     1 RMS=4.10D-09 Max=1.75D-08 NDo=     1
 LinEq1:  Iter=  8 NonCon=     1 RMS=4.38D-10 Max=1.57D-09 NDo=     1
 LinEq1:  Iter=  9 NonCon=     0 RMS=4.23D-11 Max=1.49D-10 NDo=     1
 Linear equations converged to 1.000D-10 1.000D-09 after     9 iterations.
 End of Minotr F.D. properties file   721 does not exist.
 End of Minotr F.D. properties file   722 does not exist.
 End of Minotr F.D. properties file   788 does not exist.
 Leave Link 1002 at Tue Dec 15 17:09:44 2015, MaxMem=    33554432 cpu:         0.0
 (Enter /home/Applications/g09/g09/l601.exe)
 Copying SCF densities to generalized density rwf, IOpCl= 0 IROHF=0.

 **********************************************************************

            Population analysis using the SCF density.

 **********************************************************************

 Orbital symmetries:
       Occupied  (A) (A) (A) (A) (A) (A) (A) (A) (A) (A) (A) (A)
                 (A)
       Virtual   (A) (A) (A) (A) (A) (A) (A) (A) (A) (A) (A)
 The electronic state is 1-A.
 Alpha  occ. eigenvalues --   -1.89350  -1.17009  -0.91018  -0.80975  -0.78016
 Alpha  occ. eigenvalues --   -0.69267  -0.66397  -0.56643  -0.54953  -0.46114
 Alpha  occ. eigenvalues --   -0.42569  -0.41513  -0.30116
 Alpha virt. eigenvalues --    0.12196   0.18341   0.21962   0.26910   0.28872
 Alpha virt. eigenvalues --    0.30736   0.31208   0.33264   0.36531   0.39981
 Alpha virt. eigenvalues --    0.43298
     Molecular Orbital Coefficients:
                           1         2         3         4         5
                           O         O         O         O         O
     Eigenvalues --    -1.89350  -1.17009  -0.91018  -0.80975  -0.78016
   1 1   C  1S          0.07226   0.47808  -0.27182  -0.17222  -0.23590
   2        1PX         0.08828   0.21688   0.16587   0.20129   0.06981
   3        1PY        -0.06278  -0.03416   0.19716   0.18142  -0.37512
   4        1PZ        -0.00050  -0.00464   0.00110  -0.00207   0.00320
   5 2   C  1S          0.18569   0.24753  -0.43663  -0.01591   0.47228
   6        1PX         0.22855   0.03739   0.07131   0.31517   0.11923
   7        1PY         0.00020   0.31499  -0.00815  -0.28349  -0.29816
   8        1PZ         0.00435   0.00489  -0.01118  -0.00404   0.01264
   9 3   O  1S          0.85701  -0.26259  -0.05815   0.14830  -0.21782
  10        1PX        -0.00430  -0.07518   0.13628  -0.21052  -0.16344
  11        1PY         0.04009   0.12233   0.10218  -0.17943   0.06505
  12        1PZ        -0.00028  -0.00081   0.00020  -0.00197  -0.00103
  13 4   C  1S          0.24230   0.21284   0.52987  -0.33678   0.23341
  14        1PX        -0.14869  -0.28707   0.08433  -0.20148   0.03064
  15        1PY        -0.23602   0.19057   0.06608   0.50727   0.12526
  16        1PZ         0.00356   0.00117   0.01029  -0.01571   0.00503
  17 5   C  1S          0.07638   0.47339   0.26727   0.25837  -0.10886
  18        1PX         0.00296  -0.11282   0.30033   0.05157   0.33412
  19        1PY        -0.11638  -0.19192  -0.00858   0.17954  -0.18951
  20        1PZ         0.00069   0.00121   0.00095  -0.00600   0.00095
  21 6   H  1S          0.00220   0.12907   0.14276   0.19959  -0.10552
  22 7   H  1S          0.05179   0.00862   0.28810  -0.21819   0.13945
  23 8   H  1S          0.03992   0.02256  -0.22343  -0.00320   0.30235
  24 9   H  1S          0.00240   0.12961  -0.15511  -0.13303  -0.20374
                           6         7         8         9        10
                           O         O         O         O         O
     Eigenvalues --    -0.69267  -0.66397  -0.56643  -0.54953  -0.46114
   1 1   C  1S          0.20490  -0.01621   0.04810   0.10408   0.00156
   2        1PX        -0.22379   0.03135  -0.04213   0.19072  -0.01447
   3        1PY         0.07597  -0.00184  -0.29366   0.21645   0.00021
   4        1PZ         0.03924   0.39171  -0.00529  -0.00274   0.30730
   5 2   C  1S          0.16659  -0.02842  -0.03429   0.15447  -0.00933
   6        1PX        -0.32283   0.03938   0.22290   0.56706   0.01176
   7        1PY        -0.15683   0.01175   0.51792  -0.12598   0.00155
   8        1PZ         0.05338   0.48209   0.00485  -0.00649   0.68418
   9 3   O  1S          0.18731  -0.01724   0.14857  -0.18082  -0.00648
  10        1PX         0.05518  -0.01075  -0.09036  -0.14468  -0.00206
  11        1PY        -0.19113   0.01738  -0.13954   0.02011   0.00658
  12        1PZ         0.02476   0.19752   0.00262  -0.00806  -0.03292
  13 4   C  1S          0.08524  -0.02271  -0.13101  -0.00610   0.01427
  14        1PX         0.44020  -0.04477   0.32569   0.45731  -0.00054
  15        1PY         0.28467  -0.01908   0.43780  -0.24925  -0.01476
  16        1PZ         0.06676   0.62067  -0.00755  -0.00293  -0.65313
  17 5   C  1S          0.19168  -0.01928  -0.17055  -0.01808   0.00201
  18        1PX         0.06304  -0.01260   0.15141  -0.37813   0.01319
  19        1PY         0.25954  -0.02547  -0.14368   0.10656   0.01423
  20        1PZ         0.04072   0.42204  -0.00586   0.00187  -0.08997
  21 6   H  1S          0.24213  -0.02941  -0.15331   0.01366   0.01347
  22 7   H  1S          0.29779  -0.02887   0.15040   0.24500  -0.00521
  23 8   H  1S          0.25933  -0.03129  -0.32599  -0.06570  -0.00710
  24 9   H  1S          0.23474  -0.02428  -0.02763  -0.00197   0.01086
                          11        12        13        14        15
                           O         O         O         V         V
     Eigenvalues --    -0.42569  -0.41513  -0.30116   0.12196   0.18341
   1 1   C  1S         -0.11776   0.01520   0.00564   0.00919  -0.08367
   2        1PX         0.30167   0.51086   0.00559   0.00705  -0.10509
   3        1PY        -0.38658   0.04234  -0.01627  -0.01394  -0.00696
   4        1PZ        -0.01349   0.00594   0.50061   0.70585  -0.00171
   5 2   C  1S          0.12592  -0.11122   0.00883  -0.00296  -0.01441
   6        1PX        -0.15509  -0.37630  -0.00245  -0.00059  -0.06066
   7        1PY         0.29868  -0.10209   0.00888  -0.00603   0.03006
   8        1PZ         0.01310   0.01625  -0.45969  -0.23458   0.00186
   9 3   O  1S          0.00512   0.11336   0.00168   0.00017   0.01525
  10        1PX         0.07629   0.11879   0.00393   0.00178  -0.10726
  11        1PY         0.02810  -0.14677  -0.00208  -0.00097   0.09251
  12        1PZ         0.00625   0.00140  -0.19628  -0.00027  -0.00516
  13 4   C  1S         -0.12111  -0.09379  -0.00093  -0.00454  -0.14097
  14        1PX         0.09505   0.19037   0.00494  -0.00436  -0.47908
  15        1PY        -0.24328   0.13509  -0.00438   0.00205   0.11659
  16        1PZ         0.01255  -0.03360  -0.32218   0.17472  -0.01282
  17 5   C  1S          0.10536   0.05629   0.00333  -0.00419  -0.13914
  18        1PX        -0.01603  -0.33735   0.01338  -0.00934  -0.25737
  19        1PY         0.47462  -0.36638   0.01308  -0.00475   0.19035
  20        1PZ        -0.00922   0.00344   0.62828  -0.64461   0.00915
  21 6   H  1S          0.38433  -0.27204   0.00759   0.00769  -0.05276
  22 7   H  1S         -0.04032   0.08944  -0.00486   0.00914   0.74820
  23 8   H  1S         -0.00581   0.15373  -0.00100  -0.00323  -0.00545
  24 9   H  1S         -0.37472  -0.32022  -0.00272  -0.00081  -0.09543
                          16        17        18        19        20
                           V         V         V         V         V
     Eigenvalues --     0.21962   0.26910   0.28872   0.30736   0.31208
   1 1   C  1S         -0.09075  -0.07539   0.03446   0.22284   0.00657
   2        1PX         0.00176   0.24635  -0.44112  -0.06872   0.00472
   3        1PY         0.34364  -0.19039   0.01201   0.42021   0.05105
   4        1PZ         0.01146  -0.00899   0.00093   0.00124   0.03203
   5 2   C  1S         -0.11524  -0.26515  -0.08160   0.27759   0.04064
   6        1PX         0.16901   0.10115   0.05698  -0.06525  -0.01548
   7        1PY         0.48097  -0.00718   0.01183   0.05186   0.00776
   8        1PZ        -0.00304  -0.00064   0.00007   0.01595  -0.17044
   9 3   O  1S          0.01698  -0.02544   0.00413  -0.02538   0.00037
  10        1PX        -0.02572   0.01930  -0.04976   0.08470  -0.01240
  11        1PY         0.11701  -0.01992   0.01314  -0.10173   0.02034
  12        1PZ         0.00044   0.00293  -0.00434  -0.07226   0.95530
  13 4   C  1S          0.02753  -0.38868   0.05537  -0.35580  -0.02207
  14        1PX         0.02638   0.00373   0.04229  -0.01374   0.00227
  15        1PY         0.06223  -0.20343   0.05564  -0.25481  -0.01607
  16        1PZ         0.00146  -0.00287   0.00052   0.01714  -0.21700
  17 5   C  1S         -0.09843   0.00640  -0.10318   0.11263  -0.01019
  18        1PX         0.09121   0.21372  -0.26831   0.50061   0.03670
  19        1PY         0.12554  -0.35921  -0.42171  -0.14768  -0.01535
  20        1PZ        -0.00669   0.00432   0.00985  -0.00947   0.03682
  21 6   H  1S         -0.13529   0.37372   0.56412  -0.04266   0.01251
  22 7   H  1S         -0.05715   0.24383  -0.05561   0.18815   0.01242
  23 8   H  1S          0.71688   0.24689   0.08379  -0.15807  -0.02412
  24 9   H  1S         -0.10532   0.43355  -0.44101  -0.34926  -0.01890
                          21        22        23        24
                           V         V         V         V
     Eigenvalues --     0.33264   0.36531   0.39981   0.43298
   1 1   C  1S          0.23043   0.62204   0.15711   0.02991
   2        1PX        -0.29821   0.25823  -0.05042  -0.03951
   3        1PY        -0.38597  -0.04797  -0.06801  -0.04720
   4        1PZ        -0.00430  -0.01372  -0.00247  -0.00171
   5 2   C  1S         -0.34435  -0.24859  -0.21887   0.10426
   6        1PX         0.25940   0.07415  -0.18153   0.17021
   7        1PY        -0.13228  -0.20788  -0.11314  -0.11901
   8        1PZ        -0.01063  -0.00154  -0.00257   0.00333
   9 3   O  1S         -0.05931  -0.00893   0.11592   0.04264
  10        1PX         0.14052   0.03628  -0.56776   0.69768
  11        1PY        -0.25341  -0.03353   0.64336   0.58707
  12        1PZ         0.04935   0.00300  -0.01785  -0.00116
  13 4   C  1S         -0.08133   0.14096  -0.16324  -0.20900
  14        1PX        -0.02450  -0.10727   0.20466   0.06574
  15        1PY        -0.14826   0.09952  -0.02244   0.24124
  16        1PZ        -0.00968  -0.00137   0.00209  -0.00295
  17 5   C  1S          0.43186  -0.52305   0.16236   0.01527
  18        1PX         0.00957   0.20716   0.09889  -0.03538
  19        1PY         0.08794   0.18024   0.01903   0.00289
  20        1PZ         0.00120   0.00146  -0.00255   0.00068
  21 6   H  1S         -0.31380   0.13095  -0.10010  -0.01369
  22 7   H  1S          0.05798  -0.01367  -0.02333  -0.00311
  23 8   H  1S          0.20818   0.05312  -0.01880  -0.00269
  24 9   H  1S         -0.21635  -0.14293  -0.08943  -0.01267
     Density Matrix:
                           1         2         3         4         5
   1 1   C  1S          0.92500
   2        1PX        -0.08490   1.13833
   3        1PY         0.10572  -0.05681   1.01595
   4        1PZ         0.00636  -0.00109  -0.00112   1.00063
   5 2   C  1S          0.34862   0.00301  -0.56712  -0.01164   1.18336
   6        1PX        -0.10380   0.08984   0.17528   0.00357   0.23819
   7        1PY         0.42958   0.03339  -0.52638  -0.01100  -0.13878
   8        1PZ         0.00653   0.00234  -0.00907   0.34196  -0.00727
   9 3   O  1S          0.01229   0.00013  -0.02679  -0.00104   0.00217
  10        1PX        -0.02714  -0.00118   0.05545   0.00052  -0.33211
  11        1PY        -0.00088   0.00373  -0.05954  -0.00035   0.04405
  12        1PZ        -0.00118   0.00069  -0.00011  -0.06019  -0.00883
  13 4   C  1S          0.00385   0.00771   0.03974   0.00215  -0.00930
  14        1PX         0.00494  -0.00054  -0.00836   0.00187   0.01423
  15        1PY         0.04716   0.01568   0.01072  -0.00386  -0.05106
  16        1PZ        -0.00467  -0.00397   0.00273  -0.23304   0.00187
  17 5   C  1S          0.31670   0.43784   0.28361  -0.00142   0.00339
  18        1PX        -0.49031  -0.42194  -0.36579   0.01710  -0.03756
  19        1PY        -0.17527  -0.21408   0.00331   0.00597   0.01622
  20        1PZ         0.01427   0.01570  -0.00686   0.90794   0.00136
  21 6   H  1S          0.01677   0.03089   0.01121  -0.00261   0.08828
  22 7   H  1S          0.06905   0.05293   0.02471  -0.00580   0.04678
  23 8   H  1S          0.07551   0.02177  -0.10257  -0.00253   0.56149
  24 9   H  1S          0.52298  -0.73542   0.34810   0.00766   0.06978
                           6         7         8         9        10
   6        1PX         1.63014
   7        1PY        -0.05293   1.35422
   8        1PZ         0.00158  -0.00229   1.83105
   9 3   O  1S          0.05715   0.00189   0.00005   1.95864
  10        1PX        -0.51380   0.11392  -0.01029   0.09929   0.29496
  11        1PY         0.13173   0.09584   0.00398  -0.24297   0.03070
  12        1PZ        -0.01286   0.00270   0.32882   0.00610   0.00157
  13 4   C  1S          0.03197  -0.03730   0.00113   0.01363   0.17033
  14        1PX         0.00620   0.01470   0.00087  -0.04502   0.06037
  15        1PY        -0.03393   0.01009  -0.00128  -0.06058  -0.24330
  16        1PZ         0.00119  -0.00035   0.00732  -0.00024  -0.00211
  17 5   C  1S         -0.05150   0.03117  -0.00079   0.01743   0.01490
  18        1PX         0.00399  -0.01283  -0.00443   0.02815  -0.02539
  19        1PY         0.01521  -0.00869  -0.00060  -0.02336   0.02362
  20        1PZ        -0.00148  -0.00115  -0.28962   0.00050   0.00295
  21 6   H  1S          0.00596   0.07517   0.00232   0.00788   0.01507
  22 7   H  1S          0.05658  -0.00116   0.00081   0.01383   0.07356
  23 8   H  1S         -0.44564  -0.59871   0.00449   0.00991  -0.01924
  24 9   H  1S          0.04569   0.02031  -0.00077   0.00807  -0.04051
                          11        12        13        14        15
  11        1PY         0.28505
  12        1PZ        -0.00293   0.15871
  13 4   C  1S          0.35487  -0.00710   1.20264
  14        1PX        -0.28153  -0.00042  -0.02747   1.41891
  15        1PY        -0.41973   0.01049  -0.27553   0.08988   1.56455
  16        1PZ         0.01033   0.41810  -0.00352  -0.01064   0.00155
  17 5   C  1S          0.03202  -0.00019   0.33934  -0.27587   0.34796
  18        1PX         0.07522  -0.00282   0.43669  -0.20772   0.40493
  19        1PY        -0.06848  -0.00080  -0.32068   0.24489  -0.24532
  20        1PZ        -0.00169  -0.07212  -0.00651   0.00354  -0.00201
  21 6   H  1S          0.02693  -0.00120   0.06452  -0.03959  -0.01995
  22 7   H  1S         -0.01394   0.00283   0.54868   0.73786   0.05466
  23 8   H  1S         -0.05388   0.00029   0.03968  -0.02658  -0.02654
  24 9   H  1S          0.01159  -0.00263   0.08599  -0.06432   0.04863
                          16        17        18        19        20
  16        1PZ         1.84361
  17 5   C  1S         -0.00362   0.92156
  18        1PX        -0.00321  -0.04646   1.00339
  19        1PY         0.00508   0.13451   0.07131   1.15696
  20        1PZ         0.24186   0.00199   0.00403   0.00117   1.16556
  21 6   H  1S         -0.00057   0.52118   0.15301   0.79806  -0.00712
  22 7   H  1S          0.01772   0.08360   0.08131  -0.09055  -0.00126
  23 8   H  1S         -0.00058   0.07078  -0.05664  -0.03237  -0.00022
  24 9   H  1S          0.00058   0.00122  -0.02066  -0.00841  -0.00049
                          21        22        23        24
  21 6   H  1S          0.78631
  22 7   H  1S         -0.00520   0.66930
  23 8   H  1S          0.01439   0.01556   0.69196
  24 9   H  1S         -0.01097   0.01913   0.00029   0.79922
    Full Mulliken population analysis:
                           1         2         3         4         5
   1 1   C  1S          0.92500
   2        1PX         0.00000   1.13833
   3        1PY         0.00000   0.00000   1.01595
   4        1PZ         0.00000   0.00000   0.00000   1.00063
   5 2   C  1S          0.00000   0.00000   0.00000   0.00000   1.18336
   6        1PX         0.00000   0.00000   0.00000   0.00000   0.00000
   7        1PY         0.00000   0.00000   0.00000   0.00000   0.00000
   8        1PZ         0.00000   0.00000   0.00000   0.00000   0.00000
   9 3   O  1S          0.00000   0.00000   0.00000   0.00000   0.00000
  10        1PX         0.00000   0.00000   0.00000   0.00000   0.00000
  11        1PY         0.00000   0.00000   0.00000   0.00000   0.00000
  12        1PZ         0.00000   0.00000   0.00000   0.00000   0.00000
  13 4   C  1S          0.00000   0.00000   0.00000   0.00000   0.00000
  14        1PX         0.00000   0.00000   0.00000   0.00000   0.00000
  15        1PY         0.00000   0.00000   0.00000   0.00000   0.00000
  16        1PZ         0.00000   0.00000   0.00000   0.00000   0.00000
  17 5   C  1S          0.00000   0.00000   0.00000   0.00000   0.00000
  18        1PX         0.00000   0.00000   0.00000   0.00000   0.00000
  19        1PY         0.00000   0.00000   0.00000   0.00000   0.00000
  20        1PZ         0.00000   0.00000   0.00000   0.00000   0.00000
  21 6   H  1S          0.00000   0.00000   0.00000   0.00000   0.00000
  22 7   H  1S          0.00000   0.00000   0.00000   0.00000   0.00000
  23 8   H  1S          0.00000   0.00000   0.00000   0.00000   0.00000
  24 9   H  1S          0.00000   0.00000   0.00000   0.00000   0.00000
                           6         7         8         9        10
   6        1PX         1.63014
   7        1PY         0.00000   1.35422
   8        1PZ         0.00000   0.00000   1.83105
   9 3   O  1S          0.00000   0.00000   0.00000   1.95864
  10        1PX         0.00000   0.00000   0.00000   0.00000   0.29496
  11        1PY         0.00000   0.00000   0.00000   0.00000   0.00000
  12        1PZ         0.00000   0.00000   0.00000   0.00000   0.00000
  13 4   C  1S          0.00000   0.00000   0.00000   0.00000   0.00000
  14        1PX         0.00000   0.00000   0.00000   0.00000   0.00000
  15        1PY         0.00000   0.00000   0.00000   0.00000   0.00000
  16        1PZ         0.00000   0.00000   0.00000   0.00000   0.00000
  17 5   C  1S          0.00000   0.00000   0.00000   0.00000   0.00000
  18        1PX         0.00000   0.00000   0.00000   0.00000   0.00000
  19        1PY         0.00000   0.00000   0.00000   0.00000   0.00000
  20        1PZ         0.00000   0.00000   0.00000   0.00000   0.00000
  21 6   H  1S          0.00000   0.00000   0.00000   0.00000   0.00000
  22 7   H  1S          0.00000   0.00000   0.00000   0.00000   0.00000
  23 8   H  1S          0.00000   0.00000   0.00000   0.00000   0.00000
  24 9   H  1S          0.00000   0.00000   0.00000   0.00000   0.00000
                          11        12        13        14        15
  11        1PY         0.28505
  12        1PZ         0.00000   0.15871
  13 4   C  1S          0.00000   0.00000   1.20264
  14        1PX         0.00000   0.00000   0.00000   1.41891
  15        1PY         0.00000   0.00000   0.00000   0.00000   1.56455
  16        1PZ         0.00000   0.00000   0.00000   0.00000   0.00000
  17 5   C  1S          0.00000   0.00000   0.00000   0.00000   0.00000
  18        1PX         0.00000   0.00000   0.00000   0.00000   0.00000
  19        1PY         0.00000   0.00000   0.00000   0.00000   0.00000
  20        1PZ         0.00000   0.00000   0.00000   0.00000   0.00000
  21 6   H  1S          0.00000   0.00000   0.00000   0.00000   0.00000
  22 7   H  1S          0.00000   0.00000   0.00000   0.00000   0.00000
  23 8   H  1S          0.00000   0.00000   0.00000   0.00000   0.00000
  24 9   H  1S          0.00000   0.00000   0.00000   0.00000   0.00000
                          16        17        18        19        20
  16        1PZ         1.84361
  17 5   C  1S          0.00000   0.92156
  18        1PX         0.00000   0.00000   1.00339
  19        1PY         0.00000   0.00000   0.00000   1.15696
  20        1PZ         0.00000   0.00000   0.00000   0.00000   1.16556
  21 6   H  1S          0.00000   0.00000   0.00000   0.00000   0.00000
  22 7   H  1S          0.00000   0.00000   0.00000   0.00000   0.00000
  23 8   H  1S          0.00000   0.00000   0.00000   0.00000   0.00000
  24 9   H  1S          0.00000   0.00000   0.00000   0.00000   0.00000
                          21        22        23        24
  21 6   H  1S          0.78631
  22 7   H  1S          0.00000   0.66930
  23 8   H  1S          0.00000   0.00000   0.69196
  24 9   H  1S          0.00000   0.00000   0.00000   0.79922
     Gross orbital populations:
                           1
   1 1   C  1S          0.92500
   2        1PX         1.13833
   3        1PY         1.01595
   4        1PZ         1.00063
   5 2   C  1S          1.18336
   6        1PX         1.63014
   7        1PY         1.35422
   8        1PZ         1.83105
   9 3   O  1S          1.95864
  10        1PX         0.29496
  11        1PY         0.28505
  12        1PZ         0.15871
  13 4   C  1S          1.20264
  14        1PX         1.41891
  15        1PY         1.56455
  16        1PZ         1.84361
  17 5   C  1S          0.92156
  18        1PX         1.00339
  19        1PY         1.15696
  20        1PZ         1.16556
  21 6   H  1S          0.78631
  22 7   H  1S          0.66930
  23 8   H  1S          0.69196
  24 9   H  1S          0.79922
          Condensed to atoms (all electrons):
               1          2          3          4          5          6
     1  C    4.079914   0.000000   0.000000   0.000000   0.000000   0.000000
     2  C    0.000000   5.998762   0.000000   0.000000   0.000000   0.000000
     3  O    0.000000   0.000000   2.697361   0.000000   0.000000   0.000000
     4  C    0.000000   0.000000   0.000000   6.029706   0.000000   0.000000
     5  C    0.000000   0.000000   0.000000   0.000000   4.247466   0.000000
     6  H    0.000000   0.000000   0.000000   0.000000   0.000000   0.786310
     7  H    0.000000   0.000000   0.000000   0.000000   0.000000   0.000000
     8  H    0.000000   0.000000   0.000000   0.000000   0.000000   0.000000
     9  H    0.000000   0.000000   0.000000   0.000000   0.000000   0.000000
               7          8          9
     1  C    0.000000   0.000000   0.000000
     2  C    0.000000   0.000000   0.000000
     3  O    0.000000   0.000000   0.000000
     4  C    0.000000   0.000000   0.000000
     5  C    0.000000   0.000000   0.000000
     6  H    0.000000   0.000000   0.000000
     7  H    0.669295   0.000000   0.000000
     8  H    0.000000   0.691963   0.000000
     9  H    0.000000   0.000000   0.799223
 Mulliken charges:
               1
     1  C   -0.079914
     2  C   -1.998762
     3  O    3.302639
     4  C   -2.029706
     5  C   -0.247466
     6  H    0.213690
     7  H    0.330705
     8  H    0.308037
     9  H    0.200777
 Sum of Mulliken charges =   0.00000
 Mulliken charges with hydrogens summed into heavy atoms:
               1
     1  C    0.120863
     2  C   -1.690725
     3  O    3.302639
     4  C   -1.699001
     5  C   -0.033776
 Charge=              0.0000 electrons
 Dipole moment (field-independent basis, Debye):
    X=              5.8094    Y=             -9.7800    Z=              0.3894  Tot=             11.3820
 N-N= 1.030784946860D+02 E-N=-1.679814191015D+02  KE=-1.543744895329D+01
 Orbital energies and kinetic energies (alpha):
                                 1                 2
   1         O                -1.893497         -1.327640
   2         O                -1.170090         -1.053927
   3         O                -0.910184         -0.880010
   4         O                -0.809753         -0.583292
   5         O                -0.780158         -0.678723
   6         O                -0.692668         -0.585661
   7         O                -0.663975         -0.533577
   8         O                -0.566435         -0.382043
   9         O                -0.549528         -0.346117
  10         O                -0.461141         -0.329934
  11         O                -0.425691         -0.422230
  12         O                -0.415133         -0.336338
  13         O                -0.301159         -0.259231
  14         V                 0.121960         -0.158472
  15         V                 0.183415         -0.183473
  16         V                 0.219620         -0.175470
  17         V                 0.269098         -0.171179
  18         V                 0.288723         -0.171342
  19         V                 0.307361         -0.081137
  20         V                 0.312083          0.477446
  21         V                 0.332638         -0.051878
  22         V                 0.365313         -0.084818
  23         V                 0.399811          0.438854
  24         V                 0.432978          0.556071
 Total kinetic energy from orbitals=-1.543744895329D+01
 Leave Link  601 at Tue Dec 15 17:09:44 2015, MaxMem=    33554432 cpu:         0.0
 (Enter /home/Applications/g09/g09/l701.exe)
 Compute integral first derivatives.
 ... and contract with generalized density number  6.
 Leave Link  701 at Tue Dec 15 17:09:44 2015, MaxMem=    33554432 cpu:         0.0
 (Enter /home/Applications/g09/g09/l702.exe)
 L702 exits ... SP integral derivatives will be done elsewhere.
 Leave Link  702 at Tue Dec 15 17:09:44 2015, MaxMem=    33554432 cpu:         0.0
 (Enter /home/Applications/g09/g09/l703.exe)
 Compute integral first derivatives, UseDBF=F ICtDFT=           0.
 Integral derivatives from FoFJK, PRISM(SPDF).
 Calling FoFJK, ICntrl=  10005127 FMM=F ISym2X=0 I1Cent= 0 IOpClX= 0 NMat=1 NMatS=1 NMatT=0.
 FoFJK:  IHMeth= 8 ICntrl=10005127 DoSepK=F KAlg= 0 I1Cent=   0 FoldK=F
 IRaf=         0 NMat=   1 IRICut=       1 DoRegI=T DoRafI=F ISym2E= 0.
 FoFCou: FMM=F IPFlag=           0 FMFlag=      100000 FMFlg1=         800
         NFxFlg=           0 DoJE=F BraDBF=F KetDBF=F FulRan=T
         wScrn=  0.000000 ICntrl=10005127 IOpCl=  0 I1Cent=           0 NGrid=           0
         NMat0=    1 NMatS0=      1 NMatT0=    0 NMatD0=    1 NMtDS0=    0 NMtDT0=    0
 Symmetry not used in FoFCou.
 Leave Link  703 at Tue Dec 15 17:09:44 2015, MaxMem=    33554432 cpu:         0.0
 (Enter /home/Applications/g09/g09/l716.exe)
 Dipole        = 2.51068618D+00-4.24083647D+00 1.38365363D-01
 ***** Axes restored to original set *****
 -------------------------------------------------------------------
 Center     Atomic                   Forces (Hartrees/Bohr)
 Number     Number              X              Y              Z
 -------------------------------------------------------------------
      1        6           0.149646583   -0.093694597   -0.003255635
      2        6          -0.282580001    0.007542301   -0.000690051
      3        8           0.181884716   -0.079419249    0.007918885
      4        6          -0.234395780    0.050369030   -0.006004986
      5        6           0.138791519    0.096707616    0.000583657
      6        1           0.020162750    0.017128702    0.001650321
      7        1           0.002929555    0.072860490   -0.000079657
      8        1           0.000062817   -0.059812231    0.001609004
      9        1           0.023497841   -0.011682061   -0.001731538
 -------------------------------------------------------------------
 Cartesian Forces:  Max     0.282580001 RMS     0.095639417
 Z-matrix is all fixed cartesians, so copy forces.
 Force constants in Cartesian coordinates: 
                1             2             3             4             5 
      1  0.870685D+00
      2 -0.195600D-02  0.867438D+00
      3 -0.141407D-01 -0.894213D-03  0.217383D+00
      4 -0.490471D+00 -0.123269D+00  0.134107D-01  0.848407D+00
      5 -0.100401D+00 -0.225069D+00  0.495879D-02  0.122039D+00  0.777260D+00
      6  0.120650D-01  0.439404D-02 -0.103103D+00 -0.630852D-02 -0.599826D-02
      7 -0.943269D-02  0.260782D-01 -0.804918D-03 -0.211292D+00  0.927311D-01
      8 -0.711119D-02  0.196741D-01 -0.395887D-03  0.134008D+00 -0.248220D+00
      9  0.604951D-03 -0.106037D-02  0.378114D-02 -0.510814D-02  0.559176D-02
     10  0.107939D-01  0.311358D-03 -0.218508D-03  0.224040D-01  0.169352D-01
     11  0.349276D-01  0.100544D-02 -0.825721D-03 -0.169383D-01 -0.128041D-01
     12  0.311629D-03 -0.447004D-04  0.165527D-02  0.490949D-03  0.493485D-03
     13 -0.180016D+00  0.222932D-01  0.971607D-03  0.126088D-01 -0.349803D-01
     14 -0.269889D-02 -0.484620D+00 -0.192987D-02  0.364641D-03 -0.101352D-02
     15  0.875939D-03 -0.408353D-02 -0.951216D-01 -0.537730D-03  0.174856D-02
     16  0.179884D-01  0.515092D-03  0.640418D-05 -0.183892D-05  0.000000D+00
     17 -0.226798D-01 -0.646469D-03 -0.446429D-03 -0.124662D-05  0.000000D+00
     18 -0.281853D-03 -0.154851D-03  0.217301D-01  0.176760D-03 -0.326796D-04
     19  0.000000D+00 -0.101011D-05  0.151860D-03  0.362704D-05 -0.170683D-05
     20  0.134151D-05 -0.248007D-05  0.372851D-03 -0.226320D-05  0.106503D-05
     21  0.233318D-04 -0.431340D-04  0.648473D-02 -0.917192D-04  0.431616D-04
     22  0.916059D-02 -0.254244D-01 -0.433969D-03 -0.175334D+00 -0.113872D+00
     23 -0.501472D-02  0.138815D-01 -0.206632D-03 -0.108502D+00 -0.311506D+00
     24  0.388321D-03  0.144370D-02  0.307952D-01 -0.332592D-02 -0.525905D-02
     25 -0.228708D+00  0.101452D+00  0.105751D-02 -0.632351D-02  0.175496D-01
     26  0.104933D+00 -0.191662D+00 -0.632892D-03 -0.769934D-02  0.213510D-01
     27  0.153367D-03  0.443063D-03 -0.836049D-01  0.129360D-02 -0.154577D-02
                6             7             8             9            10 
      6  0.189845D+00
      7 -0.350182D-02  0.495310D+00
      8  0.470718D-02  0.991229D-01  0.622937D+00
      9 -0.381755D-01  0.683215D-02 -0.356309D-02  0.432883D-01
     10  0.494450D-03 -0.307599D+00 -0.230977D+00 -0.439183D-02  0.909286D+00
     11 -0.360818D-03 -0.189907D+00 -0.399200D+00 -0.190455D-02  0.187256D-02
     12 -0.342263D-02 -0.323696D-02 -0.116984D-02 -0.401387D-01  0.631528D-02
     13 -0.442933D-03 -0.888522D-02  0.670943D-02  0.751506D-04 -0.457234D+00
     14  0.789145D-05 -0.287432D-01  0.217264D-01  0.437900D-03  0.988927D-01
     15 -0.247727D-02 -0.444416D-03  0.797952D-04  0.881683D-02  0.390511D-02
     16 -0.581290D-04  0.000000D+00  0.000000D+00 -0.231336D-05 -0.531253D-02
     17 -0.394061D-04  0.000000D+00  0.000000D+00 -0.108963D-03  0.669064D-02
     18  0.558747D-02  0.181691D-04 -0.426709D-04  0.554616D-02  0.451019D-03
     19 -0.198356D-03  0.221076D-01 -0.167183D-01  0.131709D-02 -0.172339D+00
     20  0.123770D-03  0.115459D-01 -0.873246D-02  0.901895D-03  0.106274D+00
     21  0.501595D-02  0.477742D-03 -0.385937D-03  0.475430D-02 -0.655158D-02
     22 -0.234102D-02  0.197898D-01  0.149611D-01  0.550885D-03  0.000000D+00
     23 -0.298193D-02 -0.108295D-01 -0.818927D-02 -0.398208D-03  0.000000D+00
     24 -0.781940D-01  0.569080D-03  0.580676D-03  0.672729D-02 -0.249735D-04
     25  0.291308D-03  0.205603D-05  0.428917D-05  0.122053D-03  0.000000D+00
     26  0.147542D-03  0.174561D-05  0.364160D-05  0.103626D-03  0.000000D+00
     27  0.249238D-01  0.909695D-04  0.189776D-03  0.540029D-02  0.210264D-04
               11            12            13            14            15 
     11  0.916041D+00
     12 -0.965653D-02  0.184477D+00
     13  0.742523D-01  0.243187D-02  0.842355D+00
     14 -0.209396D+00 -0.275600D-03  0.888255D-02  0.846783D+00
     15 -0.118591D-02 -0.976974D-01 -0.633337D-03  0.538865D-02  0.208802D+00
     16 -0.171871D-01 -0.388557D-03 -0.235121D+00 -0.102906D+00 -0.222282D-02
     17  0.216536D-01  0.486475D-04 -0.103591D+00 -0.187476D+00 -0.201613D-02
     18  0.105942D-02  0.218797D-01 -0.271025D-02 -0.267879D-02 -0.783995D-01
     19  0.112980D+00 -0.589315D-02  0.792813D-02  0.256851D-01 -0.138956D-02
     20 -0.317300D+00  0.106424D-01  0.412875D-02  0.133550D-01  0.429440D-03
     21  0.129012D-01 -0.739632D-01 -0.892091D-04 -0.754853D-03  0.254760D-01
     22  0.000000D+00 -0.386309D-04  0.108054D-04 -0.199771D-05  0.341563D-03
     23  0.000000D+00  0.143570D-05 -0.950909D-05  0.175804D-05 -0.300586D-03
     24  0.117521D-04  0.136575D-02  0.249769D-03 -0.461775D-04  0.789531D-02
     25  0.000000D+00  0.756450D-05  0.183539D-01  0.524893D-03  0.105252D-03
     26  0.000000D+00 -0.392575D-04  0.223149D-01  0.639442D-03 -0.602896D-04
     27 -0.388720D-04  0.584399D-02  0.147336D-03 -0.149150D-03  0.227057D-01
               16            17            18            19            20 
     16  0.222447D+00
     17  0.119578D+00  0.166458D+00
     18  0.257270D-02  0.232125D-02  0.414014D-01
     19  0.000000D+00  0.423352D-05 -0.215484D-03  0.142299D+00
     20  0.000000D+00  0.103943D-04 -0.529064D-03 -0.121948D+00  0.312669D+00
     21  0.383809D-05  0.180780D-03 -0.920163D-02  0.622760D-02 -0.119412D-01
     22  0.000000D+00  0.000000D+00  0.000000D+00  0.000000D+00  0.000000D+00
     23  0.000000D+00  0.000000D+00  0.000000D+00  0.000000D+00  0.000000D+00
     24  0.000000D+00  0.000000D+00  0.000000D+00  0.000000D+00  0.000000D+00
     25  0.000000D+00  0.000000D+00 -0.110589D-04  0.000000D+00  0.000000D+00
     26  0.000000D+00  0.000000D+00  0.573925D-04  0.000000D+00  0.000000D+00
     27  0.888832D-04  0.602546D-04 -0.854361D-02  0.000000D+00  0.000000D+00
               21            22            23            24            25 
     21  0.414338D-01
     22  0.000000D+00  0.146383D+00
     23  0.000000D+00  0.124346D+00  0.305804D+00
     24  0.000000D+00  0.238719D-02  0.347581D-02  0.421826D-01
     25  0.000000D+00 -0.105327D-04  0.926908D-05 -0.243465D-03  0.216686D+00
     26  0.000000D+00 -0.894245D-05  0.786964D-05 -0.206707D-03 -0.119541D+00
     27  0.000000D+00 -0.466021D-03  0.410113D-03 -0.107722D-01 -0.132916D-02
               26            27 
     26  0.169660D+00
     27  0.630586D-03  0.440469D-01
 Leave Link  716 at Tue Dec 15 17:09:44 2015, MaxMem=    33554432 cpu:         0.0
 (Enter /home/Applications/g09/g09/l103.exe)

 GradGradGradGradGradGradGradGradGradGradGradGradGradGradGradGradGradGrad
 Berny optimization.
 Search for a local minimum.
 Step number   1 out of a maximum of    2
 All quantities printed in internal units (Hartrees-Bohrs-Radians)
 Second derivative matrix not updated -- first step.
 ITU=  0
     Eigenvalues ---    0.01967   0.02634   0.06793   0.07452   0.07493
     Eigenvalues ---    0.07644   0.12880   0.14956   0.15994   0.23190
     Eigenvalues ---    0.24219   0.29750   0.40175   0.43558   0.60417
     Eigenvalues ---    0.75765   0.98402   1.27019   1.43349   1.53601
     Eigenvalues ---    1.57193
 Quadratic step=1.089D+00 exceeds max=3.000D-01 adjusted using Lamda=-7.503D-01.
 Angle between NR and scaled steps=  31.29 degrees.
 Angle between quadratic step and forces=  19.41 degrees.
 Linear search not attempted -- first point.
 TrRot=  0.000987 -0.003389  0.000133  0.000358  0.000126  0.000359
 MatCor failed.
 Variable       Old X    -DE/DX   Delta X   Delta X   Delta X     New X
                                 (Linear)    (Quad)   (Total)
    X1        1.83351   0.14965   0.00000   0.05927   0.06121   1.89472
    Y1       -1.26972  -0.09369   0.00000  -0.05765  -0.05968  -1.32940
    Z1        0.02024  -0.00326   0.00000  -0.00081  -0.00091   0.01932
    X2       -0.58106  -0.28258   0.00000  -0.15106  -0.14852  -0.72959
    Y2       -2.14093   0.00754   0.00000  -0.01330  -0.01721  -2.15814
    Z2        0.09153  -0.00069   0.00000  -0.00210  -0.00188   0.08965
    X3       -2.26823   0.18188   0.00000   0.10617   0.10713  -2.16110
    Y3        0.09262  -0.07942   0.00000  -0.05358  -0.05852   0.03411
    Z3        0.04145   0.00792   0.00000   0.00614   0.00654   0.04800
    X4       -0.73939  -0.23440   0.00000  -0.12035  -0.12091  -0.86031
    Y4        2.11513   0.05037   0.00000   0.05346   0.04946   2.16458
    Z4        0.05201  -0.00600   0.00000  -0.00575  -0.00551   0.04649
    X5        1.75868   0.13879   0.00000   0.06703   0.06701   1.82569
    Y5        1.34329   0.09671   0.00000   0.06726   0.06518   1.40848
    Z5        0.03789   0.00058   0.00000   0.00051   0.00041   0.03830
    X6        3.41452   0.02016   0.00000   0.03939   0.03846   3.45297
    Y6        2.65628   0.01713   0.00000   0.03613   0.03521   2.69150
    Z6        0.06437   0.00165   0.00000   0.00303   0.00273   0.06710
    X7       -1.67024   0.00293   0.00000  -0.01895  -0.02083  -1.69107
    Y7        3.90081   0.07286   0.00000   0.09375   0.08915   3.98996
    Z7       -0.02887  -0.00008   0.00000  -0.00086  -0.00052  -0.02938
    X8       -1.54998   0.00006   0.00000  -0.02748  -0.02363  -1.57361
    Y8       -3.91286  -0.05981   0.00000  -0.06913  -0.07365  -3.98651
    Z8        0.06598   0.00161   0.00000   0.00094   0.00127   0.06725
    X9        3.46904   0.02350   0.00000   0.03720   0.04008   3.50912
    Y9       -2.61487  -0.01168   0.00000  -0.02907  -0.02994  -2.64481
    Z9        0.00908  -0.00173   0.00000  -0.00182  -0.00213   0.00696
         Item               Value     Threshold  Converged?
 Maximum Force            0.282580     0.000450     NO 
 RMS     Force            0.095639     0.000300     NO 
 Maximum Displacement     0.148522     0.001800     NO 
 RMS     Displacement     0.057751     0.001200     NO 
 Predicted change in Energy=-1.042204D-01
 GradGradGradGradGradGradGradGradGradGradGradGradGradGradGradGradGradGrad

 Leave Link  103 at Tue Dec 15 17:09:44 2015, MaxMem=    33554432 cpu:         0.0
 (Enter /home/Applications/g09/g09/l9999.exe)
 1\1\GINC-DUSTIN-DESKTOP\Force\RAM1-FC\STO-3G\C4H4O1\DUSTIN\15-Dec-2015
 \0\\#P AM1(Input,print) CIS(Singlets,NStates=15) pop(full) force\\AM1-
 Reparam Input\\0,1\C,0.970251,-0.671909,0.010708\C,-0.307486,-1.132931
 ,0.048433\O,-1.200297,0.049015,0.021937\C,-0.39127,1.119277,0.027521\C
 ,0.930653,0.71084,0.020048\H,1.806884,1.405644,0.034064\H,-0.883853,2.
 064222,-0.015275\H,-0.820213,-2.070597,0.034916\H,1.835736,-1.383728,0
 .004806\\Version=ES64L-G09RevD.01\State=1-A\HF=1.7296483\RMSD=1.597e-0
 9\RMSF=9.564e-02\Dipole=-4.9226633,0.2458716,-0.1196534\PG=C01 [X(C4H4
 O1)]\\@


 WE MIGHT AS WELL ATTEMPT TO INTRODUCE A NEW PLANET 
 INTO THE SOLAR SYSTEM, OR TO ANNIHILATE ONE ALREADYIN EXISTENCE, 
 AS TO CREATE OR DESTROY A PARTICLE OF HYDROGEN.
 ALL THE CHANGES WE CAN PRODUCE CONSIST IN SEPARATING PARTICLES
 THAT ARE IN A STATE OF ... COMBINATION, AND JOINING 
 THOSE THAT WERE PREVIOUSLY AT A DISTANCE.

                                    -- JOHN DALTON, 1810
 Job cpu time:       0 days  0 hours  0 minutes  0.7 seconds.
 File lengths (MBytes):  RWF=      7 Int=      0 D2E=      0 Chk=      2 Scr=      1
 Normal termination of Gaussian 09 at Tue Dec 15 17:09:44 2015.
