 Entering Gaussian System, Link 0=g09
 Input=FuranBestInput.com
 Output=FuranBestInput.log
 Initial command:
 /home/Applications/g09/g09/l1.exe "/home/Applications/g09/scratch/Gau-24741.inp" -scrdir="/home/Applications/g09/scratch/"
 Entering Link 1 = /home/Applications/g09/g09/l1.exe PID=     24743.
  
 Copyright (c) 1988,1990,1992,1993,1995,1998,2003,2009,2013,
            Gaussian, Inc.  All Rights Reserved.
  
 This is part of the Gaussian(R) 09 program.  It is based on
 the Gaussian(R) 03 system (copyright 2003, Gaussian, Inc.),
 the Gaussian(R) 98 system (copyright 1998, Gaussian, Inc.),
 the Gaussian(R) 94 system (copyright 1995, Gaussian, Inc.),
 the Gaussian 92(TM) system (copyright 1992, Gaussian, Inc.),
 the Gaussian 90(TM) system (copyright 1990, Gaussian, Inc.),
 the Gaussian 88(TM) system (copyright 1988, Gaussian, Inc.),
 the Gaussian 86(TM) system (copyright 1986, Carnegie Mellon
 University), and the Gaussian 82(TM) system (copyright 1983,
 Carnegie Mellon University). Gaussian is a federally registered
 trademark of Gaussian, Inc.
  
 This software contains proprietary and confidential information,
 including trade secrets, belonging to Gaussian, Inc.
  
 This software is provided under written license and may be
 used, copied, transmitted, or stored only in accord with that
 written license.
  
 The following legend is applicable only to US Government
 contracts under FAR:
  
                    RESTRICTED RIGHTS LEGEND
  
 Use, reproduction and disclosure by the US Government is
 subject to restrictions as set forth in subparagraphs (a)
 and (c) of the Commercial Computer Software - Restricted
 Rights clause in FAR 52.227-19.
  
 Gaussian, Inc.
 340 Quinnipiac St., Bldg. 40, Wallingford CT 06492
  
  
 ---------------------------------------------------------------
 Warning -- This program may not be used in any manner that
 competes with the business of Gaussian, Inc. or will provide
 assistance to any competitor of Gaussian, Inc.  The licensee
 of this program is prohibited from giving any competitor of
 Gaussian, Inc. access to this program.  By using this program,
 the user acknowledges that Gaussian, Inc. is engaged in the
 business of creating and licensing software in the field of
 computational chemistry and represents and warrants to the
 licensee that it is not a competitor of Gaussian, Inc. and that
 it will not use this program in any manner prohibited above.
 ---------------------------------------------------------------
  

 Cite this work as:
 Gaussian 09, Revision D.01,
 M. J. Frisch, G. W. Trucks, H. B. Schlegel, G. E. Scuseria, 
 M. A. Robb, J. R. Cheeseman, G. Scalmani, V. Barone, B. Mennucci, 
 G. A. Petersson, H. Nakatsuji, M. Caricato, X. Li, H. P. Hratchian, 
 A. F. Izmaylov, J. Bloino, G. Zheng, J. L. Sonnenberg, M. Hada, 
 M. Ehara, K. Toyota, R. Fukuda, J. Hasegawa, M. Ishida, T. Nakajima, 
 Y. Honda, O. Kitao, H. Nakai, T. Vreven, J. A. Montgomery, Jr., 
 J. E. Peralta, F. Ogliaro, M. Bearpark, J. J. Heyd, E. Brothers, 
 K. N. Kudin, V. N. Staroverov, T. Keith, R. Kobayashi, J. Normand, 
 K. Raghavachari, A. Rendell, J. C. Burant, S. S. Iyengar, J. Tomasi, 
 M. Cossi, N. Rega, J. M. Millam, M. Klene, J. E. Knox, J. B. Cross, 
 V. Bakken, C. Adamo, J. Jaramillo, R. Gomperts, R. E. Stratmann, 
 O. Yazyev, A. J. Austin, R. Cammi, C. Pomelli, J. W. Ochterski, 
 R. L. Martin, K. Morokuma, V. G. Zakrzewski, G. A. Voth, 
 P. Salvador, J. J. Dannenberg, S. Dapprich, A. D. Daniels, 
 O. Farkas, J. B. Foresman, J. V. Ortiz, J. Cioslowski, 
 and D. J. Fox, Gaussian, Inc., Wallingford CT, 2013.
 
 ******************************************
 Gaussian 09:  ES64L-G09RevD.01 24-Apr-2013
                24-Dec-2015 
 ******************************************
 ----------------------------
 #P AM1(Input,print) Opt Freq
 ----------------------------
 1/14=-1,18=20,19=15,26=1,38=1/1,3;
 2/9=110,12=2,17=6,18=5,40=1/2;
 3/5=2,16=1,25=1,41=700000,71=1,135=100,136=1/1,2,3;
 4/35=1/1;
 5/5=2,35=1,38=5/2;
 6/7=2,8=2,9=2,10=2,28=1/1;
 7//1,2,3,16;
 1/14=-1,18=20,19=15,26=1/3(2);
 2/9=110/2;
 99//99;
 2/9=110/2;
 3/5=2,16=1,25=1,41=700000,71=1,135=20,136=1/1,2,3;
 4/5=5,16=3,35=1/1;
 5/5=2,35=1,38=5/2;
 7//1,2,3,16;
 1/14=-1,18=20,19=15,26=1/3(-5);
 2/9=110/2;
 6/7=2,8=2,9=2,10=2,19=2,28=1/1;
 99/9=1/99;
 Leave Link    1 at Thu Dec 24 04:54:11 2015, MaxMem=           0 cpu:         0.0
 (Enter /home/Applications/g09/g09/l101.exe)
 -----------------
 AM1-Reparam Input
 -----------------
 Symbolic Z-matrix:
 Charge =  0 Multiplicity = 1
 6                     0.94221  -0.71193   0.00508 
 6                    -0.33028  -1.09286   0.01965 
 8                    -1.16731   0.00301   0.01624 
 6                    -0.34662   1.08354   0.02216 
 6                     0.9377    0.72768   0.01655 
 1                     1.82876   1.35921  -0.00859 
 1                    -0.84823   2.02717  -0.00313 
 1                    -0.83388  -2.03015  -0.01367 
 1                     1.79769  -1.35895  -0.01002 
 
 NAtoms=      9 NQM=        9 NQMF=       0 NMMI=      0 NMMIF=      0
                NMic=       0 NMicF=      0.
                    Isotopes and Nuclear Properties:
 (Nuclear quadrupole moments (NQMom) in fm**2, nuclear magnetic moments (NMagM)
  in nuclear magnetons)

  Atom         1           2           3           4           5           6           7           8           9
 IAtWgt=          12          12          16          12          12           1           1           1           1
 AtmWgt=  12.0000000  12.0000000  15.9949146  12.0000000  12.0000000   1.0078250   1.0078250   1.0078250   1.0078250
 NucSpn=           0           0           0           0           0           1           1           1           1
 AtZEff=   0.0000000   0.0000000   0.0000000   0.0000000   0.0000000   0.0000000   0.0000000   0.0000000   0.0000000
 NQMom=    0.0000000   0.0000000   0.0000000   0.0000000   0.0000000   0.0000000   0.0000000   0.0000000   0.0000000
 NMagM=    0.0000000   0.0000000   0.0000000   0.0000000   0.0000000   2.7928460   2.7928460   2.7928460   2.7928460
 AtZNuc=   6.0000000   6.0000000   8.0000000   6.0000000   6.0000000   1.0000000   1.0000000   1.0000000   1.0000000
 Leave Link  101 at Thu Dec 24 04:54:11 2015, MaxMem=    33554432 cpu:         0.0
 (Enter /home/Applications/g09/g09/l103.exe)

 GradGradGradGradGradGradGradGradGradGradGradGradGradGradGradGradGradGrad
 Berny optimization.
 Initialization pass.
                           ----------------------------
                           !    Initial Parameters    !
                           ! (Angstroms and Degrees)  !
 --------------------------                            --------------------------
 ! Name  Definition              Value          Derivative Info.                !
 --------------------------------------------------------------------------------
 ! R1    R(1,2)                  1.3284         estimate D2E/DX2                !
 ! R2    R(1,5)                  1.4397         estimate D2E/DX2                !
 ! R3    R(1,9)                  1.0727         estimate D2E/DX2                !
 ! R4    R(2,3)                  1.379          estimate D2E/DX2                !
 ! R5    R(2,8)                  1.0645         estimate D2E/DX2                !
 ! R6    R(3,4)                  1.3569         estimate D2E/DX2                !
 ! R7    R(4,5)                  1.3327         estimate D2E/DX2                !
 ! R8    R(4,7)                  1.069          estimate D2E/DX2                !
 ! R9    R(5,6)                  1.0925         estimate D2E/DX2                !
 ! A1    A(2,1,5)              106.4793         estimate D2E/DX2                !
 ! A2    A(2,1,9)              126.2377         estimate D2E/DX2                !
 ! A3    A(5,1,9)              127.2829         estimate D2E/DX2                !
 ! A4    A(1,2,3)              110.7044         estimate D2E/DX2                !
 ! A5    A(1,2,8)              134.8553         estimate D2E/DX2                !
 ! A6    A(3,2,8)              114.3605         estimate D2E/DX2                !
 ! A7    A(2,3,4)              105.4085         estimate D2E/DX2                !
 ! A8    A(3,4,5)              111.729          estimate D2E/DX2                !
 ! A9    A(3,4,7)              114.7739         estimate D2E/DX2                !
 ! A10   A(5,4,7)              133.4579         estimate D2E/DX2                !
 ! A11   A(1,5,4)              105.6679         estimate D2E/DX2                !
 ! A12   A(1,5,6)              125.1225         estimate D2E/DX2                !
 ! A13   A(4,5,6)              129.1804         estimate D2E/DX2                !
 ! D1    D(5,1,2,3)              1.0512         estimate D2E/DX2                !
 ! D2    D(5,1,2,8)            177.5053         estimate D2E/DX2                !
 ! D3    D(9,1,2,3)           -179.0717         estimate D2E/DX2                !
 ! D4    D(9,1,2,8)             -2.6177         estimate D2E/DX2                !
 ! D5    D(2,1,5,4)             -0.6684         estimate D2E/DX2                !
 ! D6    D(2,1,5,6)           -178.8567         estimate D2E/DX2                !
 ! D7    D(9,1,5,4)            179.4563         estimate D2E/DX2                !
 ! D8    D(9,1,5,6)              1.268          estimate D2E/DX2                !
 ! D9    D(1,2,3,4)             -1.0238         estimate D2E/DX2                !
 ! D10   D(8,2,3,4)           -178.2651         estimate D2E/DX2                !
 ! D11   D(2,3,4,5)              0.5749         estimate D2E/DX2                !
 ! D12   D(2,3,4,7)            178.6077         estimate D2E/DX2                !
 ! D13   D(3,4,5,1)              0.0416         estimate D2E/DX2                !
 ! D14   D(3,4,5,6)            178.1299         estimate D2E/DX2                !
 ! D15   D(7,4,5,1)           -177.4975         estimate D2E/DX2                !
 ! D16   D(7,4,5,6)              0.5908         estimate D2E/DX2                !
 --------------------------------------------------------------------------------
 Trust Radius=3.00D-01 FncErr=1.00D-07 GrdErr=1.00D-07
 Number of steps in this run=     48 maximum allowed number of steps=    100.
 GradGradGradGradGradGradGradGradGradGradGradGradGradGradGradGradGradGrad

 Leave Link  103 at Thu Dec 24 04:54:11 2015, MaxMem=    33554432 cpu:         0.0
 (Enter /home/Applications/g09/g09/l202.exe)
                          Input orientation:                          
 ---------------------------------------------------------------------
 Center     Atomic      Atomic             Coordinates (Angstroms)
 Number     Number       Type             X           Y           Z
 ---------------------------------------------------------------------
      1          6           0        0.942212   -0.711928    0.005079
      2          6           0       -0.330276   -1.092858    0.019648
      3          8           0       -1.167310    0.003009    0.016236
      4          6           0       -0.346616    1.083541    0.022156
      5          6           0        0.937703    0.727678    0.016553
      6          1           0        1.828762    1.359209   -0.008589
      7          1           0       -0.848234    2.027174   -0.003129
      8          1           0       -0.833876   -2.030146   -0.013672
      9          1           0        1.797690   -1.358945   -0.010017
 ---------------------------------------------------------------------
                    Distance matrix (angstroms):
                    1          2          3          4          5
     1  C    0.000000
     2  C    1.328362   0.000000
     3  O    2.227407   1.378971   0.000000
     4  C    2.210221   2.176462   1.356880   0.000000
     5  C    1.439659   2.218588   2.226258   1.332721   0.000000
     6  H    2.252946   3.267243   3.288821   2.192991   1.092451
     7  H    3.272376   3.162815   2.049251   1.068973   2.208766
     8  H    2.211908   1.064534   2.060532   3.151786   3.277957
     9  H    1.072708   2.144743   3.262949   3.250357   2.257051
                    6          7          8          9
     6  H    0.000000
     7  H    2.759079   0.000000
     8  H    4.310150   4.057359   0.000000
     9  H    2.718332   4.297297   2.715817   0.000000
 Stoichiometry    C4H4O
 Framework group  C1[X(C4H4O)]
 Deg. of freedom    21
 Full point group                 C1      NOp   1
 Largest Abelian subgroup         C1      NOp   1
 Largest concise Abelian subgroup C1      NOp   1
                         Standard orientation:                         
 ---------------------------------------------------------------------
 Center     Atomic      Atomic             Coordinates (Angstroms)
 Number     Number       Type             X           Y           Z
 ---------------------------------------------------------------------
      1          6           0       -0.732909    0.932267    0.002112
      2          6           0       -1.087589   -0.347828   -0.008057
      3          8           0        0.025218   -1.162151    0.001938
      4          6           0        1.088685   -0.319464   -0.004534
      5          6           0        0.706513    0.957285   -0.005400
      6          1           0        1.319542    1.861229    0.017660
      7          1           0        2.042343   -0.801479    0.025481
      8          1           0       -2.014430   -0.870432    0.024850
      9          1           0       -1.397394    1.774328    0.011776
 ---------------------------------------------------------------------
 Rotational constants (GHZ):      9.5584051      9.4045393      4.7407017
 Leave Link  202 at Thu Dec 24 04:54:11 2015, MaxMem=    33554432 cpu:         0.0
 (Enter /home/Applications/g09/g09/l301.exe)

 Semi-emprical parameters in input format:
 Method=8 CoreType=1 PeptideFC=0.0114510000 RIJScale=0.5291770000
 ****
 H       
 PQN=1 NValence=1 F0ss=0.4721550000 ZetaOverlap=1.1880780000 U=-0.4849220000
 Beta=-0.2609800000 CoreKO=1.0589200000 KON=0,0,0,1.0589200000 KON=1,0,1,1.0589200000
 KON=0,1,1,1.0589200000 KON=2,1,1,1.0589200000 EISol=-0.4188110042 EHeat=0.0830298228
 Alpha=1.5252600000
 GCore=0.0101030000,1.2837820000,2.2676710000
 GCore=0.0003530000,1.4001430000,2.7653400000
 GCore=-0.0012730000,0.5600570000,3.9684250000
 ****
 C       
 PQN=2,2 NValence=4 F0ss=0.4966660000 F0sp=0.4393990000 F0pp=0.3768030000 F2pp=0.1954550000
 G1sp=0.2679030000
 ZetaOverlap=1.8086650000,1.6851160000
 U=-1.9120180000,-1.4528800000
 Beta=-0.5775440000,-0.2716710000 DDN=0,1,0.9413200000 DDN=1,1,0.7268010000
 CoreKO=1.2773040000 KON=0,0,0,1.1124280000 KON=1,0,1,0.8219700000 KON=0,1,1,1.1124280000
 KON=2,1,1,0.7783930000 EISol=-4.4398989268 EHeat=0.2723305520 Alpha=1.4014060000
 DipHyp=1.8825316901
 GCore=0.0007890000,1.1698590000,3.0235620000
 GCore=0.0031890000,1.4001430000,3.4959930000
 GCore=-0.0015080000,1.4001430000,3.7716690000
 GCore=-0.0000890000,1.4001430000,4.6065730000
 ****
 O       
 PQN=2,2 NValence=6 F0ss=0.5250100000 F0sp=0.5321300000 F0pp=0.4958710000 F2pp=0.2639600000
 G1sp=0.4343770000
 ZetaOverlap=2.4866760000,2.5240390000
 U=-3.5951870000,-2.8760900000
 Beta=-1.0757550000,-1.0757550000 DDN=0,1,0.4988900000 DDN=1,1,0.4852320000
 CoreKO=0.8822960000 KON=0,0,0,1.0261780000 KON=1,0,1,0.5019540000 KON=0,1,1,0.8822960000
 KON=2,1,1,0.6473590000 EISol=-11.6164441184 EHeat=0.0949133088 Alpha=2.8029290000
 DipHyp=0.9977225968
 GCore=0.0198630000,1.4001430000,1.9159220000
 GCore=0.0056550000,1.5903000000,2.7307880000
 ****
 
 Standard basis: VSTO-6G (5D, 7F)
 Ernie: Thresh=  0.10000D-02 Tol=  0.10000D-05 Strict=F.
  NNHCO=     0 NNPyr=     0 NCTC=     0               EPep=         0.000000000
    EC=        66.815049584  ECS=         1.758902439   EG=         0.471686640
   EHC=         0.000000000  EAt=       -31.051283842  AtH=         1.516354808
 EPDDG=         0.000000000  ECC=        69.045638663 EAtT=        32.567638650
 There are    24 symmetry adapted cartesian basis functions of A   symmetry.
 There are    24 symmetry adapted basis functions of A   symmetry.
    24 basis functions,   144 primitive gaussians,    24 cartesian basis functions
    13 alpha electrons       13 beta electrons
       nuclear repulsion energy       101.6132773131 Hartrees.
 IExCor=    0 DFT=F Ex=HF Corr=None ExCW=0 ScaHFX=  1.000000
 ScaDFX=  1.000000  1.000000  1.000000  1.000000 ScalE2=  1.000000  1.000000
 IRadAn=      0 IRanWt=     -1 IRanGd=            0 ICorTp=0 IEmpDi=  4
 Integral buffers will be    131072 words long.
 Regular integral format.
 Two-electron integral symmetry is turned off.
 Leave Link  301 at Thu Dec 24 04:54:11 2015, MaxMem=    33554432 cpu:         0.0
 (Enter /home/Applications/g09/g09/l302.exe)
 Do NDO integrals.
 NPDir=0 NMtPBC=     1 NCelOv=     1 NCel=       1 NClECP=     1 NCelD=      1
         NCelK=      1 NCelE2=     1 NClLst=     1 CellRange=     0.0.
 One-electron integrals computed using PRISM.
 NBasis=    24 RedAO= F EigKep=  0.00D+00  NBF=    24
 NBsUse=    24 1.00D-04 EigRej=  0.00D+00 NBFU=    24
 Leave Link  302 at Thu Dec 24 04:54:11 2015, MaxMem=    33554432 cpu:         0.0
 (Enter /home/Applications/g09/g09/l303.exe)
 DipDrv:  MaxL=1.
 Leave Link  303 at Thu Dec 24 04:54:11 2015, MaxMem=    33554432 cpu:         0.0
 (Enter /home/Applications/g09/g09/l401.exe)
 Simple Huckel Guess.
 JPrj=0 DoOrth=F DoCkMO=F.
 Leave Link  401 at Thu Dec 24 04:54:11 2015, MaxMem=    33554432 cpu:         0.0
 (Enter /home/Applications/g09/g09/l502.exe)
 Closed shell SCF:
 Using DIIS extrapolation, IDIIS=  1040.
 Overlap will be assumed to be unity.
 Two-electron integral symmetry not used.
 Keep J ints in memory in canonical form, NReq=888082.
 IVT=       79475 IEndB=       79475 NGot=    33554432 MDV=    33473473
 LenX=    33473473 LenY=    33472456
 Requested convergence on RMS density matrix=1.00D-08 within 128 cycles.
 Requested convergence on MAX density matrix=1.00D-06.
 Requested convergence on             energy=1.00D-06.
 No special actions if energy rises.
 FoFCou: FMM=F IPFlag=           0 FMFlag=           0 FMFlg1=           0
         NFxFlg=           0 DoJE=F BraDBF=F KetDBF=F FulRan=T
         wScrn=  0.000000 ICntrl=     600 IOpCl=  2 I1Cent=           0 NGrid=           0
         NMat0=    1 NMatS0=     54 NMatT0=    0 NMatD0=    1 NMtDS0=    0 NMtDT0=    0
 Symmetry not used in FoFCou.

 Cycle   1  Pass 1  IDiag  1:
 E= 0.123643241818400    
 DIIS: error= 4.63D-02 at cycle   1 NSaved=   1.
 NSaved= 1 IEnMin= 1 EnMin= 0.123643241818400     IErMin= 1 ErrMin= 4.63D-02
 ErrMax= 4.63D-02  0.00D+00 EMaxC= 1.00D-01 BMatC= 7.18D-02 BMatP= 7.18D-02
 IDIUse=3 WtCom= 5.37D-01 WtEn= 4.63D-01
 Coeff-Com:  0.100D+01
 Coeff-En:   0.100D+01
 Coeff:      0.100D+01
 GapD=    2.000 DampG=2.000 DampE=0.500 DampFc=1.0000 IDamp=-1.
 RMSDP=1.51D-02 MaxDP=1.29D-01              OVMax= 0.00D+00

 Cycle   2  Pass 1  IDiag  1:
 E=-0.494938880402742E-01 Delta-E=       -0.173137129859 Rises=F Damp=F
 DIIS: error= 1.84D-02 at cycle   2 NSaved=   2.
 NSaved= 2 IEnMin= 2 EnMin=-0.494938880402742E-01 IErMin= 2 ErrMin= 1.84D-02
 ErrMax= 1.84D-02  0.00D+00 EMaxC= 1.00D-01 BMatC= 6.63D-03 BMatP= 7.18D-02
 IDIUse=3 WtCom= 8.16D-01 WtEn= 1.84D-01
 Coeff-Com: -0.368D+00 0.137D+01
 Coeff-En:   0.000D+00 0.100D+01
 Coeff:     -0.301D+00 0.130D+01
 RMSDP=6.93D-03 MaxDP=7.01D-02 DE=-1.73D-01 OVMax= 0.00D+00

 Cycle   3  Pass 1  IDiag  3:
 E=-0.714569578186826E-01 Delta-E=       -0.021963069778 Rises=F Damp=F
 DIIS: error= 3.54D-03 at cycle   3 NSaved=   3.
 NSaved= 3 IEnMin= 3 EnMin=-0.714569578186826E-01 IErMin= 3 ErrMin= 3.54D-03
 ErrMax= 3.54D-03  0.00D+00 EMaxC= 1.00D-01 BMatC= 3.22D-04 BMatP= 6.63D-03
 IDIUse=3 WtCom= 9.65D-01 WtEn= 3.54D-02
 Coeff-Com:  0.171D+00-0.749D+00 0.158D+01
 Coeff-En:   0.000D+00 0.000D+00 0.100D+01
 Coeff:      0.165D+00-0.723D+00 0.156D+01
 Gap=     0.386 Goal=   None    Shift=    0.000
 RMSDP=2.43D-03 MaxDP=3.02D-02 DE=-2.20D-02 OVMax= 2.54D-02

 Cycle   4  Pass 1  IDiag  3:
 E=-0.732036619806280E-01 Delta-E=       -0.001746704162 Rises=F Damp=F
 DIIS: error= 7.94D-04 at cycle   4 NSaved=   4.
 NSaved= 4 IEnMin= 4 EnMin=-0.732036619806280E-01 IErMin= 4 ErrMin= 7.94D-04
 ErrMax= 7.94D-04  0.00D+00 EMaxC= 1.00D-01 BMatC= 1.69D-05 BMatP= 3.22D-04
 IDIUse=3 WtCom= 9.92D-01 WtEn= 7.94D-03
 Coeff-Com:  0.810D-02-0.238D-01-0.200D+00 0.122D+01
 Coeff-En:   0.000D+00 0.000D+00 0.000D+00 0.100D+01
 Coeff:      0.804D-02-0.236D-01-0.199D+00 0.121D+01
 Gap=     0.386 Goal=   None    Shift=    0.000
 RMSDP=6.15D-04 MaxDP=7.82D-03 DE=-1.75D-03 OVMax= 6.57D-03

 Cycle   5  Pass 1  IDiag  3:
 E=-0.732986266272633E-01 Delta-E=       -0.000094964647 Rises=F Damp=F
 DIIS: error= 1.21D-04 at cycle   5 NSaved=   5.
 NSaved= 5 IEnMin= 5 EnMin=-0.732986266272633E-01 IErMin= 5 ErrMin= 1.21D-04
 ErrMax= 1.21D-04  0.00D+00 EMaxC= 1.00D-01 BMatC= 8.03D-07 BMatP= 1.69D-05
 IDIUse=3 WtCom= 9.99D-01 WtEn= 1.21D-03
 Coeff-Com: -0.543D-02 0.223D-01 0.220D-01-0.401D+00 0.136D+01
 Coeff-En:   0.000D+00 0.000D+00 0.000D+00 0.000D+00 0.100D+01
 Coeff:     -0.542D-02 0.223D-01 0.220D-01-0.401D+00 0.136D+01
 Gap=     0.386 Goal=   None    Shift=    0.000
 RMSDP=1.43D-04 MaxDP=9.68D-04 DE=-9.50D-05 OVMax= 1.66D-03

 Cycle   6  Pass 1  IDiag  3:
 E=-0.733038468453486E-01 Delta-E=       -0.000005220218 Rises=F Damp=F
 DIIS: error= 6.75D-05 at cycle   6 NSaved=   6.
 NSaved= 6 IEnMin= 6 EnMin=-0.733038468453486E-01 IErMin= 6 ErrMin= 6.75D-05
 ErrMax= 6.75D-05  0.00D+00 EMaxC= 1.00D-01 BMatC= 8.60D-08 BMatP= 8.03D-07
 IDIUse=1 WtCom= 1.00D+00 WtEn= 0.00D+00
 Coeff-Com:  0.325D-02-0.136D-01 0.452D-02 0.141D+00-0.735D+00 0.160D+01
 Coeff:      0.325D-02-0.136D-01 0.452D-02 0.141D+00-0.735D+00 0.160D+01
 Gap=     0.386 Goal=   None    Shift=    0.000
 RMSDP=6.33D-05 MaxDP=5.56D-04 DE=-5.22D-06 OVMax= 8.08D-04

 Cycle   7  Pass 1  IDiag  3:
 E=-0.733045934683361E-01 Delta-E=       -0.000000746623 Rises=F Damp=F
 DIIS: error= 2.25D-05 at cycle   7 NSaved=   7.
 NSaved= 7 IEnMin= 7 EnMin=-0.733045934683361E-01 IErMin= 7 ErrMin= 2.25D-05
 ErrMax= 2.25D-05  0.00D+00 EMaxC= 1.00D-01 BMatC= 6.58D-09 BMatP= 8.60D-08
 IDIUse=1 WtCom= 1.00D+00 WtEn= 0.00D+00
 Coeff-Com: -0.599D-03 0.218D-02-0.429D-03-0.256D-01 0.164D+00-0.614D+00
 Coeff-Com:  0.148D+01
 Coeff:     -0.599D-03 0.218D-02-0.429D-03-0.256D-01 0.164D+00-0.614D+00
 Coeff:      0.148D+01
 Gap=     0.386 Goal=   None    Shift=    0.000
 RMSDP=2.07D-05 MaxDP=2.00D-04 DE=-7.47D-07 OVMax= 2.45D-04

 Cycle   8  Pass 1  IDiag  3:
 E=-0.733046563758677E-01 Delta-E=       -0.000000062908 Rises=F Damp=F
 DIIS: error= 4.73D-06 at cycle   8 NSaved=   8.
 NSaved= 8 IEnMin= 8 EnMin=-0.733046563758677E-01 IErMin= 8 ErrMin= 4.73D-06
 ErrMax= 4.73D-06  0.00D+00 EMaxC= 1.00D-01 BMatC= 3.27D-10 BMatP= 6.58D-09
 IDIUse=1 WtCom= 1.00D+00 WtEn= 0.00D+00
 Coeff-Com:  0.898D-04-0.181D-03-0.712D-03 0.757D-02-0.467D-01 0.212D+00
 Coeff-Com: -0.687D+00 0.151D+01
 Coeff:      0.898D-04-0.181D-03-0.712D-03 0.757D-02-0.467D-01 0.212D+00
 Coeff:     -0.687D+00 0.151D+01
 Gap=     0.386 Goal=   None    Shift=    0.000
 RMSDP=4.31D-06 MaxDP=4.23D-05 DE=-6.29D-08 OVMax= 5.37D-05

 Cycle   9  Pass 1  IDiag  3:
 E=-0.733046591664959E-01 Delta-E=       -0.000000002791 Rises=F Damp=F
 DIIS: error= 7.84D-07 at cycle   9 NSaved=   9.
 NSaved= 9 IEnMin= 9 EnMin=-0.733046591664959E-01 IErMin= 9 ErrMin= 7.84D-07
 ErrMax= 7.84D-07  0.00D+00 EMaxC= 1.00D-01 BMatC= 1.78D-11 BMatP= 3.27D-10
 IDIUse=1 WtCom= 1.00D+00 WtEn= 0.00D+00
 Coeff-Com:  0.792D-05-0.120D-03 0.453D-03-0.183D-02 0.112D-01-0.651D-01
 Coeff-Com:  0.254D+00-0.745D+00 0.155D+01
 Coeff:      0.792D-05-0.120D-03 0.453D-03-0.183D-02 0.112D-01-0.651D-01
 Coeff:      0.254D+00-0.745D+00 0.155D+01
 Gap=     0.386 Goal=   None    Shift=    0.000
 RMSDP=8.33D-07 MaxDP=7.17D-06 DE=-2.79D-09 OVMax= 1.04D-05

 Cycle  10  Pass 1  IDiag  3:
 E=-0.733046592823428E-01 Delta-E=       -0.000000000116 Rises=F Damp=F
 DIIS: error= 8.94D-08 at cycle  10 NSaved=  10.
 NSaved=10 IEnMin=10 EnMin=-0.733046592823428E-01 IErMin=10 ErrMin= 8.94D-08
 ErrMax= 8.94D-08  0.00D+00 EMaxC= 1.00D-01 BMatC= 5.22D-13 BMatP= 1.78D-11
 IDIUse=1 WtCom= 1.00D+00 WtEn= 0.00D+00
 Coeff-Com: -0.744D-05 0.651D-04-0.185D-03 0.563D-03-0.343D-02 0.224D-01
 Coeff-Com: -0.922D-01 0.283D+00-0.685D+00 0.147D+01
 Coeff:     -0.744D-05 0.651D-04-0.185D-03 0.563D-03-0.343D-02 0.224D-01
 Coeff:     -0.922D-01 0.283D+00-0.685D+00 0.147D+01
 Gap=     0.386 Goal=   None    Shift=    0.000
 RMSDP=1.14D-07 MaxDP=7.52D-07 DE=-1.16D-10 OVMax= 1.03D-06

 Cycle  11  Pass 1  IDiag  3:
 E=-0.733046592851139E-01 Delta-E=       -0.000000000003 Rises=F Damp=F
 DIIS: error= 1.51D-08 at cycle  11 NSaved=  11.
 NSaved=11 IEnMin=11 EnMin=-0.733046592851139E-01 IErMin=11 ErrMin= 1.51D-08
 ErrMax= 1.51D-08  0.00D+00 EMaxC= 1.00D-01 BMatC= 1.68D-14 BMatP= 5.22D-13
 IDIUse=1 WtCom= 1.00D+00 WtEn= 0.00D+00
 Coeff-Com:  0.278D-05-0.234D-04 0.664D-04-0.203D-03 0.115D-02-0.740D-02
 Coeff-Com:  0.305D-01-0.932D-01 0.228D+00-0.584D+00 0.142D+01
 Coeff:      0.278D-05-0.234D-04 0.664D-04-0.203D-03 0.115D-02-0.740D-02
 Coeff:      0.305D-01-0.932D-01 0.228D+00-0.584D+00 0.142D+01
 Gap=     0.386 Goal=   None    Shift=    0.000
 RMSDP=1.73D-08 MaxDP=7.96D-08 DE=-2.77D-12 OVMax= 1.01D-07

 Cycle  12  Pass 1  IDiag  3:
 E=-0.733046592848865E-01 Delta-E=        0.000000000000 Rises=F Damp=F
 DIIS: error= 2.12D-09 at cycle  12 NSaved=  12.
 NSaved=12 IEnMin=11 EnMin=-0.733046592851139E-01 IErMin=12 ErrMin= 2.12D-09
 ErrMax= 2.12D-09  0.00D+00 EMaxC= 1.00D-01 BMatC= 5.56D-16 BMatP= 1.68D-14
 IDIUse=1 WtCom= 1.00D+00 WtEn= 0.00D+00
 Coeff-Com: -0.697D-06 0.615D-05-0.172D-04 0.536D-04-0.301D-03 0.196D-02
 Coeff-Com: -0.807D-02 0.245D-01-0.594D-01 0.158D+00-0.512D+00 0.140D+01
 Coeff:     -0.697D-06 0.615D-05-0.172D-04 0.536D-04-0.301D-03 0.196D-02
 Coeff:     -0.807D-02 0.245D-01-0.594D-01 0.158D+00-0.512D+00 0.140D+01
 Gap=     0.386 Goal=   None    Shift=    0.000
 RMSDP=3.33D-09 MaxDP=1.76D-08 DE= 2.27D-13 OVMax= 1.48D-08

 Cycle  13  Pass 2  IDiag  1:
 SCF Done:  E(RAM1) = -0.733046592849E-01 A.U. after   13 cycles
            NFock= 12  Conv=0.33D-08     -V/T= 0.9955
 KE=-1.623076758940D+01 PE=-1.691031028468D+02 EE= 8.364728846376D+01
 Leave Link  502 at Thu Dec 24 04:54:11 2015, MaxMem=    33554432 cpu:         0.0
 (Enter /home/Applications/g09/g09/l601.exe)
 Copying SCF densities to generalized density rwf, IOpCl= 0 IROHF=0.

 **********************************************************************

            Population analysis using the SCF density.

 **********************************************************************

 Orbital symmetries:
       Occupied  (A) (A) (A) (A) (A) (A) (A) (A) (A) (A) (A) (A)
                 (A)
       Virtual   (A) (A) (A) (A) (A) (A) (A) (A) (A) (A) (A)
 The electronic state is 1-A.
 Alpha  occ. eigenvalues --   -1.60430  -1.15226  -1.03372  -0.76981  -0.73361
 Alpha  occ. eigenvalues --   -0.64684  -0.54693  -0.52612  -0.46832  -0.45933
 Alpha  occ. eigenvalues --   -0.43687  -0.33603  -0.30550
 Alpha virt. eigenvalues --    0.08083   0.12024   0.17598   0.19321   0.20883
 Alpha virt. eigenvalues --    0.21796   0.24428   0.25297   0.28176   0.29333
 Alpha virt. eigenvalues --    0.31357
          Condensed to atoms (all electrons):
               1          2          3          4          5          6
     1  C    3.985481   0.000000   0.000000   0.000000   0.000000   0.000000
     2  C    0.000000   4.056205   0.000000   0.000000   0.000000   0.000000
     3  O    0.000000   0.000000   5.990554   0.000000   0.000000   0.000000
     4  C    0.000000   0.000000   0.000000   4.048358   0.000000   0.000000
     5  C    0.000000   0.000000   0.000000   0.000000   3.992939   0.000000
     6  H    0.000000   0.000000   0.000000   0.000000   0.000000   0.999382
     7  H    0.000000   0.000000   0.000000   0.000000   0.000000   0.000000
     8  H    0.000000   0.000000   0.000000   0.000000   0.000000   0.000000
     9  H    0.000000   0.000000   0.000000   0.000000   0.000000   0.000000
               7          8          9
     1  C    0.000000   0.000000   0.000000
     2  C    0.000000   0.000000   0.000000
     3  O    0.000000   0.000000   0.000000
     4  C    0.000000   0.000000   0.000000
     5  C    0.000000   0.000000   0.000000
     6  H    0.000000   0.000000   0.000000
     7  H    0.965552   0.000000   0.000000
     8  H    0.000000   0.963440   0.000000
     9  H    0.000000   0.000000   0.998090
 Mulliken charges:
               1
     1  C    0.014519
     2  C   -0.056205
     3  O    0.009446
     4  C   -0.048358
     5  C    0.007061
     6  H    0.000618
     7  H    0.034448
     8  H    0.036560
     9  H    0.001910
 Sum of Mulliken charges =   0.00000
 Mulliken charges with hydrogens summed into heavy atoms:
               1
     1  C    0.016429
     2  C   -0.019645
     3  O    0.009446
     4  C   -0.013910
     5  C    0.007679
 Charge=              0.0000 electrons
 Dipole moment (field-independent basis, Debye):
    X=             -0.0288    Y=              0.4313    Z=              0.0412  Tot=              0.4342
 N-N= 1.016132773131D+02 E-N=-1.691031028680D+02  KE=-1.623076758940D+01
 Leave Link  601 at Thu Dec 24 04:54:11 2015, MaxMem=    33554432 cpu:         0.0
 (Enter /home/Applications/g09/g09/l701.exe)
 Compute integral first derivatives.
 ... and contract with generalized density number  0.
 Leave Link  701 at Thu Dec 24 04:54:11 2015, MaxMem=    33554432 cpu:         0.0
 (Enter /home/Applications/g09/g09/l702.exe)
 L702 exits ... SP integral derivatives will be done elsewhere.
 Leave Link  702 at Thu Dec 24 04:54:11 2015, MaxMem=    33554432 cpu:         0.0
 (Enter /home/Applications/g09/g09/l703.exe)
 Compute integral first derivatives, UseDBF=F ICtDFT=           0.
 Integral derivatives from FoFJK, PRISM(SPDF).
 Calling FoFJK, ICntrl=      2127 FMM=F ISym2X=0 I1Cent= 0 IOpClX= 0 NMat=1 NMatS=1 NMatT=0.
 FoFJK:  IHMeth= 8 ICntrl=    2127 DoSepK=F KAlg= 0 I1Cent=   0 FoldK=F
 IRaf=         0 NMat=   1 IRICut=       1 DoRegI=T DoRafI=F ISym2E= 0.
 FoFCou: FMM=F IPFlag=           0 FMFlag=      100000 FMFlg1=         800
         NFxFlg=           0 DoJE=F BraDBF=F KetDBF=F FulRan=T
         wScrn=  0.000000 ICntrl=    2127 IOpCl=  0 I1Cent=           0 NGrid=           0
         NMat0=    1 NMatS0=      1 NMatT0=    0 NMatD0=    1 NMtDS0=    0 NMtDT0=    0
 Symmetry not used in FoFCou.
 Leave Link  703 at Thu Dec 24 04:54:11 2015, MaxMem=    33554432 cpu:         0.0
 (Enter /home/Applications/g09/g09/l716.exe)
 Dipole        =-1.13416696D-02 1.69697031D-01 1.61999679D-02
 ***** Axes restored to original set *****
 -------------------------------------------------------------------
 Center     Atomic                   Forces (Hartrees/Bohr)
 Number     Number              X              Y              Z
 -------------------------------------------------------------------
      1        6           0.046213067   -0.000913783    0.001947146
      2        6          -0.026078191   -0.050723164   -0.004978790
      3        8          -0.045272927   -0.011616363    0.002421689
      4        6          -0.013017825    0.066810058   -0.002674901
      5        6           0.053627056    0.001726896   -0.002978377
      6        1          -0.023661268   -0.015970778    0.001884336
      7        1           0.008783133   -0.007290523    0.001800979
      8        1           0.008225053    0.006041421    0.002128371
      9        1          -0.008818097    0.011936237    0.000449546
 -------------------------------------------------------------------
 Cartesian Forces:  Max     0.066810058 RMS     0.024658751
 Leave Link  716 at Thu Dec 24 04:54:11 2015, MaxMem=    33554432 cpu:         0.0
 (Enter /home/Applications/g09/g09/l103.exe)

 GradGradGradGradGradGradGradGradGradGradGradGradGradGradGradGradGradGrad
 Berny optimization.
 FormGI is forming the generalized inverse of G from B-inverse, IUseBI=4.
 Internal  Forces:  Max     0.049007624 RMS     0.014602244
 Search for a local minimum.
 Step number   1 out of a maximum of   48
 All quantities printed in internal units (Hartrees-Bohrs-Radians)
 RMS Force = .14602D-01 SwitMx=.10000D-02 MixMth= 1
 Mixed Optimization -- RFO/linear search
 Second derivative matrix not updated -- first step.
 ITU=  0
     Eigenvalues ---    0.02046   0.02218   0.02397   0.02596   0.02807
     Eigenvalues ---    0.02849   0.15977   0.15985   0.15991   0.16000
     Eigenvalues ---    0.22000   0.22880   0.34531   0.36890   0.37360
     Eigenvalues ---    0.37824   0.37930   0.46149   0.49550   0.55304
     Eigenvalues ---    0.59142
 RFO step:  Lambda=-1.67921020D-02 EMin= 2.04646289D-02
 Linear search not attempted -- first point.
 Iteration  1 RMS(Cart)=  0.03589626 RMS(Int)=  0.00078663
 Iteration  2 RMS(Cart)=  0.00067964 RMS(Int)=  0.00025388
 Iteration  3 RMS(Cart)=  0.00000042 RMS(Int)=  0.00025388
 ITry= 1 IFail=0 DXMaxC= 8.43D-02 DCOld= 1.00D+10 DXMaxT= 3.00D-01 DXLimC= 3.00D+00 Rises=F
 Variable       Old X    -DE/DX   Delta X   Delta X   Delta X     New X
                                 (Linear)    (Quad)   (Total)
    R1        2.51024   0.03989   0.00000   0.06350   0.06338   2.57362
    R2        2.72056   0.00328   0.00000   0.00252   0.00238   2.72294
    R3        2.02712  -0.01424   0.00000  -0.03692  -0.03692   1.99021
    R4        2.60588   0.03598   0.00000   0.07390   0.07396   2.67984
    R5        2.01168  -0.00928   0.00000  -0.02342  -0.02342   1.98826
    R6        2.56413   0.04901   0.00000   0.09208   0.09224   2.65638
    R7        2.51848   0.03358   0.00000   0.05472   0.05476   2.57324
    R8        2.02007  -0.01060   0.00000  -0.02715  -0.02715   1.99291
    R9        2.06443  -0.02858   0.00000  -0.07891  -0.07891   1.98552
    A1        1.85841   0.00628   0.00000   0.01355   0.01331   1.87172
    A2        2.20326   0.00112   0.00000   0.01730   0.01742   2.22069
    A3        2.22150  -0.00740   0.00000  -0.03086  -0.03074   2.19077
    A4        1.93216  -0.00450   0.00000  -0.01666  -0.01705   1.91510
    A5        2.35367  -0.00204   0.00000  -0.01503  -0.01535   2.33832
    A6        1.99597   0.00664   0.00000   0.03408   0.03377   2.02974
    A7        1.83973  -0.00355   0.00000   0.00368   0.00401   1.84374
    A8        1.95004  -0.00781   0.00000  -0.02890  -0.02886   1.92118
    A9        2.00318   0.00827   0.00000   0.03958   0.03934   2.04252
   A10        2.32928  -0.00042   0.00000  -0.00957  -0.00981   2.31947
   A11        1.84425   0.00959   0.00000   0.02894   0.02870   1.87295
   A12        2.18380  -0.00410   0.00000  -0.01017  -0.01028   2.17352
   A13        2.25462  -0.00545   0.00000  -0.01779  -0.01791   2.23671
    D1        0.01835  -0.00120   0.00000  -0.02967  -0.02976  -0.01142
    D2        3.09805   0.00121   0.00000   0.02451   0.02404   3.12209
    D3       -3.12539  -0.00126   0.00000  -0.02950  -0.02938   3.12842
    D4       -0.04569   0.00115   0.00000   0.02468   0.02443  -0.02126
    D5       -0.01166   0.00074   0.00000   0.01833   0.01848   0.00682
    D6       -3.12164  -0.00053   0.00000  -0.01201  -0.01188  -3.13352
    D7        3.13210   0.00079   0.00000   0.01808   0.01802  -3.13306
    D8        0.02213  -0.00048   0.00000  -0.01226  -0.01234   0.00979
    D9       -0.01787   0.00130   0.00000   0.02937   0.02944   0.01158
   D10       -3.11131  -0.00033   0.00000  -0.01130  -0.01221  -3.12353
   D11        0.01003  -0.00067   0.00000  -0.01679  -0.01720  -0.00716
   D12        3.11729   0.00045   0.00000   0.01091   0.01127   3.12856
   D13        0.00073  -0.00003   0.00000  -0.00053  -0.00030   0.00043
   D14        3.10895   0.00136   0.00000   0.03173   0.03174   3.14070
   D15       -3.09792  -0.00161   0.00000  -0.03637  -0.03612  -3.13403
   D16        0.01031  -0.00022   0.00000  -0.00411  -0.00407   0.00624
         Item               Value     Threshold  Converged?
 Maximum Force            0.049008     0.000450     NO 
 RMS     Force            0.014602     0.000300     NO 
 Maximum Displacement     0.084261     0.001800     NO 
 RMS     Displacement     0.035619     0.001200     NO 
 Predicted change in Energy=-8.763991D-03
 Lowest energy point so far.  Saving SCF results.
 GradGradGradGradGradGradGradGradGradGradGradGradGradGradGradGradGradGrad

 Leave Link  103 at Thu Dec 24 04:54:11 2015, MaxMem=    33554432 cpu:         0.0
 (Enter /home/Applications/g09/g09/l202.exe)
                          Input orientation:                          
 ---------------------------------------------------------------------
 Center     Atomic      Atomic             Coordinates (Angstroms)
 Number     Number       Type             X           Y           Z
 ---------------------------------------------------------------------
      1          6           0        0.952518   -0.716940    0.002914
      2          6           0       -0.346187   -1.126976    0.005135
      3          8           0       -1.204502    0.001770    0.021322
      4          6           0       -0.356465    1.122814    0.013175
      5          6           0        0.945467    0.723961    0.002389
      6          1           0        1.808057    1.323807   -0.006197
      7          1           0       -0.816554    2.071763    0.010817
      8          1           0       -0.814952   -2.068820   -0.008534
      9          1           0        1.812673   -1.324645    0.003244
 ---------------------------------------------------------------------
                    Distance matrix (angstroms):
                    1          2          3          4          5
     1  C    0.000000
     2  C    1.361899   0.000000
     3  O    2.273679   1.418109   0.000000
     4  C    2.257927   2.249828   1.405693   0.000000
     5  C    1.440918   2.257065   2.268101   1.361699   0.000000
     6  H    2.212844   3.263010   3.289992   2.173920   1.050691
     7  H    3.302505   3.233142   2.106059   1.054605   2.218414
     8  H    2.225233   1.052140   2.107126   3.224471   3.301336
     9  H    1.053172   2.167891   3.295913   3.270369   2.224597
                    6          7          8          9
     6  H    0.000000
     7  H    2.729159   0.000000
     8  H    4.288368   4.140629   0.000000
     9  H    2.648473   4.295169   2.730998   0.000000
 Stoichiometry    C4H4O
 Framework group  C1[X(C4H4O)]
 Deg. of freedom    21
 Full point group                 C1      NOp   1
 RotChk:  IX=0 Diff= 3.81D-02
 Largest Abelian subgroup         C1      NOp   1
 Largest concise Abelian subgroup C1      NOp   1
                         Standard orientation:                         
 ---------------------------------------------------------------------
 Center     Atomic      Atomic             Coordinates (Angstroms)
 Number     Number       Type             X           Y           Z
 ---------------------------------------------------------------------
      1          6           0       -0.762807    0.930632   -0.002545
      2          6           0       -1.110875   -0.386025    0.003137
      3          8           0        0.057290   -1.189994   -0.004529
      4          6           0        1.136892   -0.289766    0.000468
      5          6           0        0.676804    0.991851    0.001422
      6          1           0        1.235104    1.881928    0.005531
      7          1           0        2.106554   -0.704359    0.008203
      8          1           0       -2.029497   -0.898780    0.017789
      9          1           0       -1.410561    1.761011   -0.010181
 ---------------------------------------------------------------------
 Rotational constants (GHZ):      9.1940539      9.0824167      4.5690341
 Leave Link  202 at Thu Dec 24 04:54:11 2015, MaxMem=    33554432 cpu:         0.0
 (Enter /home/Applications/g09/g09/l301.exe)

 Semi-emprical parameters in input format:
 Method=8 CoreType=1 PeptideFC=0.0114510000 RIJScale=0.5291770000
 ****
 H       
 PQN=1 NValence=1 F0ss=0.4721550000 ZetaOverlap=1.1880780000 U=-0.4849220000
 Beta=-0.2609800000 CoreKO=1.0589200000 KON=0,0,0,1.0589200000 KON=1,0,1,1.0589200000
 KON=0,1,1,1.0589200000 KON=2,1,1,1.0589200000 EISol=-0.4188110042 EHeat=0.0830298228
 Alpha=1.5252600000
 GCore=0.0101030000,1.2837820000,2.2676710000
 GCore=0.0003530000,1.4001430000,2.7653400000
 GCore=-0.0012730000,0.5600570000,3.9684250000
 ****
 C       
 PQN=2,2 NValence=4 F0ss=0.4966660000 F0sp=0.4393990000 F0pp=0.3768030000 F2pp=0.1954550000
 G1sp=0.2679030000
 ZetaOverlap=1.8086650000,1.6851160000
 U=-1.9120180000,-1.4528800000
 Beta=-0.5775440000,-0.2716710000 DDN=0,1,0.9413200000 DDN=1,1,0.7268010000
 CoreKO=1.2773040000 KON=0,0,0,1.1124280000 KON=1,0,1,0.8219700000 KON=0,1,1,1.1124280000
 KON=2,1,1,0.7783930000 EISol=-4.4398989268 EHeat=0.2723305520 Alpha=1.4014060000
 DipHyp=1.8825316901
 GCore=0.0007890000,1.1698590000,3.0235620000
 GCore=0.0031890000,1.4001430000,3.4959930000
 GCore=-0.0015080000,1.4001430000,3.7716690000
 GCore=-0.0000890000,1.4001430000,4.6065730000
 ****
 O       
 PQN=2,2 NValence=6 F0ss=0.5250100000 F0sp=0.5321300000 F0pp=0.4958710000 F2pp=0.2639600000
 G1sp=0.4343770000
 ZetaOverlap=2.4866760000,2.5240390000
 U=-3.5951870000,-2.8760900000
 Beta=-1.0757550000,-1.0757550000 DDN=0,1,0.4988900000 DDN=1,1,0.4852320000
 CoreKO=0.8822960000 KON=0,0,0,1.0261780000 KON=1,0,1,0.5019540000 KON=0,1,1,0.8822960000
 KON=2,1,1,0.6473590000 EISol=-11.6164441184 EHeat=0.0949133088 Alpha=2.8029290000
 DipHyp=0.9977225968
 GCore=0.0198630000,1.4001430000,1.9159220000
 GCore=0.0056550000,1.5903000000,2.7307880000
 ****
 
 Standard basis: VSTO-6G (5D, 7F)
 Ernie: Thresh=  0.10000D-02 Tol=  0.10000D-05 Strict=F.
  NNHCO=     0 NNPyr=     0 NCTC=     0               EPep=         0.000000000
    EC=        66.079531629  ECS=         1.685363620   EG=         0.431939649
   EHC=         0.000000000  EAt=       -31.051283842  AtH=         1.516354808
 EPDDG=         0.000000000  ECC=        68.196834898 EAtT=        32.567638650
 There are    24 symmetry adapted cartesian basis functions of A   symmetry.
 There are    24 symmetry adapted basis functions of A   symmetry.
    24 basis functions,   144 primitive gaussians,    24 cartesian basis functions
    13 alpha electrons       13 beta electrons
       nuclear repulsion energy       100.7644735485 Hartrees.
 IExCor=    0 DFT=F Ex=HF Corr=None ExCW=0 ScaHFX=  1.000000
 ScaDFX=  1.000000  1.000000  1.000000  1.000000 ScalE2=  1.000000  1.000000
 IRadAn=      0 IRanWt=     -1 IRanGd=            0 ICorTp=0 IEmpDi=  4
 Integral buffers will be    131072 words long.
 Regular integral format.
 Two-electron integral symmetry is turned off.
 Leave Link  301 at Thu Dec 24 04:54:12 2015, MaxMem=    33554432 cpu:         0.0
 (Enter /home/Applications/g09/g09/l302.exe)
 Do NDO integrals.
 NPDir=0 NMtPBC=     1 NCelOv=     1 NCel=       1 NClECP=     1 NCelD=      1
         NCelK=      1 NCelE2=     1 NClLst=     1 CellRange=     0.0.
 One-electron integrals computed using PRISM.
 NBasis=    24 RedAO= F EigKep=  0.00D+00  NBF=    24
 NBsUse=    24 1.00D-04 EigRej=  0.00D+00 NBFU=    24
 Leave Link  302 at Thu Dec 24 04:54:12 2015, MaxMem=    33554432 cpu:         0.0
 (Enter /home/Applications/g09/g09/l303.exe)
 DipDrv:  MaxL=1.
 Leave Link  303 at Thu Dec 24 04:54:12 2015, MaxMem=    33554432 cpu:         0.0
 (Enter /home/Applications/g09/g09/l401.exe)
 Initial guess from the checkpoint file:  "/home/Applications/g09/scratch/Gau-24743.chk"
 B after Tr=     0.000000    0.000000    0.000000
         Rot=    0.999903    0.000042    0.000012   -0.013947 Ang=   1.60 deg.
 Guess basis will be translated and rotated to current coordinates.
 JPrj=0 DoOrth=T DoCkMO=T.
 Leave Link  401 at Thu Dec 24 04:54:12 2015, MaxMem=    33554432 cpu:         0.0
 (Enter /home/Applications/g09/g09/l502.exe)
 Closed shell SCF:
 Using DIIS extrapolation, IDIIS=  1040.
 Overlap will be assumed to be unity.
 Two-electron integral symmetry not used.
 Keep J ints in memory in canonical form, NReq=888082.
 IVT=       79475 IEndB=       79475 NGot=    33554432 MDV=    33473473
 LenX=    33473473 LenY=    33472456
 Requested convergence on RMS density matrix=1.00D-08 within 128 cycles.
 Requested convergence on MAX density matrix=1.00D-06.
 Requested convergence on             energy=1.00D-06.
 No special actions if energy rises.
 FoFCou: FMM=F IPFlag=           0 FMFlag=           0 FMFlg1=           0
         NFxFlg=           0 DoJE=F BraDBF=F KetDBF=F FulRan=T
         wScrn=  0.000000 ICntrl=     600 IOpCl=  2 I1Cent=           0 NGrid=           0
         NMat0=    1 NMatS0=     54 NMatT0=    0 NMatD0=    1 NMtDS0=    0 NMtDT0=    0
 Symmetry not used in FoFCou.

 Cycle   1  Pass 1  IDiag  1:
 E=-0.774823877149515E-01
 DIIS: error= 4.77D-03 at cycle   1 NSaved=   1.
 NSaved= 1 IEnMin= 1 EnMin=-0.774823877149515E-01 IErMin= 1 ErrMin= 4.77D-03
 ErrMax= 4.77D-03  0.00D+00 EMaxC= 1.00D-01 BMatC= 1.11D-03 BMatP= 1.11D-03
 IDIUse=3 WtCom= 9.52D-01 WtEn= 4.77D-02
 Coeff-Com:  0.100D+01
 Coeff-En:   0.100D+01
 Coeff:      0.100D+01
 GapD=    2.000 DampG=2.000 DampE=1.000 DampFc=2.0000 IDamp=-1.
 RMSDP=2.03D-03 MaxDP=8.90D-03              OVMax= 0.00D+00

 Cycle   2  Pass 1  IDiag  3:
 E=-0.801538792798624E-01 Delta-E=       -0.002671491565 Rises=F Damp=F
 DIIS: error= 1.09D-03 at cycle   2 NSaved=   2.
 NSaved= 2 IEnMin= 2 EnMin=-0.801538792798624E-01 IErMin= 2 ErrMin= 1.09D-03
 ErrMax= 1.09D-03  0.00D+00 EMaxC= 1.00D-01 BMatC= 7.85D-05 BMatP= 1.11D-03
 IDIUse=3 WtCom= 9.89D-01 WtEn= 1.09D-02
 Coeff-Com: -0.267D+00 0.127D+01
 Coeff-En:   0.000D+00 0.100D+01
 Coeff:     -0.264D+00 0.126D+01
 Gap=     0.372 Goal=   None    Shift=    0.000
 RMSDP=8.07D-04 MaxDP=2.89D-03 DE=-2.67D-03 OVMax= 4.45D-03

 Cycle   3  Pass 1  IDiag  3:
 E=-0.804330105036826E-01 Delta-E=       -0.000279131224 Rises=F Damp=F
 DIIS: error= 2.24D-04 at cycle   3 NSaved=   3.
 NSaved= 3 IEnMin= 3 EnMin=-0.804330105036826E-01 IErMin= 3 ErrMin= 2.24D-04
 ErrMax= 2.24D-04  0.00D+00 EMaxC= 1.00D-01 BMatC= 3.82D-06 BMatP= 7.85D-05
 IDIUse=3 WtCom= 9.98D-01 WtEn= 2.24D-03
 Coeff-Com:  0.361D-01-0.314D+00 0.128D+01
 Coeff-En:   0.000D+00 0.000D+00 0.100D+01
 Coeff:      0.360D-01-0.313D+00 0.128D+01
 Gap=     0.371 Goal=   None    Shift=    0.000
 RMSDP=2.42D-04 MaxDP=8.76D-04 DE=-2.79D-04 OVMax= 1.22D-03

 Cycle   4  Pass 1  IDiag  3:
 E=-0.804525204945747E-01 Delta-E=       -0.000019509991 Rises=F Damp=F
 DIIS: error= 7.19D-05 at cycle   4 NSaved=   4.
 NSaved= 4 IEnMin= 4 EnMin=-0.804525204945747E-01 IErMin= 4 ErrMin= 7.19D-05
 ErrMax= 7.19D-05  0.00D+00 EMaxC= 1.00D-01 BMatC= 2.92D-07 BMatP= 3.82D-06
 IDIUse=1 WtCom= 1.00D+00 WtEn= 0.00D+00
 Coeff-Com:  0.772D-02 0.811D-02-0.373D+00 0.136D+01
 Coeff:      0.772D-02 0.811D-02-0.373D+00 0.136D+01
 Gap=     0.371 Goal=   None    Shift=    0.000
 RMSDP=8.48D-05 MaxDP=3.93D-04 DE=-1.95D-05 OVMax= 5.75D-04

 Cycle   5  Pass 1  IDiag  3:
 E=-0.804543668684090E-01 Delta-E=       -0.000001846374 Rises=F Damp=F
 DIIS: error= 1.82D-05 at cycle   5 NSaved=   5.
 NSaved= 5 IEnMin= 5 EnMin=-0.804543668684090E-01 IErMin= 5 ErrMin= 1.82D-05
 ErrMax= 1.82D-05  0.00D+00 EMaxC= 1.00D-01 BMatC= 2.29D-08 BMatP= 2.92D-07
 IDIUse=1 WtCom= 1.00D+00 WtEn= 0.00D+00
 Coeff-Com: -0.575D-02 0.624D-02 0.181D+00-0.886D+00 0.170D+01
 Coeff:     -0.575D-02 0.624D-02 0.181D+00-0.886D+00 0.170D+01
 Gap=     0.371 Goal=   None    Shift=    0.000
 RMSDP=3.14D-05 MaxDP=1.62D-04 DE=-1.85D-06 OVMax= 2.55D-04

 Cycle   6  Pass 1  IDiag  3:
 E=-0.804545435446613E-01 Delta-E=       -0.000000176676 Rises=F Damp=F
 DIIS: error= 5.96D-06 at cycle   6 NSaved=   6.
 NSaved= 6 IEnMin= 6 EnMin=-0.804545435446613E-01 IErMin= 6 ErrMin= 5.96D-06
 ErrMax= 5.96D-06  0.00D+00 EMaxC= 1.00D-01 BMatC= 9.37D-10 BMatP= 2.29D-08
 IDIUse=1 WtCom= 1.00D+00 WtEn= 0.00D+00
 Coeff-Com:  0.352D-02-0.535D-02-0.961D-01 0.498D+00-0.107D+01 0.167D+01
 Coeff:      0.352D-02-0.535D-02-0.961D-01 0.498D+00-0.107D+01 0.167D+01
 Gap=     0.371 Goal=   None    Shift=    0.000
 RMSDP=6.93D-06 MaxDP=5.29D-05 DE=-1.77D-07 OVMax= 7.18D-05

 Cycle   7  Pass 1  IDiag  3:
 E=-0.804545514516377E-01 Delta-E=       -0.000000007907 Rises=F Damp=F
 DIIS: error= 1.52D-06 at cycle   7 NSaved=   7.
 NSaved= 7 IEnMin= 7 EnMin=-0.804545514516377E-01 IErMin= 7 ErrMin= 1.52D-06
 ErrMax= 1.52D-06  0.00D+00 EMaxC= 1.00D-01 BMatC= 4.84D-11 BMatP= 9.37D-10
 IDIUse=1 WtCom= 1.00D+00 WtEn= 0.00D+00
 Coeff-Com: -0.164D-02 0.253D-02 0.446D-01-0.233D+00 0.512D+00-0.926D+00
 Coeff-Com:  0.160D+01
 Coeff:     -0.164D-02 0.253D-02 0.446D-01-0.233D+00 0.512D+00-0.926D+00
 Coeff:      0.160D+01
 Gap=     0.371 Goal=   None    Shift=    0.000
 RMSDP=1.64D-06 MaxDP=1.43D-05 DE=-7.91D-09 OVMax= 1.78D-05

 Cycle   8  Pass 1  IDiag  3:
 E=-0.804545518931405E-01 Delta-E=       -0.000000000442 Rises=F Damp=F
 DIIS: error= 3.94D-07 at cycle   8 NSaved=   8.
 NSaved= 8 IEnMin= 8 EnMin=-0.804545518931405E-01 IErMin= 8 ErrMin= 3.94D-07
 ErrMax= 3.94D-07  0.00D+00 EMaxC= 1.00D-01 BMatC= 3.43D-12 BMatP= 4.84D-11
 IDIUse=1 WtCom= 1.00D+00 WtEn= 0.00D+00
 Coeff-Com:  0.756D-03-0.115D-02-0.205D-01 0.107D+00-0.235D+00 0.436D+00
 Coeff-Com: -0.932D+00 0.165D+01
 Coeff:      0.756D-03-0.115D-02-0.205D-01 0.107D+00-0.235D+00 0.436D+00
 Coeff:     -0.932D+00 0.165D+01
 Gap=     0.371 Goal=   None    Shift=    0.000
 RMSDP=4.73D-07 MaxDP=4.17D-06 DE=-4.42D-10 OVMax= 5.20D-06

 Cycle   9  Pass 1  IDiag  3:
 E=-0.804545519254134E-01 Delta-E=       -0.000000000032 Rises=F Damp=F
 DIIS: error= 6.72D-08 at cycle   9 NSaved=   9.
 NSaved= 9 IEnMin= 9 EnMin=-0.804545519254134E-01 IErMin= 9 ErrMin= 6.72D-08
 ErrMax= 6.72D-08  0.00D+00 EMaxC= 1.00D-01 BMatC= 1.85D-13 BMatP= 3.43D-12
 IDIUse=1 WtCom= 1.00D+00 WtEn= 0.00D+00
 Coeff-Com: -0.229D-03 0.331D-03 0.636D-02-0.328D-01 0.722D-01-0.136D+00
 Coeff-Com:  0.318D+00-0.738D+00 0.151D+01
 Coeff:     -0.229D-03 0.331D-03 0.636D-02-0.328D-01 0.722D-01-0.136D+00
 Coeff:      0.318D+00-0.738D+00 0.151D+01
 Gap=     0.371 Goal=   None    Shift=    0.000
 RMSDP=9.48D-08 MaxDP=7.13D-07 DE=-3.23D-11 OVMax= 9.11D-07

 Cycle  10  Pass 1  IDiag  3:
 E=-0.804545519271329E-01 Delta-E=       -0.000000000002 Rises=F Damp=F
 DIIS: error= 1.01D-08 at cycle  10 NSaved=  10.
 NSaved=10 IEnMin=10 EnMin=-0.804545519271329E-01 IErMin=10 ErrMin= 1.01D-08
 ErrMax= 1.01D-08  0.00D+00 EMaxC= 1.00D-01 BMatC= 9.36D-15 BMatP= 1.85D-13
 IDIUse=1 WtCom= 1.00D+00 WtEn= 0.00D+00
 Coeff-Com:  0.477D-04-0.672D-04-0.134D-02 0.684D-02-0.152D-01 0.293D-01
 Coeff-Com: -0.761D-01 0.207D+00-0.618D+00 0.147D+01
 Coeff:      0.477D-04-0.672D-04-0.134D-02 0.684D-02-0.152D-01 0.293D-01
 Coeff:     -0.761D-01 0.207D+00-0.618D+00 0.147D+01
 Gap=     0.371 Goal=   None    Shift=    0.000
 RMSDP=1.96D-08 MaxDP=1.22D-07 DE=-1.72D-12 OVMax= 1.83D-07

 Cycle  11  Pass 1  IDiag  3:
 E=-0.804545519273034E-01 Delta-E=        0.000000000000 Rises=F Damp=F
 DIIS: error= 1.91D-09 at cycle  11 NSaved=  11.
 NSaved=11 IEnMin=11 EnMin=-0.804545519273034E-01 IErMin=11 ErrMin= 1.91D-09
 ErrMax= 1.91D-09  0.00D+00 EMaxC= 1.00D-01 BMatC= 3.31D-16 BMatP= 9.36D-15
 IDIUse=1 WtCom= 1.00D+00 WtEn= 0.00D+00
 Coeff-Com: -0.704D-05 0.868D-05 0.207D-03-0.103D-02 0.231D-02-0.471D-02
 Coeff-Com:  0.145D-01-0.456D-01 0.166D+00-0.532D+00 0.140D+01
 Coeff:     -0.704D-05 0.868D-05 0.207D-03-0.103D-02 0.231D-02-0.471D-02
 Coeff:      0.145D-01-0.456D-01 0.166D+00-0.532D+00 0.140D+01
 Gap=     0.371 Goal=   None    Shift=    0.000
 RMSDP=2.90D-09 MaxDP=1.66D-08 DE=-1.71D-13 OVMax= 1.95D-08

 Cycle  12  Pass 2  IDiag  1:
 SCF Done:  E(RAM1) = -0.804545519273E-01 A.U. after   12 cycles
            NFock= 11  Conv=0.29D-08     -V/T= 0.9950
 KE=-1.612166578711D+01 PE=-1.677387752210D+02 EE= 8.301551290769D+01
 Leave Link  502 at Thu Dec 24 04:54:12 2015, MaxMem=    33554432 cpu:         0.0
 (Enter /home/Applications/g09/g09/l701.exe)
 Compute integral first derivatives.
 ... and contract with generalized density number  0.
 Leave Link  701 at Thu Dec 24 04:54:12 2015, MaxMem=    33554432 cpu:         0.0
 (Enter /home/Applications/g09/g09/l702.exe)
 L702 exits ... SP integral derivatives will be done elsewhere.
 Leave Link  702 at Thu Dec 24 04:54:12 2015, MaxMem=    33554432 cpu:         0.0
 (Enter /home/Applications/g09/g09/l703.exe)
 Compute integral first derivatives, UseDBF=F ICtDFT=           0.
 Integral derivatives from FoFJK, PRISM(SPDF).
 Calling FoFJK, ICntrl=      2127 FMM=F ISym2X=0 I1Cent= 0 IOpClX= 0 NMat=1 NMatS=1 NMatT=0.
 FoFJK:  IHMeth= 8 ICntrl=    2127 DoSepK=F KAlg= 0 I1Cent=   0 FoldK=F
 IRaf=         0 NMat=   1 IRICut=       1 DoRegI=T DoRafI=F ISym2E= 0.
 FoFCou: FMM=F IPFlag=           0 FMFlag=      100000 FMFlg1=         800
         NFxFlg=           0 DoJE=F BraDBF=F KetDBF=F FulRan=T
         wScrn=  0.000000 ICntrl=    2127 IOpCl=  0 I1Cent=           0 NGrid=           0
         NMat0=    1 NMatS0=      1 NMatT0=    0 NMatD0=    1 NMtDS0=    0 NMtDT0=    0
 Symmetry not used in FoFCou.
 Leave Link  703 at Thu Dec 24 04:54:12 2015, MaxMem=    33554432 cpu:         0.0
 (Enter /home/Applications/g09/g09/l716.exe)
 Dipole        =-1.49357934D-02 2.69175318D-01 4.25513612D-03
 ***** Axes restored to original set *****
 -------------------------------------------------------------------
 Center     Atomic                   Forces (Hartrees/Bohr)
 Number     Number              X              Y              Z
 -------------------------------------------------------------------
      1        6          -0.013240542    0.006404485   -0.000246393
      2        6           0.007139974    0.006774883    0.000372682
      3        8           0.003013645   -0.004786409   -0.001020399
      4        6           0.010866583    0.000390172   -0.000359972
      5        6          -0.010461323   -0.009826668    0.000529740
      6        1          -0.000224303    0.001350274    0.000095259
      7        1           0.001625147   -0.006530673    0.000369999
      8        1           0.002057840    0.005033217    0.000629800
      9        1          -0.000777021    0.001190719   -0.000370717
 -------------------------------------------------------------------
 Cartesian Forces:  Max     0.013240542 RMS     0.005272296
 Leave Link  716 at Thu Dec 24 04:54:12 2015, MaxMem=    33554432 cpu:         0.0
 (Enter /home/Applications/g09/g09/l103.exe)

 GradGradGradGradGradGradGradGradGradGradGradGradGradGradGradGradGradGrad
 Berny optimization.
 Using GEDIIS/GDIIS optimizer.
 FormGI is forming the generalized inverse of G from B-inverse, IUseBI=4.
 Internal  Forces:  Max     0.013022539 RMS     0.004094767
 Search for a local minimum.
 Step number   2 out of a maximum of   48
 All quantities printed in internal units (Hartrees-Bohrs-Radians)
 RMS Force = .40948D-02 SwitMx=.10000D-02 MixMth= 1
 Mixed Optimization -- RFO/linear search
 Update second derivatives using D2CorX and points    1    2
 DE= -7.15D-03 DEPred=-8.76D-03 R= 8.16D-01
 TightC=F SS=  1.41D+00  RLast= 2.11D-01 DXNew= 5.0454D-01 6.3187D-01
 Trust test= 8.16D-01 RLast= 2.11D-01 DXMaxT set to 5.05D-01
 ITU=  1  0
 Use linear search instead of GDIIS.
     Eigenvalues ---    0.02050   0.02220   0.02398   0.02621   0.02795
     Eigenvalues ---    0.02842   0.15888   0.16000   0.16000   0.16158
     Eigenvalues ---    0.22015   0.23066   0.32315   0.36005   0.37202
     Eigenvalues ---    0.37675   0.37974   0.47050   0.50309   0.55146
     Eigenvalues ---    0.73531
 RFO step:  Lambda=-8.54856704D-04 EMin= 2.05016813D-02
 Quartic linear search produced a step of -0.12012.
 Iteration  1 RMS(Cart)=  0.01129575 RMS(Int)=  0.00007523
 Iteration  2 RMS(Cart)=  0.00005633 RMS(Int)=  0.00004880
 Iteration  3 RMS(Cart)=  0.00000000 RMS(Int)=  0.00004880
 ITry= 1 IFail=0 DXMaxC= 2.80D-02 DCOld= 1.00D+10 DXMaxT= 5.05D-01 DXLimC= 3.00D+00 Rises=F
 Variable       Old X    -DE/DX   Delta X   Delta X   Delta X     New X
                                 (Linear)    (Quad)   (Total)
    R1        2.57362  -0.01302  -0.00761  -0.00882  -0.01641   2.55720
    R2        2.72294  -0.01138  -0.00029  -0.02564  -0.02590   2.69704
    R3        1.99021  -0.00132   0.00443  -0.00941  -0.00498   1.98523
    R4        2.67984  -0.00838  -0.00888  -0.00207  -0.01096   2.66887
    R5        1.98826  -0.00543   0.00281  -0.01654  -0.01373   1.97453
    R6        2.65638  -0.00244  -0.01108   0.01242   0.00131   2.65769
    R7        2.57324  -0.01255  -0.00658  -0.00926  -0.01584   2.55740
    R8        1.99291  -0.00659   0.00326  -0.02008  -0.01682   1.97609
    R9        1.98552   0.00059   0.00948  -0.01190  -0.00242   1.98309
    A1        1.87172   0.00169  -0.00160   0.00580   0.00420   1.87593
    A2        2.22069  -0.00032  -0.00209   0.00401   0.00190   2.22259
    A3        2.19077  -0.00137   0.00369  -0.00982  -0.00615   2.18462
    A4        1.91510   0.00134   0.00205   0.00133   0.00340   1.91850
    A5        2.33832  -0.00027   0.00184  -0.00258  -0.00069   2.33764
    A6        2.02974  -0.00108  -0.00406   0.00127  -0.00274   2.02700
    A7        1.84374  -0.00363  -0.00048  -0.00951  -0.01008   1.83366
    A8        1.92118   0.00047   0.00347  -0.00141   0.00202   1.92320
    A9        2.04252  -0.00162  -0.00473  -0.00270  -0.00738   2.03514
   A10        2.31947   0.00115   0.00118   0.00416   0.00538   2.32485
   A11        1.87295   0.00014  -0.00345   0.00396   0.00052   1.87347
   A12        2.17352   0.00116   0.00124   0.00539   0.00665   2.18016
   A13        2.23671  -0.00130   0.00215  -0.00934  -0.00716   2.22955
    D1       -0.01142   0.00047   0.00358   0.01315   0.01681   0.00539
    D2        3.12209   0.00035  -0.00289   0.01597   0.01319   3.13527
    D3        3.12842   0.00026   0.00353   0.00473   0.00826   3.13668
    D4       -0.02126   0.00015  -0.00293   0.00755   0.00464  -0.01662
    D5        0.00682  -0.00033  -0.00222  -0.00917  -0.01140  -0.00458
    D6       -3.13352  -0.00026   0.00143  -0.01313  -0.01173   3.13794
    D7       -3.13306  -0.00013  -0.00216  -0.00095  -0.00309  -3.13615
    D8        0.00979  -0.00006   0.00148  -0.00491  -0.00343   0.00637
    D9        0.01158  -0.00046  -0.00354  -0.01218  -0.01569  -0.00412
   D10       -3.12353  -0.00037   0.00147  -0.01442  -0.01279  -3.13632
   D11       -0.00716   0.00024   0.00207   0.00620   0.00831   0.00115
   D12        3.12856   0.00036  -0.00135   0.01451   0.01306  -3.14156
   D13        0.00043   0.00006   0.00004   0.00164   0.00161   0.00203
   D14        3.14070  -0.00001  -0.00381   0.00580   0.00197  -3.14052
   D15       -3.13403  -0.00007   0.00434  -0.00842  -0.00415  -3.13818
   D16        0.00624  -0.00014   0.00049  -0.00426  -0.00379   0.00245
         Item               Value     Threshold  Converged?
 Maximum Force            0.013023     0.000450     NO 
 RMS     Force            0.004095     0.000300     NO 
 Maximum Displacement     0.027955     0.001800     NO 
 RMS     Displacement     0.011313     0.001200     NO 
 Predicted change in Energy=-5.612066D-04
 Lowest energy point so far.  Saving SCF results.
 GradGradGradGradGradGradGradGradGradGradGradGradGradGradGradGradGradGrad

 Leave Link  103 at Thu Dec 24 04:54:12 2015, MaxMem=    33554432 cpu:         0.0
 (Enter /home/Applications/g09/g09/l202.exe)
                          Input orientation:                          
 ---------------------------------------------------------------------
 Center     Atomic      Atomic             Coordinates (Angstroms)
 Number     Number       Type             X           Y           Z
 ---------------------------------------------------------------------
      1          6           0        0.945460   -0.710948   -0.002191
      2          6           0       -0.344357   -1.120183    0.007084
      3          8           0       -1.204589   -0.000097    0.011651
      4          6           0       -0.350108    1.116947    0.010113
      5          6           0        0.942511    0.716248    0.003511
      6          1           0        1.801785    1.318663    0.001791
      7          1           0       -0.808197    2.056970    0.013035
      8          1           0       -0.807920   -2.056586    0.002524
      9          1           0        1.805471   -1.314281   -0.003252
 ---------------------------------------------------------------------
                    Distance matrix (angstroms):
                    1          2          3          4          5
     1  C    0.000000
     2  C    1.353214   0.000000
     3  O    2.264555   1.412307   0.000000
     4  C    2.240502   2.237140   1.406388   0.000000
     5  C    1.427210   2.242437   2.263461   1.353317   0.000000
     6  H    2.202868   3.248680   3.282912   2.161343   1.049408
     7  H    3.276722   3.210839   2.094912   1.045704   2.205131
     8  H    2.210227   1.044874   2.094415   3.206394   3.279119
     9  H    1.050538   2.158597   3.284473   3.249241   2.206307
                    6          7          8          9
     6  H    0.000000
     7  H    2.712421   0.000000
     8  H    4.266481   4.113569   0.000000
     9  H    2.632951   4.265777   2.716774   0.000000
 Stoichiometry    C4H4O
 Framework group  C1[X(C4H4O)]
 Deg. of freedom    21
 Full point group                 C1      NOp   1
 RotChk:  IX=0 Diff= 5.62D-02
 Largest Abelian subgroup         C1      NOp   1
 Largest concise Abelian subgroup C1      NOp   1
                         Standard orientation:                         
 ---------------------------------------------------------------------
 Center     Atomic      Atomic             Coordinates (Angstroms)
 Number     Number       Type             X           Y           Z
 ---------------------------------------------------------------------
      1          6           0       -0.718741    0.953465    0.002044
      2          6           0       -1.118066   -0.339482   -0.001877
      3          8           0        0.008581   -1.191112    0.000190
      4          6           0        1.119043   -0.328094    0.000041
      5          6           0        0.708445    0.961432   -0.000505
      6          1           0        1.304258    1.825298   -0.001625
      7          1           0        2.062550   -0.778970    0.001408
      8          1           0       -2.050900   -0.810183    0.002871
      9          1           0       -1.328642    1.808820   -0.002391
 ---------------------------------------------------------------------
 Rotational constants (GHZ):      9.3123046      9.1491000      4.6150000
 Leave Link  202 at Thu Dec 24 04:54:12 2015, MaxMem=    33554432 cpu:         0.0
 (Enter /home/Applications/g09/g09/l301.exe)

 Semi-emprical parameters in input format:
 Method=8 CoreType=1 PeptideFC=0.0114510000 RIJScale=0.5291770000
 ****
 H       
 PQN=1 NValence=1 F0ss=0.4721550000 ZetaOverlap=1.1880780000 U=-0.4849220000
 Beta=-0.2609800000 CoreKO=1.0589200000 KON=0,0,0,1.0589200000 KON=1,0,1,1.0589200000
 KON=0,1,1,1.0589200000 KON=2,1,1,1.0589200000 EISol=-0.4188110042 EHeat=0.0830298228
 Alpha=1.5252600000
 GCore=0.0101030000,1.2837820000,2.2676710000
 GCore=0.0003530000,1.4001430000,2.7653400000
 GCore=-0.0012730000,0.5600570000,3.9684250000
 ****
 C       
 PQN=2,2 NValence=4 F0ss=0.4966660000 F0sp=0.4393990000 F0pp=0.3768030000 F2pp=0.1954550000
 G1sp=0.2679030000
 ZetaOverlap=1.8086650000,1.6851160000
 U=-1.9120180000,-1.4528800000
 Beta=-0.5775440000,-0.2716710000 DDN=0,1,0.9413200000 DDN=1,1,0.7268010000
 CoreKO=1.2773040000 KON=0,0,0,1.1124280000 KON=1,0,1,0.8219700000 KON=0,1,1,1.1124280000
 KON=2,1,1,0.7783930000 EISol=-4.4398989268 EHeat=0.2723305520 Alpha=1.4014060000
 DipHyp=1.8825316901
 GCore=0.0007890000,1.1698590000,3.0235620000
 GCore=0.0031890000,1.4001430000,3.4959930000
 GCore=-0.0015080000,1.4001430000,3.7716690000
 GCore=-0.0000890000,1.4001430000,4.6065730000
 ****
 O       
 PQN=2,2 NValence=6 F0ss=0.5250100000 F0sp=0.5321300000 F0pp=0.4958710000 F2pp=0.2639600000
 G1sp=0.4343770000
 ZetaOverlap=2.4866760000,2.5240390000
 U=-3.5951870000,-2.8760900000
 Beta=-1.0757550000,-1.0757550000 DDN=0,1,0.4988900000 DDN=1,1,0.4852320000
 CoreKO=0.8822960000 KON=0,0,0,1.0261780000 KON=1,0,1,0.5019540000 KON=0,1,1,0.8822960000
 KON=2,1,1,0.6473590000 EISol=-11.6164441184 EHeat=0.0949133088 Alpha=2.8029290000
 DipHyp=0.9977225968
 GCore=0.0198630000,1.4001430000,1.9159220000
 GCore=0.0056550000,1.5903000000,2.7307880000
 ****
 
 Standard basis: VSTO-6G (5D, 7F)
 Ernie: Thresh=  0.10000D-02 Tol=  0.10000D-05 Strict=F.
  NNHCO=     0 NNPyr=     0 NCTC=     0               EPep=         0.000000000
    EC=        66.291110673  ECS=         1.721690918   EG=         0.434480274
   EHC=         0.000000000  EAt=       -31.051283842  AtH=         1.516354808
 EPDDG=         0.000000000  ECC=        68.447281865 EAtT=        32.567638650
 There are    24 symmetry adapted cartesian basis functions of A   symmetry.
 There are    24 symmetry adapted basis functions of A   symmetry.
    24 basis functions,   144 primitive gaussians,    24 cartesian basis functions
    13 alpha electrons       13 beta electrons
       nuclear repulsion energy       101.0149205152 Hartrees.
 IExCor=    0 DFT=F Ex=HF Corr=None ExCW=0 ScaHFX=  1.000000
 ScaDFX=  1.000000  1.000000  1.000000  1.000000 ScalE2=  1.000000  1.000000
 IRadAn=      0 IRanWt=     -1 IRanGd=            0 ICorTp=0 IEmpDi=  4
 Integral buffers will be    131072 words long.
 Regular integral format.
 Two-electron integral symmetry is turned off.
 Leave Link  301 at Thu Dec 24 04:54:12 2015, MaxMem=    33554432 cpu:         0.0
 (Enter /home/Applications/g09/g09/l302.exe)
 Do NDO integrals.
 NPDir=0 NMtPBC=     1 NCelOv=     1 NCel=       1 NClECP=     1 NCelD=      1
         NCelK=      1 NCelE2=     1 NClLst=     1 CellRange=     0.0.
 One-electron integrals computed using PRISM.
 NBasis=    24 RedAO= F EigKep=  0.00D+00  NBF=    24
 NBsUse=    24 1.00D-04 EigRej=  0.00D+00 NBFU=    24
 Leave Link  302 at Thu Dec 24 04:54:12 2015, MaxMem=    33554432 cpu:         0.0
 (Enter /home/Applications/g09/g09/l303.exe)
 DipDrv:  MaxL=1.
 Leave Link  303 at Thu Dec 24 04:54:12 2015, MaxMem=    33554432 cpu:         0.0
 (Enter /home/Applications/g09/g09/l401.exe)
 Initial guess from the checkpoint file:  "/home/Applications/g09/scratch/Gau-24743.chk"
 B after Tr=     0.000000    0.000000    0.000000
         Rot=    0.999808    0.000005    0.000000    0.019599 Ang=   2.25 deg.
 Guess basis will be translated and rotated to current coordinates.
 JPrj=0 DoOrth=T DoCkMO=T.
 Leave Link  401 at Thu Dec 24 04:54:12 2015, MaxMem=    33554432 cpu:         0.0
 (Enter /home/Applications/g09/g09/l502.exe)
 Closed shell SCF:
 Using DIIS extrapolation, IDIIS=  1040.
 Overlap will be assumed to be unity.
 Two-electron integral symmetry not used.
 Keep J ints in memory in canonical form, NReq=888082.
 IVT=       79475 IEndB=       79475 NGot=    33554432 MDV=    33473473
 LenX=    33473473 LenY=    33472456
 Requested convergence on RMS density matrix=1.00D-08 within 128 cycles.
 Requested convergence on MAX density matrix=1.00D-06.
 Requested convergence on             energy=1.00D-06.
 No special actions if energy rises.
 FoFCou: FMM=F IPFlag=           0 FMFlag=           0 FMFlg1=           0
         NFxFlg=           0 DoJE=F BraDBF=F KetDBF=F FulRan=T
         wScrn=  0.000000 ICntrl=     600 IOpCl=  2 I1Cent=           0 NGrid=           0
         NMat0=    1 NMatS0=     54 NMatT0=    0 NMatD0=    1 NMtDS0=    0 NMtDT0=    0
 Symmetry not used in FoFCou.

 Cycle   1  Pass 1  IDiag  1:
 E=-0.807335494385768E-01
 DIIS: error= 9.71D-04 at cycle   1 NSaved=   1.
 NSaved= 1 IEnMin= 1 EnMin=-0.807335494385768E-01 IErMin= 1 ErrMin= 9.71D-04
 ErrMax= 9.71D-04  0.00D+00 EMaxC= 1.00D-01 BMatC= 6.22D-05 BMatP= 6.22D-05
 IDIUse=3 WtCom= 9.90D-01 WtEn= 9.71D-03
 Coeff-Com:  0.100D+01
 Coeff-En:   0.100D+01
 Coeff:      0.100D+01
 RMSDP=5.05D-04 MaxDP=2.02D-03              OVMax= 0.00D+00

 Cycle   2  Pass 1  IDiag  3:
 E=-0.809036250378767E-01 Delta-E=       -0.000170075599 Rises=F Damp=F
 DIIS: error= 4.14D-04 at cycle   2 NSaved=   2.
 NSaved= 2 IEnMin= 2 EnMin=-0.809036250378767E-01 IErMin= 2 ErrMin= 4.14D-04
 ErrMax= 4.14D-04  0.00D+00 EMaxC= 1.00D-01 BMatC= 6.67D-06 BMatP= 6.22D-05
 IDIUse=3 WtCom= 9.96D-01 WtEn= 4.14D-03
 Coeff-Com: -0.394D+00 0.139D+01
 Coeff-En:   0.000D+00 0.100D+01
 Coeff:     -0.392D+00 0.139D+01
 Gap=     0.373 Goal=   None    Shift=    0.000
 RMSDP=2.91D-04 MaxDP=1.36D-03 DE=-1.70D-04 OVMax= 1.72D-03

 Cycle   3  Pass 1  IDiag  3:
 E=-0.809330404586603E-01 Delta-E=       -0.000029415421 Rises=F Damp=F
 DIIS: error= 9.98D-05 at cycle   3 NSaved=   3.
 NSaved= 3 IEnMin= 3 EnMin=-0.809330404586603E-01 IErMin= 3 ErrMin= 9.98D-05
 ErrMax= 9.98D-05  0.00D+00 EMaxC= 1.00D-01 BMatC= 3.62D-07 BMatP= 6.67D-06
 IDIUse=1 WtCom= 1.00D+00 WtEn= 0.00D+00
 Coeff-Com:  0.204D+00-0.841D+00 0.164D+01
 Coeff:      0.204D+00-0.841D+00 0.164D+01
 Gap=     0.373 Goal=   None    Shift=    0.000
 RMSDP=1.07D-04 MaxDP=5.31D-04 DE=-2.94D-05 OVMax= 8.31D-04

 Cycle   4  Pass 1  IDiag  3:
 E=-0.809354690918696E-01 Delta-E=       -0.000002428633 Rises=F Damp=F
 DIIS: error= 1.15D-05 at cycle   4 NSaved=   4.
 NSaved= 4 IEnMin= 4 EnMin=-0.809354690918696E-01 IErMin= 4 ErrMin= 1.15D-05
 ErrMax= 1.15D-05  0.00D+00 EMaxC= 1.00D-01 BMatC= 1.16D-08 BMatP= 3.62D-07
 IDIUse=1 WtCom= 1.00D+00 WtEn= 0.00D+00
 Coeff-Com: -0.850D-01 0.361D+00-0.812D+00 0.154D+01
 Coeff:     -0.850D-01 0.361D+00-0.812D+00 0.154D+01
 Gap=     0.373 Goal=   None    Shift=    0.000
 RMSDP=2.07D-05 MaxDP=9.06D-05 DE=-2.43D-06 OVMax= 1.71D-04

 Cycle   5  Pass 1  IDiag  3:
 E=-0.809355501261422E-01 Delta-E=       -0.000000081034 Rises=F Damp=F
 DIIS: error= 2.62D-06 at cycle   5 NSaved=   5.
 NSaved= 5 IEnMin= 5 EnMin=-0.809355501261422E-01 IErMin= 5 ErrMin= 2.62D-06
 ErrMax= 2.62D-06  0.00D+00 EMaxC= 1.00D-01 BMatC= 4.22D-10 BMatP= 1.16D-08
 IDIUse=1 WtCom= 1.00D+00 WtEn= 0.00D+00
 Coeff-Com:  0.233D-01-0.998D-01 0.231D+00-0.531D+00 0.138D+01
 Coeff:      0.233D-01-0.998D-01 0.231D+00-0.531D+00 0.138D+01
 Gap=     0.373 Goal=   None    Shift=    0.000
 RMSDP=3.60D-06 MaxDP=2.30D-05 DE=-8.10D-08 OVMax= 2.45D-05

 Cycle   6  Pass 1  IDiag  3:
 E=-0.809355531298479E-01 Delta-E=       -0.000000003004 Rises=F Damp=F
 DIIS: error= 1.03D-06 at cycle   6 NSaved=   6.
 NSaved= 6 IEnMin= 6 EnMin=-0.809355531298479E-01 IErMin= 6 ErrMin= 1.03D-06
 ErrMax= 1.03D-06  0.00D+00 EMaxC= 1.00D-01 BMatC= 3.91D-11 BMatP= 4.22D-10
 IDIUse=1 WtCom= 1.00D+00 WtEn= 0.00D+00
 Coeff-Com: -0.953D-03 0.417D-02-0.107D-01 0.454D-01-0.433D+00 0.140D+01
 Coeff:     -0.953D-03 0.417D-02-0.107D-01 0.454D-01-0.433D+00 0.140D+01
 Gap=     0.373 Goal=   None    Shift=    0.000
 RMSDP=1.30D-06 MaxDP=8.30D-06 DE=-3.00D-09 OVMax= 1.18D-05

 Cycle   7  Pass 1  IDiag  3:
 E=-0.809355534539407E-01 Delta-E=       -0.000000000324 Rises=F Damp=F
 DIIS: error= 3.64D-07 at cycle   7 NSaved=   7.
 NSaved= 7 IEnMin= 7 EnMin=-0.809355534539407E-01 IErMin= 7 ErrMin= 3.64D-07
 ErrMax= 3.64D-07  0.00D+00 EMaxC= 1.00D-01 BMatC= 3.46D-12 BMatP= 3.91D-11
 IDIUse=1 WtCom= 1.00D+00 WtEn= 0.00D+00
 Coeff-Com: -0.170D-02 0.724D-02-0.161D-01 0.265D-01 0.877D-01-0.655D+00
 Coeff-Com:  0.155D+01
 Coeff:     -0.170D-02 0.724D-02-0.161D-01 0.265D-01 0.877D-01-0.655D+00
 Coeff:      0.155D+01
 Gap=     0.373 Goal=   None    Shift=    0.000
 RMSDP=4.34D-07 MaxDP=3.23D-06 DE=-3.24D-10 OVMax= 4.61D-06

 Cycle   8  Pass 1  IDiag  3:
 E=-0.809355534853893E-01 Delta-E=       -0.000000000031 Rises=F Damp=F
 DIIS: error= 9.73D-08 at cycle   8 NSaved=   8.
 NSaved= 8 IEnMin= 8 EnMin=-0.809355534853893E-01 IErMin= 8 ErrMin= 9.73D-08
 ErrMax= 9.73D-08  0.00D+00 EMaxC= 1.00D-01 BMatC= 2.38D-13 BMatP= 3.46D-12
 IDIUse=1 WtCom= 1.00D+00 WtEn= 0.00D+00
 Coeff-Com:  0.894D-03-0.380D-02 0.858D-02-0.152D-01-0.272D-01 0.284D+00
 Coeff-Com: -0.874D+00 0.163D+01
 Coeff:      0.894D-03-0.380D-02 0.858D-02-0.152D-01-0.272D-01 0.284D+00
 Coeff:     -0.874D+00 0.163D+01
 Gap=     0.373 Goal=   None    Shift=    0.000
 RMSDP=1.19D-07 MaxDP=9.45D-07 DE=-3.14D-11 OVMax= 1.30D-06

 Cycle   9  Pass 1  IDiag  3:
 E=-0.809355534873220E-01 Delta-E=       -0.000000000002 Rises=F Damp=F
 DIIS: error= 1.98D-08 at cycle   9 NSaved=   9.
 NSaved= 9 IEnMin= 9 EnMin=-0.809355534873220E-01 IErMin= 9 ErrMin= 1.98D-08
 ErrMax= 1.98D-08  0.00D+00 EMaxC= 1.00D-01 BMatC= 1.15D-14 BMatP= 2.38D-13
 IDIUse=1 WtCom= 1.00D+00 WtEn= 0.00D+00
 Coeff-Com: -0.420D-03 0.179D-02-0.404D-02 0.720D-02 0.115D-01-0.129D+00
 Coeff-Com:  0.416D+00-0.912D+00 0.161D+01
 Coeff:     -0.420D-03 0.179D-02-0.404D-02 0.720D-02 0.115D-01-0.129D+00
 Coeff:      0.416D+00-0.912D+00 0.161D+01
 Gap=     0.373 Goal=   None    Shift=    0.000
 RMSDP=2.45D-08 MaxDP=1.98D-07 DE=-1.93D-12 OVMax= 2.44D-07

 Cycle  10  Pass 1  IDiag  3:
 E=-0.809355534873788E-01 Delta-E=        0.000000000000 Rises=F Damp=F
 DIIS: error= 3.40D-09 at cycle  10 NSaved=  10.
 NSaved=10 IEnMin=10 EnMin=-0.809355534873788E-01 IErMin=10 ErrMin= 3.40D-09
 ErrMax= 3.40D-09  0.00D+00 EMaxC= 1.00D-01 BMatC= 4.65D-16 BMatP= 1.15D-14
 IDIUse=1 WtCom= 1.00D+00 WtEn= 0.00D+00
 Coeff-Com:  0.165D-03-0.704D-03 0.159D-02-0.281D-02-0.490D-02 0.526D-01
 Coeff-Com: -0.169D+00 0.379D+00-0.793D+00 0.154D+01
 Coeff:      0.165D-03-0.704D-03 0.159D-02-0.281D-02-0.490D-02 0.526D-01
 Coeff:     -0.169D+00 0.379D+00-0.793D+00 0.154D+01
 Gap=     0.373 Goal=   None    Shift=    0.000
 RMSDP=4.46D-09 MaxDP=3.26D-08 DE=-5.68D-14 OVMax= 4.11D-08

 Cycle  11  Pass 2  IDiag  1:
 SCF Done:  E(RAM1) = -0.809355534874E-01 A.U. after   11 cycles
            NFock= 10  Conv=0.45D-08     -V/T= 0.9950
 KE=-1.615790841706D+01 PE=-1.681504390449D+02 EE= 8.321249139327D+01
 Leave Link  502 at Thu Dec 24 04:54:12 2015, MaxMem=    33554432 cpu:         0.0
 (Enter /home/Applications/g09/g09/l701.exe)
 Compute integral first derivatives.
 ... and contract with generalized density number  0.
 Leave Link  701 at Thu Dec 24 04:54:12 2015, MaxMem=    33554432 cpu:         0.0
 (Enter /home/Applications/g09/g09/l702.exe)
 L702 exits ... SP integral derivatives will be done elsewhere.
 Leave Link  702 at Thu Dec 24 04:54:12 2015, MaxMem=    33554432 cpu:         0.0
 (Enter /home/Applications/g09/g09/l703.exe)
 Compute integral first derivatives, UseDBF=F ICtDFT=           0.
 Integral derivatives from FoFJK, PRISM(SPDF).
 Calling FoFJK, ICntrl=      2127 FMM=F ISym2X=0 I1Cent= 0 IOpClX= 0 NMat=1 NMatS=1 NMatT=0.
 FoFJK:  IHMeth= 8 ICntrl=    2127 DoSepK=F KAlg= 0 I1Cent=   0 FoldK=F
 IRaf=         0 NMat=   1 IRICut=       1 DoRegI=T DoRafI=F ISym2E= 0.
 FoFCou: FMM=F IPFlag=           0 FMFlag=      100000 FMFlg1=         800
         NFxFlg=           0 DoJE=F BraDBF=F KetDBF=F FulRan=T
         wScrn=  0.000000 ICntrl=    2127 IOpCl=  0 I1Cent=           0 NGrid=           0
         NMat0=    1 NMatS0=      1 NMatT0=    0 NMatD0=    1 NMtDS0=    0 NMtDT0=    0
 Symmetry not used in FoFCou.
 Leave Link  703 at Thu Dec 24 04:54:12 2015, MaxMem=    33554432 cpu:         0.0
 (Enter /home/Applications/g09/g09/l716.exe)
 Dipole        =-2.55433869D-03 2.66022049D-01 1.07645206D-03
 ***** Axes restored to original set *****
 -------------------------------------------------------------------
 Center     Atomic                   Forces (Hartrees/Bohr)
 Number     Number              X              Y              Z
 -------------------------------------------------------------------
      1        6          -0.001241045   -0.002201621    0.001253833
      2        6          -0.000846027    0.001069787   -0.001140566
      3        8           0.000574553   -0.002047558    0.000230058
      4        6           0.001104703    0.002746650   -0.000019912
      5        6          -0.001208630    0.000113025   -0.000364625
      6        1           0.001741715    0.002119893   -0.000027598
      7        1          -0.001115030    0.000686313    0.000085405
      8        1          -0.000506033   -0.001277680    0.000314873
      9        1           0.001495796   -0.001208810   -0.000331469
 -------------------------------------------------------------------
 Cartesian Forces:  Max     0.002746650 RMS     0.001233986
 Leave Link  716 at Thu Dec 24 04:54:12 2015, MaxMem=    33554432 cpu:         0.0
 (Enter /home/Applications/g09/g09/l103.exe)

 GradGradGradGradGradGradGradGradGradGradGradGradGradGradGradGradGradGrad
 Berny optimization.
 Using GEDIIS/GDIIS optimizer.
 FormGI is forming the generalized inverse of G from B-inverse, IUseBI=4.
 Internal  Forces:  Max     0.003603629 RMS     0.001003673
 Search for a local minimum.
 Step number   3 out of a maximum of   48
 All quantities printed in internal units (Hartrees-Bohrs-Radians)
 RMS Force = .10037D-02 SwitMx=.10000D-02 MixMth= 1
 Mixed Optimization -- RFO/linear search
 Update second derivatives using D2CorX and points    1    2    3
 DE= -4.81D-04 DEPred=-5.61D-04 R= 8.57D-01
 TightC=F SS=  1.41D+00  RLast= 6.08D-02 DXNew= 8.4853D-01 1.8251D-01
 Trust test= 8.57D-01 RLast= 6.08D-02 DXMaxT set to 5.05D-01
 ITU=  1  1  0
 Use linear search instead of GDIIS.
     Eigenvalues ---    0.02049   0.02238   0.02425   0.02614   0.02791
     Eigenvalues ---    0.02827   0.15340   0.16000   0.16024   0.16115
     Eigenvalues ---    0.22012   0.23052   0.34948   0.36549   0.37250
     Eigenvalues ---    0.37863   0.41632   0.46082   0.50914   0.54798
     Eigenvalues ---    0.76056
 RFO step:  Lambda=-7.47302248D-05 EMin= 2.04889540D-02
 Quartic linear search produced a step of -0.13006.
 Iteration  1 RMS(Cart)=  0.00361712 RMS(Int)=  0.00001191
 Iteration  2 RMS(Cart)=  0.00001019 RMS(Int)=  0.00000723
 Iteration  3 RMS(Cart)=  0.00000000 RMS(Int)=  0.00000723
 ITry= 1 IFail=0 DXMaxC= 1.06D-02 DCOld= 1.00D+10 DXMaxT= 5.05D-01 DXLimC= 3.00D+00 Rises=F
 Variable       Old X    -DE/DX   Delta X   Delta X   Delta X     New X
                                 (Linear)    (Quad)   (Total)
    R1        2.55720   0.00045   0.00213  -0.00305  -0.00091   2.55629
    R2        2.69704   0.00360   0.00337   0.00261   0.00598   2.70302
    R3        1.98523   0.00192   0.00065   0.00354   0.00418   1.98941
    R4        2.66887  -0.00056   0.00143  -0.00368  -0.00226   2.66662
    R5        1.97453   0.00137   0.00179   0.00036   0.00215   1.97667
    R6        2.65769   0.00186  -0.00017   0.00286   0.00269   2.66038
    R7        2.55740   0.00076   0.00206  -0.00213  -0.00007   2.55733
    R8        1.97609   0.00111   0.00219  -0.00080   0.00139   1.97748
    R9        1.98309   0.00264   0.00032   0.00628   0.00659   1.98969
    A1        1.87593  -0.00014  -0.00055   0.00042  -0.00014   1.87579
    A2        2.22259  -0.00006  -0.00025  -0.00007  -0.00033   2.22226
    A3        2.18462   0.00020   0.00080  -0.00027   0.00052   2.18514
    A4        1.91850  -0.00023  -0.00044  -0.00071  -0.00117   1.91733
    A5        2.33764   0.00001   0.00009   0.00010   0.00017   2.33781
    A6        2.02700   0.00023   0.00036   0.00071   0.00105   2.02805
    A7        1.83366   0.00155   0.00131   0.00282   0.00413   1.83780
    A8        1.92320  -0.00114  -0.00026  -0.00325  -0.00351   1.91969
    A9        2.03514  -0.00012   0.00096  -0.00342  -0.00246   2.03268
   A10        2.32485   0.00126  -0.00070   0.00667   0.00597   2.33082
   A11        1.87347  -0.00004  -0.00007   0.00076   0.00069   1.87416
   A12        2.18016   0.00075  -0.00086   0.00490   0.00404   2.18420
   A13        2.22955  -0.00071   0.00093  -0.00566  -0.00473   2.22482
    D1        0.00539  -0.00031  -0.00219  -0.00732  -0.00951  -0.00412
    D2        3.13527   0.00005  -0.00172   0.00386   0.00215   3.13742
    D3        3.13668   0.00000  -0.00107   0.00166   0.00058   3.13726
    D4       -0.01662   0.00036  -0.00060   0.01284   0.01224  -0.00439
    D5       -0.00458   0.00028   0.00148   0.00731   0.00880   0.00422
    D6        3.13794   0.00016   0.00153   0.00272   0.00424  -3.14101
[...]
     38  0.173286D-05 -0.759219D-05 -0.119016D-04  0.824104D-05  0.336711D-05
               16            17            18            19            20 
     16  0.148228D+00
     17 -0.859590D-01  0.124210D+00
     18  0.457835D-01 -0.717131D-01  0.102337D+00
     19  0.401754D-01 -0.524969D-01 -0.306239D-01  0.831209D-01
     20  0.118522D-01 -0.533343D-01  0.327249D-01  0.206094D-01  0.100685D+00
     21 -0.157625D-03  0.275277D-01 -0.169917D-01 -0.105360D-01 -0.498588D-01
     22 -0.116946D-01  0.258066D-01 -0.157332D-01 -0.100734D-01 -0.508260D-01
     23  0.208518D-04 -0.164665D-04  0.154093D-04  0.104209D-05  0.387394D-04
     24  0.141099D-04  0.506945D-05 -0.142371D-05 -0.128103D-05  0.378007D-05
     25  0.185620D-04 -0.291233D-04  0.198088D-04  0.674126D-05  0.437901D-04
     26  0.118201D-04 -0.758728D-05  0.297588D-05  0.441814D-05  0.883077D-05
     27  0.314008D-04 -0.433961D-04  0.265682D-04  0.134718D-04  0.209834D-04
     28  0.323021D-04 -0.389307D-04  0.179965D-04  0.182188D-04  0.527605D-05
     29  0.215658D-04 -0.201279D-04  0.175485D-04  0.170879D-05  0.217799D-04
     30  0.224671D-04 -0.156625D-04  0.897674D-05  0.645579D-05  0.607258D-05
     31 -0.506282D-05  0.180188D-04 -0.140861D-04  0.000000D+00  0.000000D+00
     32  0.111152D-04  0.226869D-05 -0.151891D-05  0.000000D+00  0.228554D-04
     33  0.000000D+00  0.123859D-04 -0.477553D-05 -0.129938D-04 -0.265349D-04
     34  0.232450D-04 -0.655468D-05 -0.184958D-04  0.271730D-04 -0.295017D-04
     35  0.384258D-04 -0.266061D-04  0.175138D-04  0.145459D-04 -0.205509D-04
     36  0.356369D-04 -0.311406D-04  0.263201D-04  0.961574D-05 -0.516728D-05
     37  0.186622D-04 -0.113285D-04 -0.918087D-05  0.166292D-04 -0.148473D-04
     38  0.158732D-04 -0.158630D-04  0.000000D+00  0.116991D-04  0.000000D+00
               21            22            23            24            25 
     21  0.788672D-01
     22 -0.290083D-01  0.798343D-01
     23 -0.166405D-04 -0.204937D-04  0.158872D-01
     24  0.146322D-05 -0.484852D-05  0.273911D-02  0.120975D-01
     25 -0.208465D-04 -0.220556D-04  0.609894D-02 -0.546872D-02  0.114330D-01
     26 -0.274276D-05 -0.641045D-05 -0.704918D-02  0.388964D-02 -0.134650D-03
     27 -0.756710D-05 -0.155917D-04 -0.134484D-01 -0.535678D-02 -0.235840D-02
     28 -0.738391D-05  0.281612D-05 -0.548830D-02 -0.339922D-02  0.204518D-02
     29 -0.564417D-05 -0.176143D-04 -0.393754D-02  0.261835D-02 -0.754118D-02
     30 -0.546098D-05  0.000000D+00  0.402254D-02  0.457592D-02 -0.313760D-02
     31  0.432263D-05 -0.418891D-05 -0.122015D-01  0.779183D-03 -0.734490D-02
     32 -0.658919D-05 -0.157511D-04 -0.163200D-02 -0.674375D-02  0.195406D-02
     33  0.152325D-04  0.103504D-04  0.348366D-02 -0.425122D-02  0.581565D-02
     34  0.141977D-04  0.146025D-04  0.345417D-02  0.334825D-03  0.825331D-03
     35  0.120345D-04  0.104362D-04  0.590353D-02  0.594093D-02 -0.227780D-02
     36 -0.460472D-05  0.872857D-05 -0.227592D-02  0.392941D-02 -0.680274D-02
     37  0.123622D-04  0.409330D-05  0.594020D-02  0.238100D-03  0.392775D-02
     38 -0.427701D-05  0.238568D-05 -0.223925D-02 -0.177341D-02 -0.597193D-03
               26            27            28            29            30 
     26  0.108042D-01
     27  0.573319D-02  0.165988D-01
     28  0.413426D-02  0.581118D-02  0.932333D-02
     29 -0.985291D-03  0.582313D-02 -0.150881D-02  0.932473D-02
     30 -0.258422D-02 -0.496447D-02  0.200334D-02  0.199279D-02  0.896060D-02
     31  0.563575D-02  0.538026D-02  0.310927D-02  0.661363D-03 -0.160963D-02
     32 -0.315769D-02 -0.112437D-02  0.142991D-02 -0.460875D-02 -0.205447D-02
     33 -0.191923D-02  0.537896D-02  0.657584D-03  0.311304D-02 -0.160833D-02
     34 -0.229401D-02 -0.112974D-02 -0.460864D-02  0.142458D-02 -0.205432D-02
     35 -0.224041D-02 -0.134475D-01 -0.392775D-02 -0.549802D-02  0.402169D-02
     36 -0.597410D-03 -0.236257D-02 -0.753669D-02  0.203598D-02 -0.313814D-02
     37 -0.177435D-02 -0.535378D-02  0.262090D-02 -0.339839D-02  0.457629D-02
     38 -0.131356D-03  0.573111D-02 -0.988037D-03  0.413561D-02 -0.258354D-02
               31            32            33            34            35 
     31  0.140660D-01
     32  0.363115D-02  0.774040D-02
     33 -0.105775D-01 -0.435964D-02  0.140632D-01
     34 -0.435528D-02 -0.184771D-02  0.362268D-02  0.773893D-02
     35  0.348417D-02  0.345411D-02 -0.122001D-01 -0.162378D-02  0.158866D-01
     36  0.581775D-02  0.829433D-03 -0.734865D-02  0.195099D-02  0.610453D-02
     37 -0.425330D-02  0.330479D-03  0.782807D-03 -0.674240D-02  0.273470D-02
     38 -0.191972D-02 -0.229419D-02  0.563429D-02 -0.316762D-02 -0.704736D-02
               36            37            38 
     36  0.114212D-01
     37 -0.545975D-02  0.120924D-01
     38 -0.143038D-03  0.389799D-02  0.108023D-01
 Leave Link  716 at Thu Dec 24 04:54:13 2015, MaxMem=    33554432 cpu:         0.0
 (Enter /home/Applications/g09/g09/l103.exe)

 GradGradGradGradGradGradGradGradGradGradGradGradGradGradGradGradGradGrad
 Berny optimization.
 Red2BG is reusing G-inverse.
 Internal  Forces:  Max     0.000147017 RMS     0.000061448
 Search for a local minimum.
 Step number   1 out of a maximum of    2
 All quantities printed in internal units (Hartrees-Bohrs-Radians)
 Second derivative matrix not updated -- analytic derivatives used.
 ITU=  0
     Eigenvalues ---    0.01278   0.01611   0.02366   0.03035   0.04961
     Eigenvalues ---    0.05573   0.09593   0.10263   0.10731   0.11379
     Eigenvalues ---    0.23224   0.28679   0.33772   0.34624   0.40047
     Eigenvalues ---    0.41612   0.43336   0.44459   0.47654   0.56587
     Eigenvalues ---    0.78577
 Angle between quadratic step and forces=  50.35 degrees.
 Linear search not attempted -- first point.
 Iteration  1 RMS(Cart)=  0.00042430 RMS(Int)=  0.00000026
 Iteration  2 RMS(Cart)=  0.00000023 RMS(Int)=  0.00000013
 ITry= 1 IFail=0 DXMaxC= 1.15D-03 DCOld= 1.00D+10 DXMaxT= 3.00D-01 DXLimC= 3.00D+00 Rises=F
 Variable       Old X    -DE/DX   Delta X   Delta X   Delta X     New X
                                 (Linear)    (Quad)   (Total)
    R1        2.55682  -0.00001   0.00000   0.00011   0.00011   2.55693
    R2        2.70339  -0.00001   0.00000   0.00003   0.00003   2.70342
    R3        1.98979  -0.00015   0.00000  -0.00036  -0.00036   1.98943
    R4        2.66497  -0.00009   0.00000  -0.00028  -0.00028   2.66470
    R5        1.97829  -0.00008   0.00000  -0.00023  -0.00023   1.97806
    R6        2.66468   0.00000   0.00000   0.00002   0.00002   2.66470
    R7        2.55714  -0.00014   0.00000  -0.00021  -0.00021   2.55693
    R8        1.97821  -0.00006   0.00000  -0.00016  -0.00016   1.97806
    R9        1.98965  -0.00009   0.00000  -0.00021  -0.00021   1.98943
    A1        1.87478   0.00004   0.00000   0.00007   0.00007   1.87485
    A2        2.22378  -0.00004   0.00000  -0.00019  -0.00019   2.22358
    A3        2.18463   0.00000   0.00000   0.00012   0.00012   2.18475
    A4        1.91951  -0.00010   0.00000  -0.00025  -0.00025   1.91926
    A5        2.33582   0.00000   0.00000  -0.00036  -0.00036   2.33546
    A6        2.02785   0.00011   0.00000   0.00061   0.00061   2.02846
    A7        1.83624   0.00010   0.00000   0.00030   0.00030   1.83654
    A8        1.91944  -0.00006   0.00000  -0.00017  -0.00017   1.91926
    A9        2.02815   0.00007   0.00000   0.00031   0.00031   2.02846
   A10        2.33560  -0.00001   0.00000  -0.00014  -0.00014   2.33546
   A11        1.87481   0.00002   0.00000   0.00004   0.00004   1.87486
   A12        2.18568  -0.00010   0.00000  -0.00093  -0.00093   2.18475
   A13        2.22269   0.00008   0.00000   0.00089   0.00089   2.22358
    D1       -0.00079   0.00005   0.00000   0.00079   0.00079   0.00000
    D2       -3.14155   0.00002   0.00000  -0.00004  -0.00004   3.14159
    D3       -3.14098  -0.00001   0.00000  -0.00061  -0.00061  -3.14159
    D4        0.00145  -0.00004   0.00000  -0.00145  -0.00145   0.00000
    D5        0.00111  -0.00006   0.00000  -0.00111  -0.00112   0.00000
    D6       -3.14068  -0.00003   0.00000  -0.00091  -0.00091   3.14159
    D7        3.14134  -0.00001   0.00000   0.00025   0.00025   3.14159
    D8       -0.00046   0.00002   0.00000   0.00046   0.00046   0.00000
    D9        0.00018  -0.00001   0.00000  -0.00018  -0.00018   0.00000
   D10        3.14111   0.00001   0.00000   0.00049   0.00049  -3.14159
   D11        0.00054  -0.00003   0.00000  -0.00054  -0.00054   0.00000
   D12       -3.14150   0.00000   0.00000  -0.00010  -0.00010  -3.14159
   D13       -0.00102   0.00006   0.00000   0.00102   0.00102   0.00000
   D14        3.14079   0.00003   0.00000   0.00080   0.00080  -3.14159
   D15        3.14113   0.00002   0.00000   0.00047   0.00047   3.14159
   D16       -0.00026  -0.00001   0.00000   0.00026   0.00026   0.00000
         Item               Value     Threshold  Converged?
 Maximum Force            0.000147     0.000450     YES
 RMS     Force            0.000061     0.000300     YES
 Maximum Displacement     0.001154     0.001800     YES
 RMS     Displacement     0.000424     0.001200     YES
 Predicted change in Energy=-3.988007D-07
 Optimization completed.
    -- Stationary point found.
                           ----------------------------
                           !   Optimized Parameters   !
                           ! (Angstroms and Degrees)  !
 --------------------------                            --------------------------
 ! Name  Definition              Value          Derivative Info.                !
 --------------------------------------------------------------------------------
 ! R1    R(1,2)                  1.353          -DE/DX =    0.0                 !
 ! R2    R(1,5)                  1.4306         -DE/DX =    0.0                 !
 ! R3    R(1,9)                  1.053          -DE/DX =   -0.0001              !
 ! R4    R(2,3)                  1.4102         -DE/DX =   -0.0001              !
 ! R5    R(2,8)                  1.0469         -DE/DX =   -0.0001              !
 ! R6    R(3,4)                  1.4101         -DE/DX =    0.0                 !
 ! R7    R(4,5)                  1.3532         -DE/DX =   -0.0001              !
 ! R8    R(4,7)                  1.0468         -DE/DX =   -0.0001              !
 ! R9    R(5,6)                  1.0529         -DE/DX =   -0.0001              !
 ! A1    A(2,1,5)              107.417          -DE/DX =    0.0                 !
 ! A2    A(2,1,9)              127.413          -DE/DX =    0.0                 !
 ! A3    A(5,1,9)              125.1699         -DE/DX =    0.0                 !
 ! A4    A(1,2,3)              109.98           -DE/DX =   -0.0001              !
 ! A5    A(1,2,8)              133.8328         -DE/DX =    0.0                 !
 ! A6    A(3,2,8)              116.1872         -DE/DX =    0.0001              !
 ! A7    A(2,3,4)              105.2087         -DE/DX =    0.0001              !
 ! A8    A(3,4,5)              109.9755         -DE/DX =   -0.0001              !
 ! A9    A(3,4,7)              116.2046         -DE/DX =    0.0001              !
 ! A10   A(5,4,7)              133.8199         -DE/DX =    0.0                 !
 ! A11   A(1,5,4)              107.4187         -DE/DX =    0.0                 !
 ! A12   A(1,5,6)              125.2302         -DE/DX =   -0.0001              !
 ! A13   A(4,5,6)              127.351          -DE/DX =    0.0001              !
 ! D1    D(5,1,2,3)             -0.0453         -DE/DX =    0.0                 !
 ! D2    D(5,1,2,8)            180.0025         -DE/DX =    0.0                 !
 ! D3    D(9,1,2,3)           -179.9648         -DE/DX =    0.0                 !
 ! D4    D(9,1,2,8)              0.0829         -DE/DX =    0.0                 !
 ! D5    D(2,1,5,4)              0.0639         -DE/DX =   -0.0001              !
 ! D6    D(2,1,5,6)            180.0521         -DE/DX =    0.0                 !
 ! D7    D(9,1,5,4)            179.9857         -DE/DX =    0.0                 !
 ! D8    D(9,1,5,6)             -0.0261         -DE/DX =    0.0                 !
 ! D9    D(1,2,3,4)              0.0106         -DE/DX =    0.0                 !
 ! D10   D(8,2,3,4)           -180.0278         -DE/DX =    0.0                 !
 ! D11   D(2,3,4,5)              0.0308         -DE/DX =    0.0                 !
 ! D12   D(2,3,4,7)           -179.9944         -DE/DX =    0.0                 !
 ! D13   D(3,4,5,1)             -0.0582         -DE/DX =    0.0001              !
 ! D14   D(3,4,5,6)           -180.0461         -DE/DX =    0.0                 !
 ! D15   D(7,4,5,1)            179.9732         -DE/DX =    0.0                 !
 ! D16   D(7,4,5,6)             -0.0147         -DE/DX =    0.0                 !
 --------------------------------------------------------------------------------
 GradGradGradGradGradGradGradGradGradGradGradGradGradGradGradGradGradGrad

 Leave Link  103 at Thu Dec 24 04:54:13 2015, MaxMem=    33554432 cpu:         0.0
 (Enter /home/Applications/g09/g09/l9999.exe)
 1\1\GINC-DUSTIN-DESKTOP\Freq\RAM1\ZDO\C4H4O1\DUSTIN\24-Dec-2015\0\\#P 
 Geom=AllCheck Guess=TCheck SCRF=Check GenChk RAM1/ZDO Freq\\AM1-Repara
 m Input\\0,1\C,0.9453444135,-0.7139931553,0.0008648448\C,-0.3452511517
 ,-1.1201871374,0.004376741\O,-1.2027710457,-0.0006286621,0.0103518493\
 C,-0.3474728404,1.1204450519,0.0100061223\C,0.9440177246,0.716575051,0
 .0035396636\H,1.8034774878,1.3247430419,0.0010493294\H,-0.8138100788,2
 .057651009,0.0141703379\H,-0.8101103422,-2.0581805594,0.0041963902\H,1
 .8066308328,-1.3196906396,-0.0042902785\\Version=ES64L-G09RevD.01\Stat
 e=1-A\HF=-0.0809919\RMSD=2.758e-10\RMSF=1.037e-04\ZeroPoint=0.0741316\
 Thermal=0.0777414\Dipole=0.266563,0.000174,-0.0010417\DipoleDeriv=0.06
 13243,-0.1090467,-0.0007129,-0.2503031,0.1664786,0.0014999,-0.0011872,
 0.0009474,-0.0006879,0.5156574,-0.0860381,-0.002487,-0.313577,0.106467
 ,0.0012852,-0.0033593,0.0006372,-0.1546719,-0.9337231,-0.0005015,0.003
 4709,-0.0009203,-0.292123,-0.0000196,0.0033652,-0.0006032,-0.0226101,0
 .515095,0.0865828,-0.0025575,0.3148577,0.1070389,-0.0007991,-0.001612,
 0.0002181,-0.1546632,0.0603122,0.1090136,-0.000058,0.2499338,0.1669181
 ,-0.0007112,0.0003559,-0.0000726,-0.0009993,-0.0957675,-0.0920057,0.00
 04512,-0.071791,-0.0828383,0.0000552,0.0004198,0.0001233,0.0533738,-0.
 0133728,0.0291171,0.0005851,0.0112226,-0.0447255,-0.0004251,0.0004771,
 -0.0004262,0.1134788,-0.0133442,-0.0290606,0.000436,-0.0112057,-0.0448
 521,-0.0002632,0.0005349,-0.0000913,0.113458,-0.0961877,0.091939,0.000
 8722,0.0717858,-0.082349,-0.0006221,0.000996,-0.0007329,0.053319\Polar
 =43.9809722,0.0007179,42.1448904,-0.1352662,0.0850074,8.9086779\HyperP
 olar=-2.4603571,0.0036891,12.3132185,-0.0254596,-0.0031321,-0.0095841,
 -0.0471942,-1.6173289,-0.0021509,0.0192994\PG=C01 [X(C4H4O1)]\NImag=0\
 \0.92413966,-0.11409500,0.66650478,-0.00314725,0.00157978,0.16471341,-
 0.43464541,-0.06202195,0.00108678,0.72854647,-0.15450266,-0.12583743,0
 .00043990,0.23839888,0.76253340,0.00087752,0.00009861,-0.08191678,-0.0
 0156667,0.00050815,0.15317337,-0.13251553,0.00903516,0.00056294,-0.135
 85880,0.07963648,0.00047624,0.52706509,0.05452151,-0.00630983,-0.00023
 476,0.07884287,-0.16954770,-0.00055877,0.00016960,0.46429247,0.0006540
 2,-0.00007615,0.01238205,0.00048536,-0.00056669,-0.05959407,-0.0017138
 1,0.00093889,0.07259299,0.00333113,0.11122939,0.00030550,-0.00873204,0
 .01069572,0.00008003,-0.13563249,-0.07886784,0.00007998,0.72907233,0.0
 5884250,-0.05092615,-0.00038905,-0.01048328,-0.12558414,-0.00029386,-0
 .07967679,-0.16999489,0.00003115,-0.23819159,0.76189997,0.00018165,-0.
 00058097,0.01631004,0.00003902,-0.00036975,0.00671645,0.00008045,0.000
 01817,-0.05957803,-0.00294898,0.00247106,0.15321153,-0.09054540,-0.050
 00644,-0.00008580,0.00365325,-0.05874539,-0.00007951,-0.13242202,-0.05
 476967,0.00044589,-0.43463567,0.15379797,0.00187270,0.92313179,0.05040
 356,-0.29983569,-0.00058957,-0.11114528,-0.05127352,0.00027416,-0.0092
 7660,-0.00641562,-0.00000766,0.06133807,-0.12544171,-0.00037813,0.1148
 6189,0.66731178,0.00014190,-0.00019461,-0.08315999,-0.00020422,0.00007
 165,0.01632044,0.00054242,0.00016901,0.01238808,0.00167179,-0.00074988
 ,-0.08197915,-0.00297956,0.00056861,0.16470975,0.00007891,-0.00570411,
 0.00001472,-0.00061582,0.00073617,0.00001820,-0.00402864,-0.00026063,0
 .00005035,-0.03850302,-0.01809633,0.00013722,-0.24750534,-0.14161014,0
 .00058396,0.29022369,-0.02773499,-0.02869704,0.00004582,-0.00014556,-0
 .00442658,-0.00001491,0.00261951,0.00085068,-0.00002232,0.00510697,0.0
 0676426,-0.00001369,-0.14404249,-0.14522864,0.00042611,0.16496717,0.17
 036998,-0.00003048,-0.00004537,0.00595118,0.00001818,-0.00001907,0.003
 21647,0.00005035,-0.00001750,0.00768275,0.00019136,0.00009264,0.003514
 09,0.00057577,0.00041236,-0.04714867,-0.00079634,-0.00042751,0.0283383
 3,-0.00304937,0.00119982,0.00004005,-0.00346382,-0.00203013,0.00001623
 ,0.00872532,-0.02468028,-0.00008344,-0.11081030,0.13250990,0.00059863,
 -0.01862412,0.03084337,0.00017743,0.00005255,-0.00023979,-0.00000309,0
 .12663789,0.00062287,-0.00004477,-0.00001742,-0.00437692,-0.00085024,0
 .00000891,0.00491516,-0.05687358,-0.00017129,0.12415952,-0.29145086,-0
 .00110855,0.01172392,-0.01041154,-0.00009054,0.00022987,0.00016344,0.0
 0000058,-0.13783598,0.36034899,0.00003908,-0.00001683,0.00572629,0.000
 01027,0.00000142,0.00218815,-0.00001146,-0.00005820,0.00322200,0.00057
 582,-0.00113611,-0.04359974,0.00013290,-0.00017227,0.00717848,-0.00000
 217,0.00000281,-0.00059048,-0.00074574,0.00138455,0.02538681,-0.018551
 48,-0.03086217,0.00002890,-0.11038991,-0.13218482,-0.00002999,0.008686
 77,0.02479415,0.00003748,-0.00347577,0.00202494,0.00002620,-0.00304659
 ,-0.00120539,0.00002798,-0.00002306,-0.00073485,-0.00000193,0.00055665
 ,0.00050374,0.00000216,0.12618942,-0.01173963,-0.01048791,0.00000562,-
 0.12384609,-0.29180849,-0.00004940,-0.00479382,-0.05684245,-0.00011891
 ,0.00437335,-0.00083993,-0.00002182,-0.00062918,-0.00004731,-0.0000115
 3,-0.00005756,-0.00013234,0.00000051,-0.00050138,-0.00075057,-0.000002
 28,0.13742416,0.36074602,0.00006003,0.00007069,0.00717849,-0.00000006,
 -0.00000361,-0.04360710,-0.00002851,-0.00023587,0.00322139,0.00003097,
 -0.00001412,0.00218816,0.00003114,-0.00000955,0.00572706,-0.00000081,0
 .00000237,-0.00023809,-0.00000052,-0.00000605,0.00072728,-0.00008856,0
 .00019567,0.02539310,-0.24824263,0.14122508,0.00119419,-0.03849330,0.0
 1799527,0.00020793,-0.00402024,0.00025030,0.00004418,-0.00061357,-0.00
 072683,0.00001310,-0.00000603,0.00579075,0.00003831,0.00032069,0.00020
 396,-0.00000381,-0.00002501,0.00005786,-0.00000085,0.00005374,-0.00022
 990,-0.00000368,0.29102633,0.14368187,-0.14436614,-0.00084033,-0.00522
 324,0.00679493,0.00002711,-0.00262859,0.00084067,-0.00000704,0.0001568
 5,-0.00442644,-0.00001632,0.02780934,-0.02865791,-0.00018883,-0.000204
 45,0.00033625,0.00000337,0.00073451,-0.00013075,-0.00000308,0.00024020
 ,0.00016310,0.00000048,-0.16456644,0.16944630,0.00122355,-0.00083511,-
 0.04718459,0.00013155,-0.00006216,0.00350248,0.00004104,-0.00002098,0.
 00768410,0.00001376,-0.00001165,0.00321608,0.00008649,-0.00009799,0.00
 596406,-0.00000516,0.00000130,-0.00072571,0.00000043,-0.00000018,-0.00
 023878,-0.00000227,0.00000214,-0.00059030,-0.00148940,0.00102463,0.028
 37253\\-0.00012529,-0.00000519,0.00019070,0.00019860,0.00011517,-0.000
 10584,-0.00022058,0.00004793,-0.00003164,0.00000597,-0.00004130,0.0000
 9602,0.00013629,-0.00015914,-0.00011105,0.00002097,0.00012654,-0.00001
 791,-0.00006094,0.00003302,0.00000036,-0.00008619,-0.00004832,0.000018
 93,0.00013118,-0.00006871,-0.00003957\\\@


 TOM, TOM, THE BURGLAR'S SON
 STOLE A MACHINE AND AWAY HE RUN
 THE JOB WAS NEAT, BUT TOM GOT BEAT
 BY THE TIME HE GOT HOME IT WAS OBSOLETE.
 Job cpu time:       0 days  0 hours  0 minutes  0.5 seconds.
 File lengths (MBytes):  RWF=      5 Int=      0 D2E=      0 Chk=      2 Scr=      1
 Normal termination of Gaussian 09 at Thu Dec 24 04:54:13 2015.
