 Entering Gaussian System, Link 0=g09
 Input=FuranDFT_91.com
 Output=FuranDFT_91.log
 Initial command:
 /home/Applications/g09/g09/l1.exe "/home/Applications/g09/scratch/Gau-6392.inp" -scrdir="/home/Applications/g09/scratch/"
 Entering Link 1 = /home/Applications/g09/g09/l1.exe PID=      6394.
  
 Copyright (c) 1988,1990,1992,1993,1995,1998,2003,2009,2013,
            Gaussian, Inc.  All Rights Reserved.
  
 This is part of the Gaussian(R) 09 program.  It is based on
 the Gaussian(R) 03 system (copyright 2003, Gaussian, Inc.),
 the Gaussian(R) 98 system (copyright 1998, Gaussian, Inc.),
 the Gaussian(R) 94 system (copyright 1995, Gaussian, Inc.),
 the Gaussian 92(TM) system (copyright 1992, Gaussian, Inc.),
 the Gaussian 90(TM) system (copyright 1990, Gaussian, Inc.),
 the Gaussian 88(TM) system (copyright 1988, Gaussian, Inc.),
 the Gaussian 86(TM) system (copyright 1986, Carnegie Mellon
 University), and the Gaussian 82(TM) system (copyright 1983,
 Carnegie Mellon University). Gaussian is a federally registered
 trademark of Gaussian, Inc.
  
 This software contains proprietary and confidential information,
 including trade secrets, belonging to Gaussian, Inc.
  
 This software is provided under written license and may be
 used, copied, transmitted, or stored only in accord with that
 written license.
  
 The following legend is applicable only to US Government
 contracts under FAR:
  
                    RESTRICTED RIGHTS LEGEND
  
 Use, reproduction and disclosure by the US Government is
 subject to restrictions as set forth in subparagraphs (a)
 and (c) of the Commercial Computer Software - Restricted
 Rights clause in FAR 52.227-19.
  
 Gaussian, Inc.
 340 Quinnipiac St., Bldg. 40, Wallingford CT 06492
  
  
 ---------------------------------------------------------------
 Warning -- This program may not be used in any manner that
 competes with the business of Gaussian, Inc. or will provide
 assistance to any competitor of Gaussian, Inc.  The licensee
 of this program is prohibited from giving any competitor of
 Gaussian, Inc. access to this program.  By using this program,
 the user acknowledges that Gaussian, Inc. is engaged in the
 business of creating and licensing software in the field of
 computational chemistry and represents and warrants to the
 licensee that it is not a competitor of Gaussian, Inc. and that
 it will not use this program in any manner prohibited above.
 ---------------------------------------------------------------
  

 Cite this work as:
 Gaussian 09, Revision D.01,
 M. J. Frisch, G. W. Trucks, H. B. Schlegel, G. E. Scuseria, 
 M. A. Robb, J. R. Cheeseman, G. Scalmani, V. Barone, B. Mennucci, 
 G. A. Petersson, H. Nakatsuji, M. Caricato, X. Li, H. P. Hratchian, 
 A. F. Izmaylov, J. Bloino, G. Zheng, J. L. Sonnenberg, M. Hada, 
 M. Ehara, K. Toyota, R. Fukuda, J. Hasegawa, M. Ishida, T. Nakajima, 
 Y. Honda, O. Kitao, H. Nakai, T. Vreven, J. A. Montgomery, Jr., 
 J. E. Peralta, F. Ogliaro, M. Bearpark, J. J. Heyd, E. Brothers, 
 K. N. Kudin, V. N. Staroverov, T. Keith, R. Kobayashi, J. Normand, 
 K. Raghavachari, A. Rendell, J. C. Burant, S. S. Iyengar, J. Tomasi, 
 M. Cossi, N. Rega, J. M. Millam, M. Klene, J. E. Knox, J. B. Cross, 
 V. Bakken, C. Adamo, J. Jaramillo, R. Gomperts, R. E. Stratmann, 
 O. Yazyev, A. J. Austin, R. Cammi, C. Pomelli, J. W. Ochterski, 
 R. L. Martin, K. Morokuma, V. G. Zakrzewski, G. A. Voth, 
 P. Salvador, J. J. Dannenberg, S. Dapprich, A. D. Daniels, 
 O. Farkas, J. B. Foresman, J. V. Ortiz, J. Cioslowski, 
 and D. J. Fox, Gaussian, Inc., Wallingford CT, 2013.
 
 ******************************************
 Gaussian 09:  ES64L-G09RevD.01 24-Apr-2013
                15-Dec-2015 
 ******************************************
 -------------------------------------------------------
 #P B3LYP/3-21G CIS(Singlets,NStates=15) pop(full) force
 -------------------------------------------------------
 1/10=7,30=1,38=1/1,3;
 2/12=2,17=6,18=5,40=1/2;
 3/5=5,11=9,16=1,25=1,30=1,71=1,74=-5/1,2,8,3;
 4//1;
 5/5=2,38=5/2;
 8/6=1,10=1,108=15/1;
 9/15=2,41=15,42=1,48=1/14;
 10/5=4/2;
 6/7=3,18=1/1;
 7/12=6,13=5,29=1/1,2,3,16;
 1/10=7,30=1/3;
 99//99;
 Leave Link    1 at Tue Dec 15 16:28:57 2015, MaxMem=           0 cpu:         0.0
 (Enter /home/Applications/g09/g09/l101.exe)
 --------
 FuranDFT
 --------
 Symbolic Z-matrix:
 Charge =  0 Multiplicity = 1
 6                     1.00281  -0.69431   0.00435 
 6                    -0.36455  -1.08693  -0.04177 
 8                    -1.13355   0.00795  -0.01064 
 6                    -0.35706   1.08856   0.0297 
 6                     0.95958   0.74823   0.03064 
 1                     1.77099   1.35389   0.00918 
 1                    -0.83633   2.00443   0.01398 
 1                    -0.80427  -2.08545  -0.01149 
 1                     1.79439  -1.39106  -0.01853 
 
 NAtoms=      9 NQM=        9 NQMF=       0 NMMI=      0 NMMIF=      0
                NMic=       0 NMicF=      0.
                    Isotopes and Nuclear Properties:
 (Nuclear quadrupole moments (NQMom) in fm**2, nuclear magnetic moments (NMagM)
  in nuclear magnetons)

  Atom         1           2           3           4           5           6           7           8           9
 IAtWgt=          12          12          16          12          12           1           1           1           1
 AtmWgt=  12.0000000  12.0000000  15.9949146  12.0000000  12.0000000   1.0078250   1.0078250   1.0078250   1.0078250
 NucSpn=           0           0           0           0           0           1           1           1           1
 AtZEff=   0.0000000   0.0000000   0.0000000   0.0000000   0.0000000   0.0000000   0.0000000   0.0000000   0.0000000
 NQMom=    0.0000000   0.0000000   0.0000000   0.0000000   0.0000000   0.0000000   0.0000000   0.0000000   0.0000000
 NMagM=    0.0000000   0.0000000   0.0000000   0.0000000   0.0000000   2.7928460   2.7928460   2.7928460   2.7928460
 AtZNuc=   6.0000000   6.0000000   8.0000000   6.0000000   6.0000000   1.0000000   1.0000000   1.0000000   1.0000000
 Leave Link  101 at Tue Dec 15 16:28:57 2015, MaxMem=    33554432 cpu:         0.0
 (Enter /home/Applications/g09/g09/l103.exe)

 GradGradGradGradGradGradGradGradGradGradGradGradGradGradGradGradGradGrad
 Berny optimization.
 Initialization pass.
 Trust Radius=3.00D-01 FncErr=1.00D-07 GrdErr=1.00D-07
 Number of steps in this run=      2 maximum allowed number of steps=      2.
 GradGradGradGradGradGradGradGradGradGradGradGradGradGradGradGradGradGrad

 Leave Link  103 at Tue Dec 15 16:28:57 2015, MaxMem=    33554432 cpu:         0.0
 (Enter /home/Applications/g09/g09/l202.exe)
                          Input orientation:                          
 ---------------------------------------------------------------------
 Center     Atomic      Atomic             Coordinates (Angstroms)
 Number     Number       Type             X           Y           Z
 ---------------------------------------------------------------------
      1          6           0        1.002809   -0.694310    0.004349
      2          6           0       -0.364552   -1.086932   -0.041773
      3          8           0       -1.133550    0.007953   -0.010640
      4          6           0       -0.357061    1.088564    0.029703
      5          6           0        0.959577    0.748228    0.030637
      6          1           0        1.770993    1.353893    0.009179
      7          1           0       -0.836333    2.004427    0.013983
      8          1           0       -0.804269   -2.085446   -0.011493
      9          1           0        1.794385   -1.391061   -0.018532
 ---------------------------------------------------------------------
                    Distance matrix (angstroms):
                    1          2          3          4          5
     1  C    0.000000
     2  C    1.423361   0.000000
     3  O    2.248873   1.338320   0.000000
     4  C    2.242438   2.176683   1.331271   0.000000
     5  C    1.443425   2.264150   2.220561   1.359914   0.000000
     6  H    2.187525   3.243574   3.201299   2.144629   1.012762
     7  H    3.265841   3.127649   2.018626   1.033805   2.191713
     8  H    2.280579   1.091466   2.119138   3.205625   3.338059
     9  H    1.054788   2.180377   3.245012   3.283228   2.296928
                    6          7          8          9
     6  H    0.000000
     7  H    2.687260   0.000000
     8  H    4.296679   4.090078   0.000000
     9  H    2.745194   4.295471   2.689837   0.000000
 Stoichiometry    C4H4O
 Framework group  C1[X(C4H4O)]
 Deg. of freedom    21
 Full point group                 C1      NOp   1
 Largest Abelian subgroup         C1      NOp   1
 Largest concise Abelian subgroup C1      NOp   1
                         Standard orientation:                         
 ---------------------------------------------------------------------
 Center     Atomic      Atomic             Coordinates (Angstroms)
 Number     Number       Type             X           Y           Z
 ---------------------------------------------------------------------
      1          6           0       -0.695082    0.999306   -0.007815
      2          6           0       -1.097835   -0.365665    0.016671
      3          8           0       -0.007775   -1.141947    0.000639
      4          6           0        1.078678   -0.372664   -0.009648
      5          6           0        0.747365    0.946265   -0.004641
      6          1           0        1.357938    1.753186    0.037363
      7          1           0        1.990748   -0.858447    0.020310
      8          1           0       -2.098460   -0.798087   -0.038623
      9          1           0       -1.386778    1.795466    0.008438
 ---------------------------------------------------------------------
 Rotational constants (GHZ):      9.5088055      9.2626556      4.6927728
 Leave Link  202 at Tue Dec 15 16:28:57 2015, MaxMem=    33554432 cpu:         0.0
 (Enter /home/Applications/g09/g09/l301.exe)
 Standard basis: 3-21G (6D, 7F)
 Ernie: Thresh=  0.10000D-02 Tol=  0.10000D-05 Strict=F.
 There are    53 symmetry adapted cartesian basis functions of A   symmetry.
 There are    53 symmetry adapted basis functions of A   symmetry.
    53 basis functions,    87 primitive gaussians,    53 cartesian basis functions
    18 alpha electrons       18 beta electrons
       nuclear repulsion energy       161.3405169257 Hartrees.
 IExCor=  402 DFT=T Ex+Corr=B3LYP ExCW=0 ScaHFX=  0.200000
 ScaDFX=  0.800000  0.720000  1.000000  0.810000 ScalE2=  1.000000  1.000000
 IRadAn=      0 IRanWt=     -1 IRanGd=            0 ICorTp=0 IEmpDi=  4
 NAtoms=    9 NActive=    9 NUniq=    9 SFac= 1.00D+00 NAtFMM=   60 NAOKFM=F Big=F
 Integral buffers will be    131072 words long.
 Regular integral format.
 Two-electron integral symmetry is turned on.
 Leave Link  301 at Tue Dec 15 16:28:57 2015, MaxMem=    33554432 cpu:         0.0
 (Enter /home/Applications/g09/g09/l302.exe)
 NPDir=0 NMtPBC=     1 NCelOv=     1 NCel=       1 NClECP=     1 NCelD=      1
         NCelK=      1 NCelE2=     1 NClLst=     1 CellRange=     0.0.
 One-electron integrals computed using PRISM.
 NBasis=    53 RedAO= T EigKep=  3.50D-03  NBF=    53
 NBsUse=    53 1.00D-06 EigRej= -1.00D+00 NBFU=    53
 Precomputing XC quadrature grid using
 IXCGrd= 4 IRadAn=           0 IRanWt=          -1 IRanGd=           0 AccXCQ= 0.00D+00.
 Generated NRdTot=       0 NPtTot=           0 NUsed=           0 NTot=          32
 NSgBfM=    53    53    53    53    53 MxSgAt=     9 MxSgA2=     9.
 Leave Link  302 at Tue Dec 15 16:28:57 2015, MaxMem=    33554432 cpu:         0.1
 (Enter /home/Applications/g09/g09/l308.exe)
 Leave Link  308 at Tue Dec 15 16:28:57 2015, MaxMem=    33554432 cpu:         0.0
 (Enter /home/Applications/g09/g09/l303.exe)
 DipDrv:  MaxL=1.
 Leave Link  303 at Tue Dec 15 16:28:57 2015, MaxMem=    33554432 cpu:         0.0
 (Enter /home/Applications/g09/g09/l401.exe)
 ExpMin= 1.83D-01 ExpMax= 3.22D+02 ExpMxC= 3.22D+02 IAcc=1 IRadAn=         1 AccDes= 0.00D+00
 Harris functional with IExCor=  402 and IRadAn=       1 diagonalized for initial guess.
 HarFok:  IExCor=  402 AccDes= 0.00D+00 IRadAn=         1 IDoV= 1 UseB2=F ITyADJ=14
 ICtDFT=  3500011 ScaDFX=  1.000000  1.000000  1.000000  1.000000
 FoFCou: FMM=F IPFlag=           0 FMFlag=      100000 FMFlg1=           0
         NFxFlg=           0 DoJE=T BraDBF=F KetDBF=T FulRan=T
         wScrn=  0.000000 ICntrl=     500 IOpCl=  0 I1Cent=   200000004 NGrid=           0
         NMat0=    1 NMatS0=      1 NMatT0=    0 NMatD0=    1 NMtDS0=    0 NMtDT0=    0
 Petite list used in FoFCou.
 Harris En= -228.730403611272    
 JPrj=0 DoOrth=F DoCkMO=F.
 Leave Link  401 at Tue Dec 15 16:28:58 2015, MaxMem=    33554432 cpu:         0.1
 (Enter /home/Applications/g09/g09/l502.exe)
 Closed shell SCF:
 Using DIIS extrapolation, IDIIS=  1040.
 Integral symmetry usage will be decided dynamically.
 Keep R1 ints in memory in canonical form, NReq=1925595.
 IVT=       27707 IEndB=       27707 NGot=    33554432 MDV=    32502130
 LenX=    32502130 LenY=    32498880
 Requested convergence on RMS density matrix=1.00D-08 within 128 cycles.
 Requested convergence on MAX density matrix=1.00D-06.
 Requested convergence on             energy=1.00D-06.
 No special actions if energy rises.
 FoFCou: FMM=F IPFlag=           0 FMFlag=           0 FMFlg1=           0
         NFxFlg=           0 DoJE=F BraDBF=F KetDBF=F FulRan=T
         wScrn=  0.000000 ICntrl=     600 IOpCl=  0 I1Cent=           0 NGrid=           0
         NMat0=    1 NMatS0=   1431 NMatT0=    0 NMatD0=    1 NMtDS0=    0 NMtDT0=    0
 Symmetry not used in FoFCou.
 Integral accuracy reduced to 1.0D-05 until final iterations.

 Cycle   1  Pass 0  IDiag  1:
 E= -228.656728271164    
 DIIS: error= 3.29D-02 at cycle   1 NSaved=   1.
 NSaved= 1 IEnMin= 1 EnMin= -228.656728271164     IErMin= 1 ErrMin= 3.29D-02
 ErrMax= 3.29D-02  0.00D+00 EMaxC= 1.00D-01 BMatC= 7.74D-02 BMatP= 7.74D-02
 IDIUse=3 WtCom= 6.71D-01 WtEn= 3.29D-01
 Coeff-Com:  0.100D+01
 Coeff-En:   0.100D+01
 Coeff:      0.100D+01
 Gap=     0.221 Goal=   None    Shift=    0.000
 GapD=    0.221 DampG=1.000 DampE=0.500 DampFc=0.5000 IDamp=-1.
 Damping current iteration by 5.00D-01
 RMSDP=1.24D-02 MaxDP=1.13D-01              OVMax= 2.19D-01

 Cycle   2  Pass 0  IDiag  1:
 E= -228.685936223281     Delta-E=       -0.029207952117 Rises=F Damp=T
 DIIS: error= 1.62D-02 at cycle   2 NSaved=   2.
 NSaved= 2 IEnMin= 2 EnMin= -228.685936223281     IErMin= 2 ErrMin= 1.62D-02
 ErrMax= 1.62D-02  0.00D+00 EMaxC= 1.00D-01 BMatC= 1.05D-02 BMatP= 7.74D-02
 IDIUse=3 WtCom= 8.38D-01 WtEn= 1.62D-01
 Coeff-Com:  0.139D+00 0.861D+00
 Coeff-En:   0.242D+00 0.758D+00
 Coeff:      0.155D+00 0.845D+00
 Gap=     0.241 Goal=   None    Shift=    0.000
 RMSDP=4.39D-03 MaxDP=3.63D-02 DE=-2.92D-02 OVMax= 1.79D-01

 Cycle   3  Pass 0  IDiag  1:
 E= -228.728132733525     Delta-E=       -0.042196510243 Rises=F Damp=F
 DIIS: error= 1.99D-02 at cycle   3 NSaved=   3.
 NSaved= 3 IEnMin= 3 EnMin= -228.728132733525     IErMin= 2 ErrMin= 1.62D-02
 ErrMax= 1.99D-02  0.00D+00 EMaxC= 1.00D-01 BMatC= 1.13D-02 BMatP= 1.05D-02
 IDIUse=3 WtCom= 8.01D-01 WtEn= 1.99D-01
 Coeff-Com: -0.528D-02 0.511D+00 0.494D+00
 Coeff-En:   0.000D+00 0.000D+00 0.100D+01
 Coeff:     -0.423D-02 0.410D+00 0.595D+00
 Gap=     0.244 Goal=   None    Shift=    0.000
 RMSDP=2.89D-03 MaxDP=2.48D-02 DE=-4.22D-02 OVMax= 5.58D-02

 Cycle   4  Pass 0  IDiag  1:
 E= -228.736396686634     Delta-E=       -0.008263953110 Rises=F Damp=F
 DIIS: error= 1.05D-02 at cycle   4 NSaved=   4.
 NSaved= 4 IEnMin= 4 EnMin= -228.736396686634     IErMin= 4 ErrMin= 1.05D-02
 ErrMax= 1.05D-02  0.00D+00 EMaxC= 1.00D-01 BMatC= 2.61D-03 BMatP= 1.05D-02
 IDIUse=3 WtCom= 8.95D-01 WtEn= 1.05D-01
 Coeff-Com:  0.979D-02 0.521D-01 0.327D+00 0.611D+00
 Coeff-En:   0.000D+00 0.000D+00 0.214D+00 0.786D+00
 Coeff:      0.876D-02 0.466D-01 0.315D+00 0.629D+00
 Gap=     0.249 Goal=   None    Shift=    0.000
 RMSDP=9.70D-04 MaxDP=9.01D-03 DE=-8.26D-03 OVMax= 2.06D-02

 Cycle   5  Pass 0  IDiag  1:
 E= -228.738624756887     Delta-E=       -0.002228070253 Rises=F Damp=F
 DIIS: error= 1.62D-03 at cycle   5 NSaved=   5.
 NSaved= 5 IEnMin= 5 EnMin= -228.738624756887     IErMin= 5 ErrMin= 1.62D-03
 ErrMax= 1.62D-03  0.00D+00 EMaxC= 1.00D-01 BMatC= 9.42D-05 BMatP= 2.61D-03
 IDIUse=3 WtCom= 9.84D-01 WtEn= 1.62D-02
 Coeff-Com:  0.660D-02 0.184D-02 0.154D+00 0.370D+00 0.468D+00
 Coeff-En:   0.000D+00 0.000D+00 0.000D+00 0.000D+00 0.100D+01
 Coeff:      0.650D-02 0.181D-02 0.152D+00 0.364D+00 0.476D+00
 Gap=     0.249 Goal=   None    Shift=    0.000
 RMSDP=1.37D-04 MaxDP=1.39D-03 DE=-2.23D-03 OVMax= 2.39D-03

 Cycle   6  Pass 0  IDiag  1:
 E= -228.738693993854     Delta-E=       -0.000069236967 Rises=F Damp=F
 DIIS: error= 1.38D-04 at cycle   6 NSaved=   6.
 NSaved= 6 IEnMin= 6 EnMin= -228.738693993854     IErMin= 6 ErrMin= 1.38D-04
 ErrMax= 1.38D-04  0.00D+00 EMaxC= 1.00D-01 BMatC= 9.47D-07 BMatP= 9.42D-05
 IDIUse=3 WtCom= 9.99D-01 WtEn= 1.38D-03
 Coeff-Com:  0.161D-02-0.452D-02 0.131D-01 0.482D-01 0.129D+00 0.813D+00
 Coeff-En:   0.000D+00 0.000D+00 0.000D+00 0.000D+00 0.000D+00 0.100D+01
 Coeff:      0.161D-02-0.452D-02 0.131D-01 0.481D-01 0.129D+00 0.813D+00
 Gap=     0.249 Goal=   None    Shift=    0.000
 RMSDP=2.53D-05 MaxDP=3.07D-04 DE=-6.92D-05 OVMax= 4.97D-04

 Cycle   7  Pass 0  IDiag  1:
 E= -228.738694746967     Delta-E=       -0.000000753113 Rises=F Damp=F
 DIIS: error= 6.67D-05 at cycle   7 NSaved=   7.
 NSaved= 7 IEnMin= 7 EnMin= -228.738694746967     IErMin= 7 ErrMin= 6.67D-05
 ErrMax= 6.67D-05  0.00D+00 EMaxC= 1.00D-01 BMatC= 1.93D-07 BMatP= 9.47D-07
 IDIUse=1 WtCom= 1.00D+00 WtEn= 0.00D+00
 Coeff-Com:  0.833D-03-0.271D-02 0.415D-02 0.193D-01 0.630D-01 0.475D+00
 Coeff-Com:  0.440D+00
 Coeff:      0.833D-03-0.271D-02 0.415D-02 0.193D-01 0.630D-01 0.475D+00
 Coeff:      0.440D+00
 Gap=     0.249 Goal=   None    Shift=    0.000
 RMSDP=7.62D-06 MaxDP=7.37D-05 DE=-7.53D-07 OVMax= 2.04D-04

 Initial convergence to 1.0D-05 achieved.  Increase integral accuracy.
 Cycle   8  Pass 1  IDiag  1:
 E= -228.738727486694     Delta-E=       -0.000032739727 Rises=F Damp=F
 DIIS: error= 2.01D-05 at cycle   1 NSaved=   1.
 NSaved= 1 IEnMin= 1 EnMin= -228.738727486694     IErMin= 1 ErrMin= 2.01D-05
 ErrMax= 2.01D-05  0.00D+00 EMaxC= 1.00D-01 BMatC= 1.51D-08 BMatP= 1.51D-08
 IDIUse=1 WtCom= 1.00D+00 WtEn= 0.00D+00
 Coeff-Com:  0.100D+01
 Coeff:      0.100D+01
 Gap=     0.249 Goal=   None    Shift=    0.000
 RMSDP=7.62D-06 MaxDP=7.37D-05 DE=-3.27D-05 OVMax= 7.14D-05

 Cycle   9  Pass 1  IDiag  1:
 E= -228.738727495821     Delta-E=       -0.000000009127 Rises=F Damp=F
 DIIS: error= 1.71D-05 at cycle   2 NSaved=   2.
 NSaved= 2 IEnMin= 2 EnMin= -228.738727495821     IErMin= 2 ErrMin= 1.71D-05
 ErrMax= 1.71D-05  0.00D+00 EMaxC= 1.00D-01 BMatC= 9.88D-09 BMatP= 1.51D-08
 IDIUse=1 WtCom= 1.00D+00 WtEn= 0.00D+00
 Coeff-Com:  0.428D+00 0.572D+00
 Coeff:      0.428D+00 0.572D+00
 Gap=     0.249 Goal=   None    Shift=    0.000
 RMSDP=3.05D-06 MaxDP=3.46D-05 DE=-9.13D-09 OVMax= 7.76D-05

 Cycle  10  Pass 1  IDiag  1:
 E= -228.738727502439     Delta-E=       -0.000000006617 Rises=F Damp=F
 DIIS: error= 1.05D-05 at cycle   3 NSaved=   3.
 NSaved= 3 IEnMin= 3 EnMin= -228.738727502439     IErMin= 3 ErrMin= 1.05D-05
 ErrMax= 1.05D-05  0.00D+00 EMaxC= 1.00D-01 BMatC= 3.74D-09 BMatP= 9.88D-09
 IDIUse=1 WtCom= 1.00D+00 WtEn= 0.00D+00
 Coeff-Com:  0.140D-03 0.379D+00 0.621D+00
 Coeff:      0.140D-03 0.379D+00 0.621D+00
 Gap=     0.249 Goal=   None    Shift=    0.000
 RMSDP=1.22D-06 MaxDP=1.02D-05 DE=-6.62D-09 OVMax= 2.65D-05

 Cycle  11  Pass 1  IDiag  1:
 E= -228.738727506088     Delta-E=       -0.000000003650 Rises=F Damp=F
 DIIS: error= 2.63D-06 at cycle   4 NSaved=   4.
 NSaved= 4 IEnMin= 4 EnMin= -228.738727506088     IErMin= 4 ErrMin= 2.63D-06
 ErrMax= 2.63D-06  0.00D+00 EMaxC= 1.00D-01 BMatC= 1.79D-10 BMatP= 3.74D-09
 IDIUse=1 WtCom= 1.00D+00 WtEn= 0.00D+00
 Coeff-Com: -0.167D-01 0.214D+00 0.379D+00 0.424D+00
 Coeff:     -0.167D-01 0.214D+00 0.379D+00 0.424D+00
 Gap=     0.249 Goal=   None    Shift=    0.000
 RMSDP=2.49D-07 MaxDP=2.08D-06 DE=-3.65D-09 OVMax= 5.13D-06

 Cycle  12  Pass 1  IDiag  1:
 E= -228.738727506233     Delta-E=       -0.000000000144 Rises=F Damp=F
 DIIS: error= 4.80D-07 at cycle   5 NSaved=   5.
 NSaved= 5 IEnMin= 5 EnMin= -228.738727506233     IErMin= 5 ErrMin= 4.80D-07
 ErrMax= 4.80D-07  0.00D+00 EMaxC= 1.00D-01 BMatC= 7.06D-12 BMatP= 1.79D-10
 IDIUse=1 WtCom= 1.00D+00 WtEn= 0.00D+00
 Coeff-Com: -0.733D-02 0.749D-01 0.137D+00 0.215D+00 0.580D+00
 Coeff:     -0.733D-02 0.749D-01 0.137D+00 0.215D+00 0.580D+00
 Gap=     0.249 Goal=   None    Shift=    0.000
 RMSDP=5.87D-08 MaxDP=6.73D-07 DE=-1.44D-10 OVMax= 1.39D-06

 Cycle  13  Pass 1  IDiag  1:
 E= -228.738727506239     Delta-E=       -0.000000000006 Rises=F Damp=F
 DIIS: error= 1.16D-07 at cycle   6 NSaved=   6.
 NSaved= 6 IEnMin= 6 EnMin= -228.738727506239     IErMin= 6 ErrMin= 1.16D-07
 ErrMax= 1.16D-07  0.00D+00 EMaxC= 1.00D-01 BMatC= 4.92D-13 BMatP= 7.06D-12
 IDIUse=1 WtCom= 1.00D+00 WtEn= 0.00D+00
 Coeff-Com: -0.151D-02 0.114D-01 0.226D-01 0.517D-01 0.256D+00 0.660D+00
 Coeff:     -0.151D-02 0.114D-01 0.226D-01 0.517D-01 0.256D+00 0.660D+00
 Gap=     0.249 Goal=   None    Shift=    0.000
 RMSDP=2.04D-08 MaxDP=2.38D-07 DE=-6.48D-12 OVMax= 5.86D-07

 Cycle  14  Pass 1  IDiag  1:
 E= -228.738727506239     Delta-E=        0.000000000000 Rises=F Damp=F
 DIIS: error= 5.61D-08 at cycle   7 NSaved=   7.
 NSaved= 7 IEnMin= 7 EnMin= -228.738727506239     IErMin= 7 ErrMin= 5.61D-08
 ErrMax= 5.61D-08  0.00D+00 EMaxC= 1.00D-01 BMatC= 1.25D-13 BMatP= 4.92D-13
 IDIUse=1 WtCom= 1.00D+00 WtEn= 0.00D+00
 Coeff-Com: -0.123D-03-0.205D-02-0.272D-02 0.616D-02 0.856D-01 0.404D+00
 Coeff-Com:  0.509D+00
 Coeff:     -0.123D-03-0.205D-02-0.272D-02 0.616D-02 0.856D-01 0.404D+00
 Coeff:      0.509D+00
 Gap=     0.249 Goal=   None    Shift=    0.000
 RMSDP=6.59D-09 MaxDP=6.08D-08 DE=-3.41D-13 OVMax= 1.15D-07

 SCF Done:  E(RB3LYP) =  -228.738727506     A.U. after   14 cycles
            NFock= 14  Conv=0.66D-08     -V/T= 2.0077
 KE= 2.269965049770D+02 PE=-8.552252010917D+02 EE= 2.381494516828D+02
 Leave Link  502 at Tue Dec 15 16:29:01 2015, MaxMem=    33554432 cpu:         3.2
 (Enter /home/Applications/g09/g09/l801.exe)
 DoSCS=F DFT=T ScalE2(SS,OS)=  1.000000  1.000000
 ExpMin= 1.83D-01 ExpMax= 3.22D+02 ExpMxC= 3.22D+02 IAcc=3 IRadAn=         5 AccDes= 0.00D+00
 HarFok:  IExCor=  205 AccDes= 0.00D+00 IRadAn=         5 IDoV=-2 UseB2=F ITyADJ=14
 ICtDFT= 12500011 ScaDFX=  1.000000  1.000000  1.000000  1.000000
 Largest valence mixing into a core orbital is  1.74D-04
 Largest core mixing into a valence orbital is  4.55D-05
 Range of M.O.s used for correlation:     6    53
 NBasis=    53 NAE=    18 NBE=    18 NFC=     5 NFV=     0
 NROrb=     48 NOA=    13 NOB=    13 NVA=    35 NVB=    35
 Leave Link  801 at Tue Dec 15 16:29:01 2015, MaxMem=    33554432 cpu:         0.2
 (Enter /home/Applications/g09/g09/l914.exe)
 RHF ground state
 MDV=    33554432 DFT=T DoStab=F Mixed=T DoRPA=F DoScal=F NonHer=F
 Keep R1, R2, and R3 ints in memory in canonical form, NReq=5596273.
 FoFCou: FMM=F IPFlag=           0 FMFlag=           0 FMFlg1=           0
         NFxFlg=           0 DoJE=F BraDBF=F KetDBF=F FulRan=T
         wScrn=  0.000000 ICntrl=     600 IOpCl=  0 I1Cent=           0 NGrid=           0
         NMat0=    1 NMatS0=   1431 NMatT0=    0 NMatD0=    1 NMtDS0=    0 NMtDT0=    0
 Symmetry not used in FoFCou.
 Making orbital integer symmetry assigments:
 Orbital symmetries:
       Occupied  (A) (A) (A) (A) (A) (A) (A) (A) (A) (A) (A) (A)
                 (A) (A) (A) (A) (A) (A)
       Virtual   (A) (A) (A) (A) (A) (A) (A) (A) (A) (A) (A) (A)
                 (A) (A) (A) (A) (A) (A) (A) (A) (A) (A) (A) (A)
                 (A) (A) (A) (A) (A) (A) (A) (A) (A) (A) (A)
    60 initial guesses have been made.
 Convergence on wavefunction:    0.000001000000000
 Davidson Disk Diagonalization:  ConvIn= 1.00D-06 SkipCon=T Conv= 1.00D-06.
 Max sub-space:   240 roots to seek:    60 dimension of matrix:          910
 Iteration     1 Dimension    60 NMult     0 NNew     60
 CISAX will form    60 AO SS matrices at one time.
 NMat=    60 NSing=    60 JSym2X= 0.
 New state      1 was old state      3
 New state      2 was old state      1
 New state      3 was old state      6
 New state      4 was old state      5
 New state      5 was old state      7
 New state      6 was old state      8
 New state      7 was old state      4
 New state      8 was old state     12
 New state     10 was old state     11
 New state     11 was old state     13
 New state     12 was old state     14
 New state     13 was old state     10
 New state     14 was old state      2
 Excitation Energies [eV] at current iteration:
 Root      1 :     7.175969806250903
 Root      2 :     8.114301806246585
 Root      3 :     8.688498690423753
 Root      4 :     8.973865854568590
 Root      5 :     9.230980945288010
 Root      6 :     9.944783223744674
 Root      7 :     9.960069710664888
 Root      8 :    10.053105737698890
 Root      9 :    10.221936091094540
 Root     10 :    10.288453636067010
 Root     11 :    10.533905042589720
 Root     12 :    10.561840527595820
 Root     13 :    10.583126744396080
 Root     14 :    10.840942831804930
 Root     15 :    11.101420362224710
 Root     16 :    11.291296218355940
 Root     17 :    11.386148405505200
 Root     18 :    11.411703940016000
 Root     19 :    11.708223115012520
 Root     20 :    11.773638913145000
 Root     21 :    11.874698363855170
 Root     22 :    12.267226767514160
 Root     23 :    12.470553092274980
 Root     24 :    12.608182826577660
 Root     25 :    12.641212498797500
 Root     26 :    13.388718001736070
 Root     27 :    13.585893552137810
 Root     28 :    13.909015013167310
 Root     29 :    14.020795393615720
 Root     30 :    14.074893362605200
 Root     31 :    14.126129308995710
 Root     32 :    14.201130871579390
 Root     33 :    14.233062604149550
 Root     34 :    14.403507059663080
 Root     35 :    14.650303477128710
 Root     36 :    14.831844875229350
 Root     37 :    14.983950316117200
 Root     38 :    15.114361992985690
 Root     39 :    15.176891837940500
 Root     40 :    15.280462182461210
 Root     41 :    15.360902599564430
 Root     42 :    15.447213374812920
 Root     43 :    15.506150658137800
 Root     44 :    15.547226753377020
 Root     45 :    15.629357297149250
 Root     46 :    15.717325381481200
 Root     47 :    15.786995949464480
 Root     48 :    15.853759561924350
 Root     49 :    15.904534447434310
 Root     50 :    16.005315318612260
 Root     51 :    16.118590985502720
 Root     52 :    16.256856059181140
 Root     53 :    16.418015273421800
 Root     54 :    16.481800052666420
 Root     55 :    16.677972789152520
 Root     56 :    16.925229078461010
 Root     57 :    17.005347301775150
 Root     58 :    17.582929321330490
 Root     59 :    17.855765625631750
 Root     60 :    17.981813501015300
 Iteration     2 Dimension   120 NMult    60 NNew     60
 CISAX will form    60 AO SS matrices at one time.
 NMat=    60 NSing=    60 JSym2X= 0.
 Root      1 not converged, maximum delta is    0.033556380223745
 Root      2 not converged, maximum delta is    0.051583636668773
 Root      3 not converged, maximum delta is    0.024442591704894
 Root      4 not converged, maximum delta is    0.020129063263513
 Root      5 not converged, maximum delta is    0.132969593638533
 New state      6 was old state      7
 Root      6 not converged, maximum delta is    0.405483713500276
 New state      7 was old state     14
 Root      7 not converged, maximum delta is    0.219068475821298
 New state      8 was old state      6
 Root      8 not converged, maximum delta is    0.338072150587279
 New state      9 was old state      8
 Root      9 not converged, maximum delta is    0.303522918994585
 New state     10 was old state      9
 Root     10 not converged, maximum delta is    0.084721069002715
 New state     11 was old state     10
 Root     11 not converged, maximum delta is    0.037291933642812
 New state     12 was old state     11
 Root     12 not converged, maximum delta is    0.081543701981505
 New state     13 was old state     12
 Root     13 not converged, maximum delta is    0.057554880403827
 New state     14 was old state     13
 Root     14 not converged, maximum delta is    0.034223142523000
 Root     15 not converged, maximum delta is    0.017668055921405
 Excitation Energies [eV] at current iteration:
 Root      1 :     7.048484735062395   Change is   -0.127485071188508
 Root      2 :     7.251091612673768   Change is   -0.863210193572817
 Root      3 :     8.659462762671312   Change is   -0.029035927752441
 Root      4 :     8.961880060500318   Change is   -0.011985794068272
 Root      5 :     9.195969677869982   Change is   -0.035011267418029
 Root      6 :     9.299610678420594   Change is   -0.660459032244294
 Root      7 :     9.677559940978885   Change is   -1.163382890826042
 Root      8 :     9.939556938587998   Change is   -0.005226285156676
 Root      9 :    10.028312090592580   Change is   -0.024793647106314
 Root     10 :    10.219286476207830   Change is   -0.002649614886708
 Root     11 :    10.264599417531480   Change is   -0.023854218535528
 Root     12 :    10.513933740531330   Change is   -0.019971302058387
 Root     13 :    10.553536398693660   Change is   -0.008304128902158
 Root     14 :    10.570299202901390   Change is   -0.012827541494691
 Root     15 :    11.082768741577170   Change is   -0.018651620647543
 Root     16 :    11.258698167391570   Change is   -0.032598050964367
 Root     17 :    11.367007567254440   Change is   -0.019140838250756
 Root     18 :    11.397490860504810   Change is   -0.014213079511187
 Root     19 :    11.674349532490940   Change is   -0.033873582521589
 Root     20 :    11.737462392414990   Change is   -0.036176520730010
 Root     21 :    11.837764325523250   Change is   -0.036934038331922
 Root     22 :    12.238521948854180   Change is   -0.028704818659983
 Root     23 :    12.363855299013590   Change is   -0.244327527564067
 Root     24 :    12.444653482990800   Change is   -0.025899609284175
 Root     25 :    12.571323989315460   Change is   -0.069888509482042
 Root     26 :    13.148447508617970   Change is   -1.683397366611380
 Root     27 :    13.333067228353850   Change is   -0.055650773382227
 Root     28 :    13.542803256151430   Change is   -0.366211757015877
 Root     29 :    13.607327542282870   Change is    0.021433990145059
 Root     30 :    13.991657236154110   Change is   -0.029138157461606
 Root     31 :    14.083687417837530   Change is    0.008794055232330
 Root     32 :    14.094443323340300   Change is   -0.031685985655417
 Root     33 :    14.164900144125920   Change is   -0.036230727453469
 Root     34 :    14.317074564938090   Change is    0.084011960788546
 Root     35 :    14.354775989141220   Change is   -0.048731070521860
 Root     36 :    14.572396209933080   Change is   -0.077907267195635
 Root     37 :    14.808623719593970   Change is   -0.175326596523223
 Root     38 :    14.940162772617490   Change is   -0.420739826946942
 Root     39 :    15.071179376691510   Change is   -0.105712461248981
 Root     40 :    15.081533105231760   Change is   -0.032828887753936
 Root     41 :    15.250964272169940   Change is   -0.029497910291276
 Root     42 :    15.393896459241940   Change is   -0.053316915570981
 Root     43 :    15.459831113686810   Change is   -0.046319544450988
 Root     44 :    15.470501906056390   Change is   -0.158855391092867
 Root     45 :    15.486404490474330   Change is   -0.060822262902690
 Root     46 :    15.540389543931000   Change is   -0.246606405533485
 Root     47 :    15.674446590861570   Change is   -0.042878790619628
 Root     48 :    15.703876497800870   Change is   -0.149883064123485
 Root     49 :    15.849811216768290   Change is   -0.155504101843973
 Root     50 :    15.872915865581170   Change is   -0.031618581853139
 Root     51 :    15.933973034836900   Change is   -0.184617950665821
 Root     52 :    16.218124943698870   Change is   -0.199890329722937
 Root     53 :    16.232509979673840   Change is   -0.024346079507303
 Root     54 :    16.341853366411550   Change is   -0.336119422740978
 Root     55 :    16.385962903880060   Change is   -0.095837148786356
 Root     56 :    16.530512570518200   Change is   -1.052416750812287
 Root     57 :    16.652568027650660   Change is   -1.203197597981089
 Root     58 :    16.904163063088440   Change is   -0.021066015372569
 Root     59 :    16.982765350166620   Change is   -0.999048150848683
 Root     60 :    17.133979138630820   Change is    0.128631836855669
 Iteration     3 Dimension   135 NMult   120 NNew     15
 CISAX will form    15 AO SS matrices at one time.
 NMat=    15 NSing=    15 JSym2X= 0.
 Root      1 not converged, maximum delta is    0.001108362645731
 Root      2 not converged, maximum delta is    0.002639865341808
 Root      3 not converged, maximum delta is    0.000219467658174
 Root      4 not converged, maximum delta is    0.000224921645609
 Root      5 not converged, maximum delta is    0.004313963561383
 Root      6 not converged, maximum delta is    0.006870819925248
 Root      7 not converged, maximum delta is    0.002768095584103
 Root      8 not converged, maximum delta is    0.000098006978797
 Root      9 not converged, maximum delta is    0.000670824027311
 Root     10 not converged, maximum delta is    0.000325787205972
 Root     11 not converged, maximum delta is    0.000498272055086
 Root     12 not converged, maximum delta is    0.000264527734809
 Root     13 not converged, maximum delta is    0.000159195680908
 Root     14 not converged, maximum delta is    0.000222517769681
 Root     15 not converged, maximum delta is    0.000435176274279
 Excitation Energies [eV] at current iteration:
 Root      1 :     7.047716224743316   Change is   -0.000768510319079
 Root      2 :     7.249000411192800   Change is   -0.002091201480968
 Root      3 :     8.659435589960930   Change is   -0.000027172710383
 Root      4 :     8.961862259554618   Change is   -0.000017800945700
 Root      5 :     9.195441187469322   Change is   -0.000528490400659
 Root      6 :     9.296993476914032   Change is   -0.002617201506562
 Root      7 :     9.673362434254756   Change is   -0.004197506724130
 Root      8 :     9.939547680930058   Change is   -0.000009257657941
 Root      9 :    10.028221087772390   Change is   -0.000091002820189
 Root     10 :    10.219246992014470   Change is   -0.000039484193362
 Root     11 :    10.264540798098340   Change is   -0.000058619433134
 Root     12 :    10.513900112802220   Change is   -0.000033627729109
 Root     13 :    10.553521012071840   Change is   -0.000015386621818
 Root     14 :    10.570275599397820   Change is   -0.000023603503570
 Root     15 :    11.082743733248250   Change is   -0.000025008328915
 Iteration     4 Dimension   150 NMult   135 NNew     15
 CISAX will form    15 AO SS matrices at one time.
 NMat=    15 NSing=    15 JSym2X= 0.
 Root      1 not converged, maximum delta is    0.000033162415982
 Root      2 not converged, maximum delta is    0.000092418132635
 Root      3 not converged, maximum delta is    0.000003848569255
 Root      4 not converged, maximum delta is    0.000006005032585
 Root      5 not converged, maximum delta is    0.000034202829097
 Root      6 not converged, maximum delta is    0.000065067700308
 Root      7 not converged, maximum delta is    0.000106274989132
 Root      8 not converged, maximum delta is    0.000003264028501
 Root      9 not converged, maximum delta is    0.000016008089122
 Root     10 not converged, maximum delta is    0.000013001481303
 Root     11 not converged, maximum delta is    0.000008534764164
 Root     12 not converged, maximum delta is    0.000005640114773
 Root     13 not converged, maximum delta is    0.000006733924462
 Root     14 not converged, maximum delta is    0.000004346495708
 Root     15 not converged, maximum delta is    0.000015557169175
 Excitation Energies [eV] at current iteration:
 Root      1 :     7.047715397842788   Change is   -0.000000826900528
 Root      2 :     7.248997890743293   Change is   -0.000002520449507
 Root      3 :     8.659435576910429   Change is   -0.000000013050502
 Root      4 :     8.961862237748054   Change is   -0.000000021806564
 Root      5 :     9.195440354626649   Change is   -0.000000832842673
 Root      6 :     9.296989448946652   Change is   -0.000004027967381
 Root      7 :     9.673355317364916   Change is   -0.000007116889840
 Root      8 :     9.939547673020462   Change is   -0.000000007909596
 Root      9 :    10.028220942854690   Change is   -0.000000144917694
 Root     10 :    10.219246924552100   Change is   -0.000000067462367
 Root     11 :    10.264540763608120   Change is   -0.000000034490223
 Root     12 :    10.513900083746700   Change is   -0.000000029055520
 Root     13 :    10.553520994521500   Change is   -0.000000017550346
 Root     14 :    10.570275582302270   Change is   -0.000000017095551
 Root     15 :    11.082743706608420   Change is   -0.000000026639834
 Iteration     5 Dimension   165 NMult   150 NNew     15
 CISAX will form    15 AO SS matrices at one time.
 NMat=    15 NSing=    15 JSym2X= 0.
 Root      1 has converged.
 Root      2 not converged, maximum delta is    0.000002819912521
 Root      3 has converged.
 Root      4 has converged.
 Root      5 not converged, maximum delta is    0.000001081935650
 Root      6 not converged, maximum delta is    0.000002799423807
 Root      7 not converged, maximum delta is    0.000003416682187
 Root      8 has converged.
 Root      9 has converged.
 Root     10 has converged.
 Root     11 has converged.
 Root     12 has converged.
 Root     13 has converged.
 Root     14 has converged.
 Root     15 has converged.
 Excitation Energies [eV] at current iteration:
 Root      1 :     7.047715397225338   Change is   -0.000000000617449
 Root      2 :     7.248997888552340   Change is   -0.000000002190953
 Root      3 :     8.659435576901981   Change is   -0.000000000008447
 Root      4 :     8.961862237727674   Change is   -0.000000000020380
 Root      5 :     9.195440353918462   Change is   -0.000000000708187
 Root      6 :     9.296989445449354   Change is   -0.000000003497297
 Root      7 :     9.673355310844267   Change is   -0.000000006520648
 Root      8 :     9.939547673011489   Change is   -0.000000000008973
 Root      9 :    10.028220942719990   Change is   -0.000000000134707
 Root     10 :    10.219246924487830   Change is   -0.000000000064275
 Root     11 :    10.264540763586310   Change is   -0.000000000021814
 Root     12 :    10.513900083717560   Change is   -0.000000000029138
 Root     13 :    10.553520994503060   Change is   -0.000000000018438
 Root     14 :    10.570275582283440   Change is   -0.000000000018830
 Root     15 :    11.082743706573990   Change is   -0.000000000034430
 Iteration     6 Dimension   169 NMult   165 NNew      4
 CISAX will form     4 AO SS matrices at one time.
 NMat=     4 NSing=     4 JSym2X= 0.
 Root      1 has converged.
 Root      2 has converged.
 Root      3 has converged.
 Root      4 has converged.
 Root      5 has converged.
 Root      6 has converged.
 Root      7 has converged.
 Root      8 has converged.
 Root      9 has converged.
 Root     10 has converged.
 Root     11 has converged.
 Root     12 has converged.
 Root     13 has converged.
 Root     14 has converged.
 Root     15 has converged.
 Excitation Energies [eV] at current iteration:
 Root      1 :     7.047715397225325   Change is   -0.000000000000014
 Root      2 :     7.248997888551392   Change is   -0.000000000000949
 Root      3 :     8.659435576901986   Change is    0.000000000000005
 Root      4 :     8.961862237727678   Change is    0.000000000000003
 Root      5 :     9.195440353918078   Change is   -0.000000000000384
 Root      6 :     9.296989445447224   Change is   -0.000000000002130
 Root      7 :     9.673355310838362   Change is   -0.000000000005905
 Root      8 :     9.939547673011470   Change is   -0.000000000000020
 Root      9 :    10.028220942719890   Change is   -0.000000000000095
 Root     10 :    10.219246924487760   Change is   -0.000000000000073
 Root     11 :    10.264540763586280   Change is   -0.000000000000024
 Root     12 :    10.513900083717540   Change is   -0.000000000000026
 Root     13 :    10.553520994503060   Change is    0.000000000000000
 Root     14 :    10.570275582283430   Change is   -0.000000000000006
 Root     15 :    11.082743706573990   Change is    0.000000000000002
 Convergence achieved on expansion vectors.
 ***********************************************************************
 Excited states from <AA,BB:AA,BB> singles matrix:
 ***********************************************************************
 
 1PDM for each excited state written to RWF  633
 Ground to excited state transition densities written to RWF  633
 Ground to excited state transition electric dipole moments (Au):
       state          X           Y           Z        Dip. S.      Osc.
         1         0.0295      0.0160     -0.0068      0.0012      0.0002
         2         1.1498      0.1371     -0.0516      1.3434      0.2386
         3        -0.0468      0.0062     -0.1282      0.0187      0.0040
         4         0.0438     -0.0664      0.0412      0.0080      0.0018
         5        -0.2424      0.4374     -0.0149      0.2503      0.0564
         6         0.7327     -0.7908      0.0073      1.1622      0.2647
         7         0.4459      1.2685     -0.0108      1.8081      0.4285
         8         0.0072     -0.0266      0.0513      0.0034      0.0008
         9        -0.0001     -0.1854      0.0476      0.0367      0.0090
        10        -0.0091     -0.1207     -0.0635      0.0187      0.0047
        11         0.0062     -0.0217     -0.0096      0.0006      0.0002
        12        -0.0455     -0.0126      0.0305      0.0032      0.0008
        13        -0.0125     -0.0202      0.0361      0.0019      0.0005
        14         0.0467     -0.0120     -0.0264      0.0030      0.0008
        15        -0.0282      0.0213      0.0402      0.0029      0.0008
 Ground to excited state transition velocity dipole moments (Au):
       state          X           Y           Z        Dip. S.      Osc.
         1         0.0014     -0.0446      0.0007      0.0020      0.0051
         2        -0.0016      0.0089     -0.0005      0.0001      0.0002
         3         0.0056      0.0020      0.0738      0.0055      0.0115
         4        -0.0013      0.0018      0.0145      0.0002      0.0004
         5         0.0192     -0.0080     -0.0133      0.0006      0.0012
         6        -0.0692      0.0124      0.0009      0.0049      0.0096
         7        -0.0439     -0.0407      0.0006      0.0036      0.0067
         8        -0.0072      0.0024     -0.0454      0.0021      0.0039
         9         0.0018      0.0111     -0.0352      0.0014      0.0025
        10         0.0036      0.0048     -0.0091      0.0001      0.0002
        11         0.0011      0.0010     -0.0210      0.0004      0.0008
        12         0.0064     -0.0009      0.0113      0.0002      0.0003
        13         0.0043     -0.0009     -0.0025      0.0000      0.0000
        14        -0.0064      0.0010     -0.0381      0.0015      0.0026
        15         0.0065     -0.0062     -0.0017      0.0001      0.0001
 Ground to excited state transition magnetic dipole moments (Au):
       state          X           Y           Z
         1         0.0081      0.0268     -0.0099
         2        -0.0408      0.0028      0.3590
         3        -1.6368      0.1095     -0.0267
         4         0.0712      0.3953      0.0194
         5        -0.0324      0.3560      0.0212
         6        -0.0179      0.0735     -0.1122
         7         0.0331      0.0086     -0.2533
         8        -0.1438     -0.0903     -0.0232
         9         0.0486      0.7563      0.0270
        10        -0.1026     -0.1859     -0.0236
        11        -0.1920      0.1649      0.0157
        12        -0.2277      0.1314      0.0506
        13         0.0959     -0.1186     -0.0190
        14         0.1219     -0.0301     -0.0066
        15         0.0844      0.2979     -0.0005
 Ground to excited state transition velocity quadrupole moments (Au):
       state          XX          YY          ZZ          XY          XZ          YZ
         1        -0.0086     -0.0202      0.0192      0.0021      0.0009     -0.0001
         2         0.0267     -0.0170     -0.0017      0.2246      0.0017     -0.0016
         3        -0.0060      0.0018      0.0011     -0.0210     -0.0040     -0.1827
         4        -0.0298      0.0123     -0.0020      0.0019     -0.1512      0.0193
         5         0.0671     -0.0540     -0.0084      0.0797      0.1083      0.0284
         6        -0.1299      0.1133      0.0191     -0.2427      0.0554      0.0052
         7         0.2486     -0.1954     -0.0382     -0.2153     -0.0119     -0.0031
         8         0.0027     -0.0040      0.0004      0.0023     -0.0742      0.0665
         9        -0.0550      0.0269      0.0093     -0.0041     -0.0266      0.0186
        10        -0.0287      0.0238      0.0035     -0.0019      0.0176     -0.0307
        11        -0.0103     -0.0038     -0.0021      0.0040      0.0285     -0.1189
        12        -0.0041      0.0071     -0.0040      0.0443      0.0259     -0.1228
        13        -0.0133      0.0094      0.0070      0.0032      0.0266      0.0528
        14        -0.0134      0.0100     -0.0005     -0.0236      0.0016     -0.0253
        15        -0.0140      0.0083     -0.0016      0.0099      0.0328      0.0239
 <0|del|b> * <b|rxdel|0> + <0|del|b> * <b|delr+rdel|0>
 Rotatory Strengths (R) in cgs (10**-40 erg-esu-cm/Gauss)
       state          XX          YY          ZZ    R(velocity)    E-M Angle
         1        -1.5857      0.0034     -1.6679     -1.0834      154.11
         2        -0.3528      0.0070      0.1380     -0.0692       90.00
         3        -3.6668    -11.7690     -8.7980     -8.0779       95.15
         4         1.3697      0.1490      0.3919      0.6369       81.34
         5        -3.4942      0.7352     -5.1299     -2.6297      115.22
         6        -0.0938      1.0252      3.3111      1.4142       77.55
         7        -1.1173     -1.3318     -1.4401     -1.2964       97.35
         8         0.8838      1.6591      1.0875      1.2102       76.24
         9         7.5630     -0.9341      7.8207      4.8165       74.40
        10        -0.6998     -0.2625     -1.0013     -0.6545      116.59
        11        -0.2552     -0.5480      0.1151     -0.2294       93.94
        12         0.8934     -1.9978     -0.7439     -0.6161      106.87
        13         0.1503      0.6381      0.2434      0.3439       43.33
        14         1.0210     -1.1574     -0.8866     -0.3410       96.63
        15        -1.4319      0.6276     -1.4268     -0.7437      117.05
 1/2[<0|r|b>*<b|rxdel|0> + (<0|rxdel|b>*<b|r|0>)*]
 Rotatory Strengths (R) in cgs (10**-40 erg-esu-cm/Gauss)
       state          XX          YY          ZZ     R(length)
         1        -0.1682     -0.3032     -0.0474     -0.1729
         2        33.1640     -0.2745     13.1107     15.3334
         3       -54.1640     -0.4762     -2.4247    -19.0216
         4        -2.2068     18.5534     -0.5659      5.2602
         5        -5.5560   -110.1206      0.2232    -38.4845
         6         9.2566     41.0957      0.5824     16.9782
         7       -10.4226     -7.6702     -1.9283     -6.6737
         8         0.7334     -1.7018      0.8435     -0.0416
         9         0.0050     99.1723     -0.9091     32.7561
        10        -0.6624    -15.8635     -1.0584     -5.8614
        11         0.8383      2.5297      0.1073      1.1584
        12        -7.3195      1.1680     -1.0929     -2.4148
        13         0.8510     -1.6978      0.4849     -0.1207
        14        -4.0227     -0.2566     -0.1230     -1.4674
        15         1.6808     -4.4826      0.0129     -0.9297
  1/2[<0|del|b>*<b|r|0> + (<0|r|b>*<b|del|0>)*] (Au)
       state          X           Y           Z        Dip. S.   Osc.(frdel)
         1         0.0000     -0.0007      0.0000      0.0007      0.0005
         2        -0.0019      0.0012      0.0000      0.0006      0.0004
         3        -0.0003      0.0000     -0.0095      0.0097      0.0065
         4        -0.0001     -0.0001      0.0006     -0.0004     -0.0003
         5        -0.0046     -0.0035      0.0002      0.0080      0.0053
         6        -0.0507     -0.0098      0.0000      0.0605      0.0403
         7        -0.0196     -0.0516      0.0000      0.0712      0.0474
         8        -0.0001     -0.0001     -0.0023      0.0024      0.0016
         9         0.0000     -0.0021     -0.0017      0.0037      0.0025
        10         0.0000     -0.0006      0.0006      0.0000      0.0000
        11         0.0000      0.0000      0.0002     -0.0002     -0.0001
        12        -0.0003      0.0000      0.0003     -0.0001      0.0000
        13        -0.0001      0.0000     -0.0001      0.0001      0.0001
        14        -0.0003      0.0000      0.0010     -0.0007     -0.0005
        15        -0.0002     -0.0001     -0.0001      0.0004      0.0003

 Excitation energies and oscillator strengths:
 
 Excited State   1:      Singlet-A      7.0477 eV  175.92 nm  f=0.0002  <S**2>=0.000
      17 -> 19         0.49934
      18 -> 20         0.49346
 This state for optimization and/or second-order correction.
 Total Energy, E(CIS) =  -228.479728720    
 Copying the excited state density for this state as the 1-particle RhoCI density.
 
 Excited State   2:      Singlet-A      7.2490 eV  171.04 nm  f=0.2386  <S**2>=0.000
      18 -> 19         0.68205
 
 Excited State   3:      Singlet-A      8.6594 eV  143.18 nm  f=0.0040  <S**2>=0.000
      16 -> 19         0.70091
 
 Excited State   4:      Singlet-A      8.9619 eV  138.35 nm  f=0.0018  <S**2>=0.000
      18 -> 21         0.66438
      18 -> 22         0.21552
 
 Excited State   5:      Singlet-A      9.1954 eV  134.83 nm  f=0.0564  <S**2>=0.000
      17 -> 19        -0.15429
      17 -> 20        -0.14370
      18 -> 20         0.15920
      18 -> 21        -0.18032
      18 -> 22         0.61512
 
 Excited State   6:      Singlet-A      9.2970 eV  133.36 nm  f=0.2647  <S**2>=0.000
      17 -> 19         0.28188
      17 -> 20         0.47528
      18 -> 20        -0.28687
      18 -> 21        -0.11016
      18 -> 22         0.24121
 
 Excited State   7:      Singlet-A      9.6734 eV  128.17 nm  f=0.4285  <S**2>=0.000
      17 -> 19        -0.32597
      17 -> 20         0.46405
      18 -> 20         0.33518
 
 Excited State   8:      Singlet-A      9.9395 eV  124.74 nm  f=0.0008  <S**2>=0.000
      15 -> 19         0.15154
      17 -> 21         0.18700
      18 -> 23         0.63773
      18 -> 26        -0.11020
 
 Excited State   9:      Singlet-A     10.0282 eV  123.64 nm  f=0.0090  <S**2>=0.000
      14 -> 19         0.25785
      15 -> 19        -0.40657
      16 -> 20         0.49477
 
 Excited State  10:      Singlet-A     10.2192 eV  121.32 nm  f=0.0047  <S**2>=0.000
      14 -> 19        -0.19687
      15 -> 19        -0.39049
      16 -> 20        -0.29710
      17 -> 21         0.41823
      17 -> 22         0.13700
      18 -> 24         0.14094
 
 Excited State  11:      Singlet-A     10.2645 eV  120.79 nm  f=0.0002  <S**2>=0.000
      14 -> 19         0.13716
      15 -> 19         0.37573
      16 -> 20         0.16006
      17 -> 21         0.44905
      17 -> 22         0.17437
      18 -> 23        -0.26921
 
 Excited State  12:      Singlet-A     10.5139 eV  117.92 nm  f=0.0008  <S**2>=0.000
      14 -> 19         0.13752
      17 -> 21        -0.27398
      17 -> 22         0.53315
      18 -> 24         0.32897
 
 Excited State  13:      Singlet-A     10.5535 eV  117.48 nm  f=0.0005  <S**2>=0.000
      14 -> 19         0.55301
      16 -> 20        -0.32051
      18 -> 24        -0.26718
 
 Excited State  14:      Singlet-A     10.5703 eV  117.30 nm  f=0.0008  <S**2>=0.000
      14 -> 19         0.19761
      16 -> 20        -0.11567
      17 -> 22        -0.38772
      18 -> 24         0.53003
 
 Excited State  15:      Singlet-A     11.0827 eV  111.87 nm  f=0.0008  <S**2>=0.000
      18 -> 25         0.69336
 SavETr:  write IOETrn=   770 NScale= 10 NData=  16 NLR=1 NState=   15 LETran=     280.
 The selected state is a singlet
 CISAX will form     1 AO SS matrices at one time.
 NMat=     1 NSing=     1 JSym2X= 0.
 CISAX will form     1 AO SS matrices at one time.
 NMat=     1 NSing=     1 JSym2X= 0.
 Leave Link  914 at Tue Dec 15 16:29:29 2015, MaxMem=    33554432 cpu:        27.6
 (Enter /home/Applications/g09/g09/l1002.exe)
 Minotr:  Closed shell wavefunction.
          Computing CIS/TD-HF/TD-KS derivatives.
          Using Z-Vector for PSCF gradient.
          Skipping F1 and S1 gradient terms here.
          IDoAtm=111111111
          Frozen-core window.
          Direct CPHF calculation.
          Differentiating once with respect to electric field.
                with respect to dipole field.
          Differentiating once with respect to nuclear coordinates.
          Requested convergence is 1.0D-10 RMS, and 1.0D-09 maximum.
          NewPWx=F KeepS1=T KeepF1=T KeepIn=T MapXYZ=F SortEE=F KeepMc=T.
          MDV=      33554290 using IRadAn=       0.
 Using stored XC quadrature information.
 Keep R1 ints in memory in canonical form, NReq=1898913.
 FoFCou: FMM=F IPFlag=           0 FMFlag=           0 FMFlg1=           0
         NFxFlg=           0 DoJE=F BraDBF=F KetDBF=F FulRan=T
         wScrn=  0.000000 ICntrl=     600 IOpCl=  0 I1Cent=           0 NGrid=           0
         NMat0=    1 NMatS0=   1431 NMatT0=    0 NMatD0=    1 NMtDS0=    0 NMtDT0=    0
 Symmetry not used in FoFCou.
          Solving linear equations separately, MaxMat=       0.
          There are     1 degrees of freedom in the 1st order CPHF.  IDoFFX=0 NUNeed=     1.
 LinEq1:  Iter=  0 NonCon=     1 RMS=6.39D-03 Max=8.45D-02 NDo=     1
 AX will form     1 AO Fock derivatives at one time.
 LinEq1:  Iter=  1 NonCon=     1 RMS=5.18D-03 Max=6.62D-02 NDo=     1
 LinEq1:  Iter=  2 NonCon=     1 RMS=2.23D-03 Max=2.31D-02 NDo=     1
 LinEq1:  Iter=  3 NonCon=     1 RMS=1.07D-03 Max=1.02D-02 NDo=     1
 LinEq1:  Iter=  4 NonCon=     1 RMS=5.08D-04 Max=5.01D-03 NDo=     1
 LinEq1:  Iter=  5 NonCon=     1 RMS=2.45D-04 Max=3.64D-03 NDo=     1
 LinEq1:  Iter=  6 NonCon=     1 RMS=1.02D-04 Max=9.88D-04 NDo=     1
 LinEq1:  Iter=  7 NonCon=     1 RMS=1.62D-05 Max=1.21D-04 NDo=     1
 LinEq1:  Iter=  8 NonCon=     1 RMS=2.70D-06 Max=1.78D-05 NDo=     1
 LinEq1:  Iter=  9 NonCon=     1 RMS=2.24D-06 Max=2.48D-05 NDo=     1
 LinEq1:  Iter= 10 NonCon=     1 RMS=2.91D-07 Max=1.65D-06 NDo=     1
 LinEq1:  Iter= 11 NonCon=     1 RMS=3.29D-08 Max=3.08D-07 NDo=     1
 LinEq1:  Iter= 12 NonCon=     1 RMS=2.88D-09 Max=1.90D-08 NDo=     1
 LinEq1:  Iter= 13 NonCon=     1 RMS=2.82D-10 Max=1.53D-09 NDo=     1
 LinEq1:  Iter= 14 NonCon=     0 RMS=3.33D-11 Max=2.15D-10 NDo=     1
 Linear equations converged to 1.000D-10 1.000D-09 after    14 iterations.
 End of Minotr F.D. properties file   721 does not exist.
 End of Minotr F.D. properties file   722 does not exist.
 End of Minotr F.D. properties file   788 does not exist.
 Leave Link 1002 at Tue Dec 15 16:29:43 2015, MaxMem=    33554432 cpu:        14.1
 (Enter /home/Applications/g09/g09/l601.exe)
 Copying SCF densities to generalized density rwf, IOpCl= 0 IROHF=0.

 **********************************************************************

            Population analysis using the SCF density.

 **********************************************************************

 Orbital symmetries:
       Occupied  (A) (A) (A) (A) (A) (A) (A) (A) (A) (A) (A) (A)
                 (A) (A) (A) (A) (A) (A)
       Virtual   (A) (A) (A) (A) (A) (A) (A) (A) (A) (A) (A) (A)
                 (A) (A) (A) (A) (A) (A) (A) (A) (A) (A) (A) (A)
                 (A) (A) (A) (A) (A) (A) (A) (A) (A) (A) (A)
 The electronic state is 1-A.
 Alpha  occ. eigenvalues --  -19.12057 -10.17948 -10.17078 -10.12639 -10.11942
 Alpha  occ. eigenvalues --   -1.14648  -0.79775  -0.75474  -0.61016  -0.57221
 Alpha  occ. eigenvalues --   -0.54861  -0.46216  -0.45653  -0.41781  -0.40701
 Alpha  occ. eigenvalues --   -0.35615  -0.27490  -0.22723
 Alpha virt. eigenvalues --    0.02149   0.07371   0.14410   0.15783   0.18537
 Alpha virt. eigenvalues --    0.19994   0.22836   0.23188   0.34310   0.40852
 Alpha virt. eigenvalues --    0.47278   0.69339   0.70023   0.71241   0.73719
 Alpha virt. eigenvalues --    0.77146   0.78617   0.78999   0.81037   0.83843
 Alpha virt. eigenvalues --    0.93447   0.98856   1.02937   1.05841   1.17777
 Alpha virt. eigenvalues --    1.23304   1.32289   1.38718   1.50215   1.58063
 Alpha virt. eigenvalues --    1.61753   1.73244   1.97832   2.11935   3.21907
     Molecular Orbital Coefficients:
                           1         2         3         4         5
                           O         O         O         O         O
     Eigenvalues --   -19.12057 -10.17948 -10.17078 -10.12639 -10.11942
   1 1   C  1S          0.00017  -0.01049  -0.00122   0.98250   0.08316
   2        2S          0.00071  -0.00438  -0.00033   0.10956   0.00555
   3        2PX         0.00121   0.00114  -0.00011   0.00109  -0.00088
   4        2PY         0.00083   0.00168   0.00068  -0.00149   0.00055
   5        2PZ        -0.00002  -0.00003   0.00001   0.00009   0.00002
   6        3S         -0.00391   0.03052  -0.01274  -0.09898   0.02720
   7        3PX        -0.00491  -0.00400  -0.00192  -0.01966   0.01993
   8        3PY         0.00583  -0.01596   0.00855   0.02513  -0.00911
   9        3PZ        -0.00005   0.00016  -0.00029  -0.00050  -0.00008
  10 2   C  1S         -0.00034   0.98519   0.02326   0.01008   0.00146
  11        2S         -0.00026   0.10624  -0.00065  -0.00259  -0.00057
  12        2PX         0.00198   0.00261  -0.00110  -0.00056  -0.00018
  13        2PY        -0.00184  -0.00055  -0.00067  -0.00113  -0.00122
  14        2PZ        -0.00007  -0.00022  -0.00006  -0.00002  -0.00002
  15        3S          0.01607  -0.06887   0.01225   0.03482  -0.00530
  16        3PX         0.01575  -0.00765   0.01612   0.01485  -0.00269
  17        3PY        -0.00066  -0.01441   0.00946   0.01646   0.00032
  18        3PZ        -0.00004   0.00076   0.00019  -0.00018   0.00020
  19 3   O  1S          0.98284   0.00030   0.00032   0.00007   0.00009
  20        2S          0.10845   0.00185   0.00198   0.00031   0.00039
  21        2PX         0.00004  -0.00035   0.00033  -0.00004   0.00001
  22        2PY         0.00435   0.00061   0.00052  -0.00009  -0.00009
  23        2PZ         0.00002   0.00001   0.00002   0.00003  -0.00002
  24        3S         -0.06326  -0.00146  -0.00139  -0.00353  -0.00446
  25        3PX        -0.00030   0.00123  -0.00136   0.00247  -0.00216
  26        3PY        -0.01441  -0.00424  -0.00389  -0.00159  -0.00207
  27        3PZ        -0.00005  -0.00006  -0.00007  -0.00012   0.00008
  28 4   C  1S         -0.00035  -0.02437   0.98508   0.00008   0.01017
  29        2S         -0.00029  -0.00588   0.10678  -0.00030  -0.00349
  30        2PX        -0.00209   0.00114  -0.00244   0.00008   0.00083
  31        2PY        -0.00170  -0.00069  -0.00049  -0.00091  -0.00215
  32        2PZ         0.00006   0.00003   0.00013   0.00003   0.00002
  33        3S          0.01876   0.01782  -0.07309  -0.01082   0.04020
  34        3PX        -0.01663  -0.01781   0.00733   0.00440  -0.01642
  35        3PY         0.00037   0.01293  -0.01593  -0.00211   0.02037
  36        3PZ        -0.00007  -0.00013  -0.00037  -0.00011  -0.00007
  37 5   C  1S          0.00016  -0.00031  -0.01048  -0.08371   0.98244
  38        2S          0.00067   0.00000  -0.00521  -0.01317   0.10981
  39        2PX        -0.00113   0.00009  -0.00106   0.00107  -0.00090
  40        2PY         0.00078   0.00059   0.00263   0.00055  -0.00127
  41        2PZ        -0.00001  -0.00002   0.00003   0.00003   0.00003
  42        3S         -0.00516  -0.01677   0.03433   0.04322  -0.10112
  43        3PX         0.00607   0.00250   0.00292  -0.02225   0.01808
  44        3PY         0.00843   0.01131  -0.01807  -0.01036   0.02652
  45        3PZ         0.00014   0.00022  -0.00004  -0.00016   0.00019
  46 6   H  1S         -0.00113  -0.00044  -0.00113   0.00000  -0.00484
  47        2S         -0.00416  -0.00198   0.00182   0.00447   0.00526
  48 7   H  1S          0.00026   0.00167  -0.00411   0.00000  -0.00024
  49        2S          0.00445   0.00858   0.01023   0.00003   0.00631
  50 8   H  1S          0.00051  -0.00323   0.00132  -0.00019  -0.00014
  51        2S          0.00417   0.00925   0.00763   0.00466   0.00044
  52 9   H  1S         -0.00089  -0.00122  -0.00036  -0.00418  -0.00027
  53        2S         -0.00266   0.00112  -0.00116   0.00466   0.00617
                           6         7         8         9        10
                           O         O         O         O         O
     Eigenvalues --    -1.14648  -0.79775  -0.75474  -0.61016  -0.57221
   1 1   C  1S         -0.02278  -0.13408  -0.07906  -0.11533   0.04171
   2        2S          0.02132   0.14291   0.08424   0.11761  -0.04253
   3        2PX         0.00723   0.06640  -0.03963  -0.11029  -0.11988
   4        2PY        -0.02803  -0.04386  -0.05915  -0.00727  -0.08312
   5        2PZ         0.00025   0.00177   0.00131   0.00229  -0.00089
   6        3S          0.03625   0.27124   0.16186   0.37859  -0.12753
   7        3PX         0.02579   0.01781   0.02365  -0.02337  -0.05156
   8        3PY        -0.03162  -0.03140  -0.00224  -0.03793  -0.02275
   9        3PZ         0.00057   0.00120   0.00048   0.00192  -0.00022
  10 2   C  1S         -0.07418  -0.03306  -0.14786   0.00372  -0.10912
  11        2S          0.08114   0.04013   0.15962  -0.00257   0.11990
  12        2PX         0.08595   0.00267   0.04025  -0.05771  -0.14771
  13        2PY        -0.03456   0.11248  -0.01204   0.19515  -0.01154
  14        2PZ        -0.00159  -0.00096  -0.00478  -0.00021  -0.00674
  15        3S          0.05844   0.04243   0.34748  -0.04462   0.34271
  16        3PX        -0.04632   0.00921   0.02209  -0.03048  -0.08443
  17        3PY        -0.00822   0.02763   0.03457   0.05594   0.00036
  18        3PZ        -0.00098  -0.00053  -0.00302  -0.00004  -0.00541
  19 3   O  1S         -0.21270   0.08290   0.00749   0.00456   0.04613
  20        2S          0.19265  -0.08032  -0.00749  -0.00396  -0.04648
  21        2PX         0.00205   0.02302  -0.24474   0.24763  -0.02531
  22        2PY         0.11551   0.02860   0.00724   0.00228  -0.02878
  23        2PZ         0.00025  -0.00046   0.00147  -0.00342  -0.00091
  24        3S          0.68413  -0.30317  -0.02628  -0.02023  -0.20401
  25        3PX         0.00202   0.02005  -0.20400   0.21622  -0.02214
  26        3PY         0.14738   0.01048   0.00644   0.00038  -0.03028
  27        3PZ         0.00039  -0.00037   0.00158  -0.00278  -0.00063
  28 4   C  1S         -0.07770  -0.07185   0.14072  -0.00948  -0.10384
  29        2S          0.08545   0.08321  -0.15174   0.00831   0.11468
  30        2PX        -0.08762  -0.01027   0.02555  -0.05364   0.17654
  31        2PY        -0.03404   0.12764   0.04163  -0.20050  -0.00045
  32        2PZ         0.00092   0.00075  -0.00246  -0.00004   0.00305
  33        3S          0.05074   0.11924  -0.34466   0.06660   0.32843
  34        3PX         0.04977  -0.01117   0.01812  -0.03292   0.09384
  35        3PY        -0.01464   0.03896  -0.03025  -0.05043   0.00268
  36        3PZ         0.00094   0.00047  -0.00140  -0.00003   0.00268
  37 5   C  1S         -0.02474  -0.15879   0.04128   0.10845   0.04185
  38        2S          0.02374   0.16946  -0.04536  -0.11054  -0.04132
  39        2PX        -0.00853  -0.05105  -0.05883  -0.11625   0.11811
  40        2PY        -0.03038  -0.05881   0.05808   0.00665  -0.10526
  41        2PZ         0.00013   0.00118  -0.00035  -0.00274  -0.00098
  42        3S          0.04345   0.32436  -0.06892  -0.36191  -0.13688
  43        3PX        -0.03018  -0.02814   0.01315  -0.02307   0.05651
  44        3PY        -0.04435  -0.03394  -0.01485   0.03603  -0.02755
  45        3PZ        -0.00087   0.00059  -0.00042  -0.00172  -0.00092
  46 6   H  1S          0.00839   0.07457  -0.02412  -0.12042  -0.04408
  47        2S          0.02093   0.01685  -0.00358  -0.06353  -0.02818
  48 7   H  1S          0.01451   0.02673  -0.09149   0.02757   0.17475
  49        2S         -0.02797   0.00693  -0.03251   0.02203   0.08453
  50 8   H  1S          0.01022   0.00836   0.07940  -0.01118   0.16188
  51        2S         -0.02601   0.00387   0.02977  -0.01017   0.08455
  52 9   H  1S          0.00688   0.05555   0.04401   0.12167  -0.02819
  53        2S          0.01401   0.01244   0.01477   0.06785  -0.01731
                          11        12        13        14        15
                           O         O         O         O         O
     Eigenvalues --    -0.54861  -0.46216  -0.45653  -0.41781  -0.40701
   1 1   C  1S         -0.04689  -0.03978   0.02777   0.00156   0.02637
   2        2S          0.04451   0.04270  -0.02895  -0.00513  -0.02635
   3        2PX        -0.04764  -0.03327   0.01824  -0.14816  -0.29036
   4        2PY         0.18548   0.05206  -0.04740   0.24822  -0.03077
   5        2PZ         0.00149   0.05122   0.07778   0.00212   0.00282
   6        3S          0.18783   0.13404  -0.10185   0.00752  -0.12467
   7        3PX        -0.05312  -0.02148   0.00749  -0.12845  -0.15698
   8        3PY         0.09803   0.03998  -0.02826   0.15026   0.01254
   9        3PZ         0.00217   0.03714   0.05730   0.00246   0.00012
  10 2   C  1S          0.01730   0.03130  -0.02621   0.03970  -0.02190
  11        2S         -0.02179  -0.03114   0.02714  -0.04662   0.02736
  12        2PX        -0.11414   0.21799  -0.13290  -0.11585   0.11977
  13        2PY        -0.08181  -0.01428   0.02144  -0.15318   0.11795
  14        2PZ         0.00090   0.10364   0.14982   0.00853  -0.00500
  15        3S         -0.02702  -0.11797   0.09518  -0.13796   0.08065
  16        3PX        -0.07872   0.13481  -0.07353  -0.08761   0.08005
  17        3PY        -0.09122   0.00326   0.01170  -0.10420   0.14721
  18        3PZ        -0.00042   0.09386   0.13870   0.00840  -0.00531
  19 3   O  1S         -0.05868  -0.00031   0.00258  -0.01206   0.01648
  20        2S          0.05792   0.00021  -0.00247   0.01036  -0.02061
  21        2PX         0.00051  -0.20921   0.14411  -0.01934   0.01806
  22        2PY        -0.19400   0.00378   0.00716  -0.00449   0.23569
  23        2PZ         0.00177   0.21720   0.33011   0.01878  -0.01759
  24        3S          0.22805   0.00203  -0.01102   0.05915  -0.02843
  25        3PX         0.00042  -0.19881   0.13756  -0.02667   0.02098
  26        3PY        -0.17629   0.00379   0.00680  -0.00457   0.24323
  27        3PZ         0.00181   0.21668   0.33215   0.01956  -0.01825
  28 4   C  1S          0.02353  -0.02542   0.01868  -0.03260   0.00090
  29        2S         -0.02879   0.02543  -0.01889   0.04038   0.00052
  30        2PX         0.13527   0.20215  -0.12872  -0.14755  -0.05016
  31        2PY        -0.11451   0.01552  -0.02003   0.24284  -0.00356
  32        2PZ         0.00254   0.10630   0.16213   0.00441  -0.00542
  33        3S         -0.04880   0.09117  -0.06758   0.11862   0.00149
  34        3PX         0.09546   0.12285  -0.07254  -0.10602  -0.02550
  35        3PY        -0.11713  -0.00178  -0.00550   0.15539   0.06949
  36        3PZ         0.00199   0.09612   0.14798   0.00585  -0.00669
  37 5   C  1S         -0.04650   0.03614  -0.02172  -0.00141   0.02105
  38        2S          0.04252  -0.03915   0.02278   0.00449  -0.02266
  39        2PX         0.06370  -0.02106   0.02028   0.07067   0.31488
  40        2PY         0.22973  -0.05287   0.04579  -0.24762   0.11194
  41        2PZ         0.00591   0.05238   0.08843  -0.00240   0.00690
  42        3S          0.21073  -0.11795   0.07912  -0.00566  -0.11226
  43        3PX         0.05438  -0.01346   0.00907   0.01424   0.19190
  44        3PY         0.10997  -0.04063   0.03062  -0.12741   0.09185
  45        3PZ         0.00330   0.03627   0.06278  -0.00138   0.00523
  46 6   H  1S          0.15729  -0.07642   0.05965  -0.10761   0.17806
  47        2S          0.08053  -0.04743   0.03922  -0.09171   0.15900
  48 7   H  1S          0.06393   0.14405  -0.08931  -0.12964  -0.03866
  49        2S          0.02028   0.10194  -0.06779  -0.11210  -0.02807
  50 8   H  1S          0.04973  -0.16118   0.09915   0.06309  -0.08516
  51        2S          0.01756  -0.12148   0.08200   0.05793  -0.07422
  52 9   H  1S          0.12705   0.08264  -0.06081   0.19821   0.08326
  53        2S          0.06353   0.05359  -0.04403   0.16842   0.07695
                          16        17        18        19        20
                           O         O         O         V         V
     Eigenvalues --    -0.35615  -0.27490  -0.22723   0.02149   0.07371
   1 1   C  1S          0.01599  -0.00110   0.00241   0.00068  -0.00203
   2        2S         -0.01439   0.00125  -0.00351  -0.00312   0.00100
   3        2PX         0.12062  -0.00646   0.00395  -0.00149  -0.00230
   4        2PY         0.21003  -0.00531   0.00465   0.00635   0.00208
   5        2PZ        -0.00482  -0.27514   0.21468  -0.20522  -0.31931
   6        3S         -0.11194   0.00308  -0.00330   0.01806   0.01542
   7        3PX         0.11881  -0.00595   0.00727   0.00942  -0.02119
   8        3PY         0.14421  -0.00208  -0.00131  -0.00524   0.00386
   9        3PZ        -0.00454  -0.28643   0.23749  -0.34129  -0.62065
  10 2   C  1S         -0.00997  -0.00069  -0.00559  -0.00673  -0.00525
  11        2S          0.01500   0.00088   0.00642   0.00510   0.00265
  12        2PX        -0.01169   0.00303  -0.00347  -0.01055  -0.00327
  13        2PY        -0.23980   0.00386  -0.00303  -0.00379  -0.01544
  14        2PZ        -0.00546  -0.03649   0.33444   0.34389   0.17687
  15        3S          0.02232   0.00461   0.02059   0.04894   0.04903
  16        3PX        -0.03621   0.00344  -0.00957  -0.04149  -0.00795
  17        3PY        -0.06368   0.00508  -0.00468  -0.01242  -0.03341
  18        3PZ        -0.00412  -0.00894   0.36197   0.51944   0.33143
  19 3   O  1S          0.06358  -0.00020   0.00172   0.00069   0.00591
  20        2S         -0.06318   0.00004  -0.00223  -0.00093  -0.00470
  21        2PX        -0.01322   0.00472   0.00171   0.00233  -0.00061
  22        2PY         0.37441   0.00294   0.00379   0.00057  -0.00720
  23        2PZ         0.00182   0.28520  -0.02136  -0.29583   0.03420
  24        3S         -0.23781   0.00230  -0.00599  -0.00317  -0.04392
  25        3PX        -0.01395   0.00619   0.00084  -0.00221  -0.00006
  26        3PY         0.40857   0.00335   0.00562   0.00109  -0.00993
  27        3PZ         0.00206   0.32598  -0.02421  -0.41665   0.05125
  28 4   C  1S         -0.02396   0.00061  -0.00245   0.00140  -0.00614
  29        2S          0.02984  -0.00095   0.00239  -0.00229   0.00572
  30        2PX        -0.02352   0.00160   0.00119  -0.00523  -0.00434
  31        2PY        -0.17454  -0.00301  -0.00578   0.00120  -0.00819
  32        2PZ         0.00475  -0.10394  -0.31749   0.29574  -0.24913
  33        3S          0.08623  -0.00168   0.01343   0.00154   0.03342
  34        3PX         0.00584   0.00340   0.00139  -0.02785   0.00876
  35        3PY        -0.00168  -0.00105  -0.00357   0.01262  -0.03226
  36        3PZ         0.00362  -0.06969  -0.34522   0.44503  -0.47287
  37 5   C  1S          0.01722  -0.00111  -0.00059  -0.00170   0.00393
  38        2S         -0.01616   0.00092   0.00059   0.00249  -0.00550
  39        2PX        -0.12646   0.00957  -0.00043   0.00242  -0.00602
  40        2PY         0.13183   0.00989   0.00614   0.00153  -0.00815
  41        2PZ         0.00030  -0.31210  -0.15588  -0.12466   0.35875
  42        3S         -0.12921   0.00523  -0.00002  -0.00544  -0.00746
  43        3PX        -0.13367   0.00702   0.00249   0.01657  -0.03030
  44        3PY         0.09602   0.00806   0.00787   0.02093  -0.03898
  45        3PZ        -0.00007  -0.32585  -0.16381  -0.21309   0.70361
  46 6   H  1S          0.00127   0.00357  -0.00081  -0.00331   0.00996
  47        2S          0.02651   0.00599  -0.00175  -0.01849   0.04182
  48 7   H  1S          0.08740  -0.00151  -0.00136   0.00390  -0.00652
  49        2S          0.08577  -0.00188  -0.00136   0.01831  -0.03424
  50 8   H  1S          0.10513  -0.00189  -0.00257  -0.01316  -0.01030
  51        2S          0.10957  -0.00242  -0.00466  -0.05308  -0.04453
  52 9   H  1S          0.04837  -0.00212  -0.00056  -0.00318  -0.00231
  53        2S          0.07337  -0.00291   0.00172  -0.00102  -0.01392
                          21        22        23        24        25
                           V         V         V         V         V
     Eigenvalues --     0.14410   0.15783   0.18537   0.19994   0.22836
   1 1   C  1S          0.02561   0.07605   0.04157  -0.10140  -0.05404
   2        2S         -0.00505  -0.06216  -0.03650   0.06919   0.02117
   3        2PX         0.04571   0.01853  -0.05876  -0.07182  -0.22329
   4        2PY        -0.14870  -0.11605   0.06051   0.12028  -0.01055
   5        2PZ        -0.01376   0.01028  -0.00056   0.00965   0.00689
   6        3S         -0.47497  -0.74567  -0.25000   1.20190   1.00931
   7        3PX         0.10485   0.21805  -0.08264  -0.39193  -0.91870
   8        3PY        -0.36567  -0.48701  -0.00988   0.69927  -0.25847
   9        3PZ        -0.04020   0.03013   0.00046   0.03763   0.01540
  10 2   C  1S          0.10731  -0.07418  -0.01946   0.01348   0.04912
  11        2S         -0.07347   0.05636   0.01823  -0.02583  -0.02061
  12        2PX         0.15465   0.02123  -0.23500  -0.04837   0.13809
  13        2PY         0.10642  -0.14874   0.02584  -0.07317  -0.14517
  14        2PZ         0.02748  -0.01733  -0.01000  -0.00077   0.00335
  15        3S         -1.22135   0.63555   0.35204   0.10409  -0.89877
  16        3PX         0.50756  -0.21754  -0.81107   0.10083   0.42193
  17        3PY         0.28079  -0.49667   0.09072  -0.23970  -0.71033
  18        3PZ         0.06971  -0.04040  -0.02710  -0.01481   0.01707
  19 3   O  1S         -0.02975   0.09560  -0.04593   0.01313   0.07934
  20        2S          0.02429  -0.06632   0.03036  -0.00695  -0.03428
  21        2PX        -0.03209  -0.00143  -0.01237   0.00043  -0.06439
  22        2PY         0.00033  -0.15138   0.06440  -0.01896  -0.02684
  23        2PZ        -0.00691   0.00285   0.01006  -0.00022  -0.00185
  24        3S          0.22208  -0.81331   0.40678  -0.13033  -0.85410
  25        3PX        -0.04970  -0.03288  -0.07123   0.07804  -0.13794
  26        3PY        -0.02375  -0.26776   0.10661  -0.05075  -0.14434
  27        3PZ        -0.01249   0.00513   0.02140  -0.00157  -0.00279
  28 4   C  1S          0.07136  -0.03206   0.09021   0.00045   0.00473
  29        2S         -0.05092   0.02506  -0.06724   0.01909   0.00570
  30        2PX        -0.06105  -0.17846  -0.17926  -0.13512  -0.18845
  31        2PY         0.06124  -0.10919   0.12998   0.06621  -0.15995
  32        2PZ        -0.00690   0.00885  -0.01537   0.00226   0.00153
  33        3S         -0.84342   0.11595  -1.06797  -0.43888  -0.36158
  34        3PX        -0.26544  -0.39261  -0.90479  -0.14808  -0.62602
  35        3PY         0.18462  -0.40005   0.53831   0.14291  -0.67192
  36        3PZ        -0.01883   0.02243  -0.04625   0.01156  -0.00404
  37 5   C  1S          0.01398   0.01172  -0.06196   0.10361  -0.08655
  38        2S         -0.00216  -0.00393   0.06246  -0.07816   0.03136
  39        2PX        -0.05406  -0.09118  -0.05918  -0.03366   0.11246
  40        2PY        -0.07896  -0.09812  -0.00568  -0.16885   0.06044
  41        2PZ         0.00204  -0.01640   0.01014  -0.01462  -0.00049
  42        3S         -0.30357  -0.25686   0.37768  -1.24277   1.61590
  43        3PX        -0.10988  -0.27611   0.06092  -0.35582   0.32376
  44        3PY        -0.23453  -0.34790   0.32050  -0.86943   0.11537
  45        3PZ         0.00640  -0.04531   0.03553  -0.05489   0.00815
  46 6   H  1S          0.04301   0.07605  -0.02531   0.03913   0.06453
  47        2S          0.53845   0.79590  -0.49390   1.66301  -0.99181
  48 7   H  1S          0.06341  -0.00350   0.07354  -0.00973   0.00188
  49        2S          0.88716   0.12139   1.78582   0.48044   0.40030
  50 8   H  1S          0.09104  -0.07047  -0.02983   0.01665  -0.02354
  51        2S          1.37314  -0.80000  -0.95694  -0.08182   0.47961
  52 9   H  1S          0.04764   0.08905  -0.01136  -0.03323   0.04545
  53        2S          0.73022   1.07390  -0.02321  -1.42608  -0.83972
                          26        27        28        29        30
                           V         V         V         V         V
     Eigenvalues --     0.23188   0.34310   0.40852   0.47278   0.69339
   1 1   C  1S         -0.04562   0.08796  -0.00242   0.11618   0.05560
   2        2S         -0.00152  -0.03673  -0.02137  -0.01579  -0.06612
   3        2PX         0.15937  -0.04928  -0.19130  -0.16550   0.11272
   4        2PY         0.03817   0.18567  -0.16663   0.17354   0.33024
   5        2PZ        -0.00136   0.00011   0.00229   0.00167  -0.00252
   6        3S          0.94231  -1.40468   0.38259  -2.52672  -0.04911
   7        3PX         1.05774   0.10448  -0.84642  -1.78691  -0.16132
   8        3PY        -0.00930   1.52774  -1.07660   1.44405  -0.01972
   9        3PZ        -0.00449  -0.02893   0.01329  -0.00929  -0.00608
  10 2   C  1S         -0.07783  -0.08885   0.01452  -0.08748  -0.04563
  11        2S          0.06213   0.00401  -0.01931   0.04702   0.02009
  12        2PX         0.15798   0.19052   0.04592   0.24607   0.11293
  13        2PY        -0.11283   0.25199  -0.08745  -0.12375   0.13185
  14        2PZ        -0.00374   0.00340  -0.00059   0.00640  -0.00819
  15        3S          0.72765   1.47120  -0.58244   1.38190   0.18481
  16        3PX         0.36653   1.05700   0.29481   1.19680   0.11803
  17        3PY        -0.37697   1.17180  -1.33860   0.72263   0.12556
  18        3PZ        -0.01068  -0.01055   0.00834  -0.02000   0.00005
  19 3   O  1S          0.02191   0.06493   0.00476  -0.00883   0.02471
  20        2S         -0.01054  -0.02748  -0.00107   0.00457  -0.07310
  21        2PX         0.30487  -0.03330   0.22222   0.25173  -0.08543
  22        2PY        -0.01274  -0.16620  -0.03330   0.01613  -0.15448
  23        2PZ        -0.00149   0.00043  -0.00318  -0.00530   0.00022
  24        3S         -0.23154  -0.83026  -0.07546   0.11408   0.13911
  25        3PX         0.62299  -0.08687   0.60476   0.53212   0.03790
  26        3PY        -0.05391  -0.50713  -0.10794   0.07045  -0.07404
  27        3PZ        -0.00274   0.00169  -0.00843  -0.00929  -0.00393
  28 4   C  1S          0.09929  -0.06333  -0.04995   0.10485  -0.03292
  29        2S         -0.07443  -0.00468   0.00923  -0.02296  -0.05648
  30        2PX         0.04532  -0.14345   0.00920   0.27490  -0.34140
  31        2PY         0.04751   0.17567   0.19796   0.10347  -0.50156
  32        2PZ        -0.00517  -0.00462  -0.00149  -0.00095  -0.01858
[...]
          Condensed to atoms (all electrons):
               1          2          3          4          5          6
     1  C    5.233439   0.473037  -0.076800  -0.132753   0.435515  -0.030360
     2  C    0.473037   5.075786   0.286558  -0.155023  -0.127861   0.004996
     3  O   -0.076800   0.286558   8.122997   0.289299  -0.071535   0.002460
     4  C   -0.132753  -0.155023   0.289299   5.049086   0.465688  -0.029864
     5  C    0.435515  -0.127861  -0.071535   0.465688   5.231885   0.392231
     6  H   -0.030360   0.004996   0.002460  -0.029864   0.392231   0.474703
     7  H    0.003126   0.004075  -0.031608   0.393732  -0.043131  -0.000610
     8  H   -0.037405   0.380137  -0.025644   0.003816   0.002439  -0.000030
     9  H    0.384447  -0.031326   0.002080   0.004426  -0.023157  -0.000940
               7          8          9
     1  C    0.003126  -0.037405   0.384447
     2  C    0.004075   0.380137  -0.031326
     3  O   -0.031608  -0.025644   0.002080
     4  C    0.393732   0.003816   0.004426
     5  C   -0.043131   0.002439  -0.023157
     6  H   -0.000610  -0.000030  -0.000940
     7  H    0.453917  -0.000050  -0.000028
     8  H   -0.000050   0.460741   0.000076
     9  H   -0.000028   0.000076   0.477426
 Mulliken charges:
               1
     1  C   -0.252245
     2  C    0.089622
     3  O   -0.497807
     4  C    0.111592
     5  C   -0.262073
     6  H    0.187416
     7  H    0.220579
     8  H    0.215920
     9  H    0.186998
 Sum of Mulliken charges =   0.00000
 Mulliken charges with hydrogens summed into heavy atoms:
               1
     1  C   -0.065248
     2  C    0.305542
     3  O   -0.497807
     4  C    0.332171
     5  C   -0.074658
 Electronic spatial extent (au):  <R**2>=            289.5352
 Charge=              0.0000 electrons
 Dipole moment (field-independent basis, Debye):
    X=             -0.0286    Y=              0.5545    Z=              0.0268  Tot=              0.5559
 Quadrupole moment (field-independent basis, Debye-Ang):
   XX=            -23.5368   YY=            -28.1224   ZZ=            -31.7802
   XY=             -0.0748   XZ=              0.2232   YZ=              0.1195
 Traceless Quadrupole moment (field-independent basis, Debye-Ang):
   XX=              4.2764   YY=             -0.3093   ZZ=             -3.9671
   XY=             -0.0748   XZ=              0.2232   YZ=              0.1195
 Octapole moment (field-independent basis, Debye-Ang**2):
  XXX=             -0.8614  YYY=              1.4360  ZZZ=              0.0494  XYY=              0.1731
  XXY=             -3.9709  XXZ=             -0.0096  XZZ=              0.2873  YZZ=             -3.4653
  YYZ=              0.1768  XYZ=             -0.0658
 Hexadecapole moment (field-independent basis, Debye-Ang**3):
 XXXX=           -154.4262 YYYY=           -158.7099 ZZZZ=            -30.9586 XXXY=              0.0337
 XXXZ=              1.0495 YYYX=             -0.5874 YYYZ=              0.4183 ZZZX=              0.2665
 ZZZY=              0.1295 XXYY=            -45.7827 XXZZ=            -39.0017 YYZZ=            -34.2791
 XXYZ=              0.3385 YYXZ=              0.2991 ZZXY=              0.0559
 N-N= 1.613405169257D+02 E-N=-8.552252027586D+02  KE= 2.269965049770D+02
 Orbital energies and kinetic energies (alpha):
                                 1                 2
   1         O               -19.120575         28.828336
   2         O               -10.179482         15.802598
   3         O               -10.170777         15.797592
   4         O               -10.126394         15.807242
   5         O               -10.119423         15.804949
   6         O                -1.146481          2.558357
   7         O                -0.797752          1.748613
   8         O                -0.754743          1.832879
   9         O                -0.610155          1.655890
  10         O                -0.572207          1.382364
  11         O                -0.548609          1.356669
  12         O                -0.462165          1.541266
  13         O                -0.456527          1.615595
  14         O                -0.417814          1.377299
  15         O                -0.407014          1.573053
  16         O                -0.356148          2.132330
  17         O                -0.274899          1.469010
  18         O                -0.227232          1.214212
  19         V                 0.021492          1.853178
  20         V                 0.073705          1.497290
  21         V                 0.144096          1.182087
  22         V                 0.157833          1.689072
  23         V                 0.185369          1.307403
  24         V                 0.199937          1.221871
  25         V                 0.228361          1.605952
  26         V                 0.231879          2.048148
  27         V                 0.343101          2.037166
  28         V                 0.408520          1.742628
  29         V                 0.472784          2.900172
  30         V                 0.693392          2.669030
  31         V                 0.700227          2.508419
  32         V                 0.712406          2.715751
  33         V                 0.737187          2.561861
  34         V                 0.771457          2.518696
  35         V                 0.786172          2.621307
  36         V                 0.789987          2.595553
  37         V                 0.810370          2.781445
  38         V                 0.838432          2.588848
  39         V                 0.934469          2.841824
  40         V                 0.988557          3.160129
  41         V                 1.029372          3.115005
  42         V                 1.058409          3.213382
  43         V                 1.177768          2.692040
  44         V                 1.233042          2.901109
  45         V                 1.322894          2.542332
  46         V                 1.387179          2.932571
  47         V                 1.502148          4.943453
  48         V                 1.580628          3.449299
  49         V                 1.617530          3.663517
  50         V                 1.732439          4.417197
  51         V                 1.978321          4.118648
  52         V                 2.119350          4.159491
  53         V                 3.219068          6.840111
 Total kinetic energy from orbitals= 2.269965049770D+02
 No NMR shielding tensors so no spin-rotation constants.
 Leave Link  601 at Tue Dec 15 16:29:43 2015, MaxMem=    33554432 cpu:         0.1
 (Enter /home/Applications/g09/g09/l701.exe)
 Compute integral first derivatives.
 ... and contract with generalized density number  6.
 Leave Link  701 at Tue Dec 15 16:29:43 2015, MaxMem=    33554432 cpu:         0.1
 (Enter /home/Applications/g09/g09/l702.exe)
 L702 exits ... SP integral derivatives will be done elsewhere.
 Leave Link  702 at Tue Dec 15 16:29:43 2015, MaxMem=    33554432 cpu:         0.0
 (Enter /home/Applications/g09/g09/l703.exe)
 Compute integral first derivatives, UseDBF=F ICtDFT=           0.
 Integral derivatives from FoFJK, PRISM(SPDF).
 Calling FoFJK, ICntrl=  10005127 FMM=F ISym2X=0 I1Cent= 0 IOpClX= 0 NMat=1 NMatS=1 NMatT=0.
 FoFJK:  IHMeth= 1 ICntrl=10005127 DoSepK=F KAlg= 0 I1Cent=   0 FoldK=F
 IRaf=         0 NMat=   1 IRICut=       1 DoRegI=T DoRafI=F ISym2E= 0.
 FoFCou: FMM=F IPFlag=           0 FMFlag=      100000 FMFlg1=         800
         NFxFlg=           0 DoJE=F BraDBF=F KetDBF=F FulRan=T
         wScrn=  0.000000 ICntrl=10005127 IOpCl=  0 I1Cent=           0 NGrid=           0
         NMat0=    1 NMatS0=      1 NMatT0=    0 NMatD0=    1 NMtDS0=    0 NMtDT0=    0
 Symmetry not used in FoFCou.
 Leave Link  703 at Tue Dec 15 16:29:44 2015, MaxMem=    33554432 cpu:         1.1
 (Enter /home/Applications/g09/g09/l716.exe)
 Dipole        = 1.04344290D-02 3.07431498D-01 1.27525497D-02
 ***** Axes restored to original set *****
 -------------------------------------------------------------------
 Center     Atomic                   Forces (Hartrees/Bohr)
 Number     Number              X              Y              Z
 -------------------------------------------------------------------
      1        6           0.007404162   -0.027257169    0.000176531
      2        6           0.011341410   -0.074584900   -0.002573954
      3        8          -0.079849114   -0.008541956   -0.001211374
      4        6          -0.028175589    0.057095704    0.003301794
      5        6           0.045931214   -0.021983632    0.001682237
      6        1           0.041093400    0.035154764   -0.001528118
      7        1          -0.014500203    0.029075476   -0.000148233
      8        1          -0.000249499    0.014121535    0.000011249
      9        1           0.017004217   -0.003079822    0.000289868
 -------------------------------------------------------------------
 Cartesian Forces:  Max     0.079849114 RMS     0.029868518
 Z-matrix is all fixed cartesians, so copy forces.
 Force constants in Cartesian coordinates: 
                1             2             3             4             5 
      1  0.809129D+00
      2 -0.788062D-01  0.786108D+00
      3  0.631342D-02  0.160596D-01  0.176340D+00
      4 -0.398731D+00 -0.788187D-01 -0.134830D-01  0.817754D+00
      5 -0.583447D-01 -0.188286D+00 -0.496618D-02 -0.405169D-01  0.906482D+00
      6 -0.113047D-01 -0.429970D-02 -0.775248D-01  0.141425D-02  0.747854D-02
      7 -0.832640D-02  0.288699D-01  0.111473D-02 -0.299862D+00  0.185140D+00
      8 -0.582577D-02  0.202373D-01  0.530468D-03  0.230665D+00 -0.419416D+00
      9 -0.781947D-03  0.140105D-02  0.835197D-02  0.959785D-02 -0.123310D-01
     10  0.892016D-02  0.267178D-03 -0.264598D-04  0.261218D-01  0.183166D-01
     11  0.345098D-01  0.103202D-02 -0.614135D-04 -0.187332D-01 -0.131348D-01
     12  0.679925D-03  0.162417D-03 -0.221886D-02 -0.963795D-03 -0.702729D-03
     13 -0.166480D+00  0.182264D-01  0.600248D-03  0.941052D-02 -0.326978D-01
     14 -0.242790D-02 -0.390824D+00 -0.697410D-02  0.274878D-03 -0.954937D-03
     15  0.203406D-03 -0.405240D-02 -0.790007D-01  0.372707D-03 -0.147456D-02
     16  0.182993D-01  0.550253D-03 -0.100632D-03 -0.409511D-05 -0.276393D-05
     17 -0.245366D-01 -0.750001D-03  0.804130D-03  0.178241D-05  0.120301D-05
     18 -0.586831D-03 -0.361860D-03  0.188918D-01 -0.104543D-03 -0.705600D-04
     19  0.000000D+00  0.000000D+00  0.297273D-04  0.171159D-05  0.897361D-05
     20  0.000000D+00 -0.246261D-05  0.133931D-03  0.000000D+00  0.118607D-05
     21 -0.376712D-04 -0.126809D-03  0.689664D-02 -0.390029D-04 -0.204486D-03
     22  0.722454D-02 -0.252983D-01  0.117316D-02 -0.149236D+00 -0.908176D-01
     23 -0.318421D-02  0.110827D-01  0.577693D-04 -0.867120D-01 -0.306124D+00
     24 -0.900959D-04 -0.191130D-02  0.189413D-01  0.429386D-02  0.105440D-01
     25 -0.270035D+00  0.135010D+00  0.437880D-02 -0.545487D-02  0.189139D-01
     26  0.138616D+00 -0.238598D+00 -0.558419D-02 -0.616152D-02  0.214313D-01
     27  0.560449D-02 -0.687100D-02 -0.706771D-01 -0.108833D-02  0.172698D-02
                6             7             8             9            10 
      6  0.159173D+00
      7  0.561024D-02  0.581584D+00
      8 -0.989025D-02  0.827297D-02  0.818762D+00
      9 -0.473326D-01  0.349855D-02  0.235372D-01  0.618712D-01
     10  0.107318D-02 -0.311824D+00 -0.238057D+00 -0.116981D-01  0.976090D+00
     11 -0.750139D-03 -0.194035D+00 -0.425490D+00 -0.135414D-01 -0.454985D-02
     12 -0.150953D-02 -0.890359D-02 -0.128734D-01 -0.523287D-01  0.134755D-01
     13 -0.622811D-03 -0.785502D-02  0.564407D-02 -0.380730D-04 -0.507513D+00
     14  0.552958D-04 -0.303862D-01  0.218470D-01 -0.366447D-03  0.945200D-01
     15 -0.925952D-03 -0.115098D-02  0.522288D-03  0.976966D-02  0.138035D-02
     16  0.144935D-03  0.000000D+00 -0.145677D-05  0.469087D-04 -0.486896D-02
     17 -0.630833D-04 -0.176473D-05 -0.627280D-05  0.201987D-03  0.652571D-02
     18  0.370001D-02 -0.653082D-04 -0.232140D-03  0.747501D-02  0.763920D-04
     19 -0.273307D-03  0.233761D-01 -0.168325D-01  0.944576D-03 -0.186923D+00
     20 -0.361237D-04  0.122465D-01 -0.882080D-02  0.559798D-03  0.122977D+00
     21  0.622798D-02  0.802830D-03 -0.719353D-03  0.381609D-02 -0.422055D-02
     22  0.324771D-02  0.229067D-01  0.161310D-01 -0.148883D-02 -0.192113D-05
     23  0.727509D-02 -0.101121D-01 -0.712434D-02  0.775725D-03  0.000000D+00
     24 -0.593720D-01 -0.812484D-03 -0.683255D-03  0.396000D-02 -0.373608D-04
     25  0.710483D-03  0.172209D-05  0.351114D-05 -0.809434D-04  0.000000D+00
     26  0.230376D-03  0.504278D-05  0.102816D-04 -0.237026D-03  0.000000D+00
     27  0.175642D-01 -0.939817D-04 -0.191618D-03  0.441742D-02 -0.230135D-04
               11            12            13            14            15 
     11  0.979049D+00
     12  0.993627D-02  0.205436D+00
     13  0.732455D-01 -0.206428D-02  0.982740D+00
     14 -0.211929D+00 -0.369665D-03  0.680357D-01  0.810229D+00
     15 -0.131961D-02 -0.107170D+00 -0.645728D-02  0.265968D-02  0.211181D+00
     16 -0.188339D-01  0.875419D-03 -0.336818D+00 -0.157945D+00  0.667484D-02
     17  0.252452D-01 -0.172911D-03 -0.158219D+00 -0.243353D+00  0.406995D-02
     18  0.372986D-03  0.282227D-01  0.812600D-02  0.503450D-02 -0.878519D-01
     19  0.128407D+00 -0.346166D-02  0.706751D-02  0.273398D-01 -0.681185D-03
     20 -0.354773D+00  0.404927D-02  0.369975D-02  0.143135D-01  0.165886D-03
     21  0.563661D-02 -0.806112D-01  0.763247D-04  0.378791D-03  0.304327D-01
     22 -0.100722D-04  0.306765D-03  0.580505D-05  0.391804D-05 -0.205453D-03
     23 -0.150449D-05  0.458217D-04 -0.617998D-05 -0.417109D-05  0.218723D-03
     24 -0.195877D-03  0.596576D-02 -0.119492D-03 -0.806493D-04  0.422907D-02
     25 -0.102365D-05  0.556722D-04  0.194422D-01  0.585157D-03 -0.136405D-03
     26  0.138106D-05 -0.751102D-04  0.220718D-01  0.675875D-03 -0.789957D-03
     27 -0.774684D-04  0.421318D-02  0.499362D-03 -0.337404D-03  0.193361D-01
               16            17            18            19            20 
     16  0.323396D+00
     17  0.176230D+00  0.218871D+00
     18 -0.730600D-02 -0.462603D-02  0.482894D-01
     19  0.000000D+00 -0.140951D-05 -0.521624D-04  0.156479D+00
     20 -0.147477D-05 -0.635030D-05 -0.235008D-03 -0.138922D+00  0.349288D+00
     21 -0.759416D-04 -0.327002D-03 -0.121015D-01  0.349401D-02 -0.463775D-02
     22  0.000000D+00  0.000000D+00  0.000000D+00  0.000000D+00  0.000000D+00
     23  0.000000D+00  0.000000D+00  0.000000D+00  0.000000D+00  0.000000D+00
     24  0.000000D+00  0.000000D+00  0.000000D+00  0.000000D+00  0.000000D+00
     25 -0.342935D-05  0.149264D-05 -0.875474D-04  0.000000D+00  0.000000D+00
     26  0.462672D-05 -0.201380D-05  0.118115D-03  0.000000D+00  0.000000D+00
     27 -0.259528D-03  0.112961D-03 -0.662545D-02  0.000000D+00  0.000000D+00
               21            22            23            24            25 
     21  0.453393D-01
     22  0.000000D+00  0.119106D+00
     23  0.000000D+00  0.100008D+00  0.302153D+00
     24  0.000000D+00 -0.335619D-02 -0.802944D-02  0.329211D-01
     25  0.000000D+00 -0.591551D-05  0.629757D-05  0.121766D-03  0.256055D+00
     26  0.000000D+00 -0.173223D-04  0.184411D-04  0.356565D-03 -0.154519D+00
     27  0.000000D+00  0.322834D-03 -0.343685D-03 -0.664526D-02 -0.496183D-02
               26            27 
     26  0.216463D+00
     27  0.598123D-02  0.384169D-01
 Leave Link  716 at Tue Dec 15 16:29:44 2015, MaxMem=    33554432 cpu:         0.0
 (Enter /home/Applications/g09/g09/l103.exe)

 GradGradGradGradGradGradGradGradGradGradGradGradGradGradGradGradGradGrad
 Berny optimization.
 Search for a local minimum.
 Step number   1 out of a maximum of    2
 All quantities printed in internal units (Hartrees-Bohrs-Radians)
 Second derivative matrix not updated -- first step.
 ITU=  0
     Eigenvalues ---    0.01649   0.03188   0.07144   0.07997   0.08010
     Eigenvalues ---    0.08265   0.12817   0.13275   0.16466   0.23482
     Eigenvalues ---    0.26991   0.27693   0.38159   0.44832   0.64323
     Eigenvalues ---    0.91816   1.16674   1.34342   1.41438   1.56038
     Eigenvalues ---    1.70546
 Quadratic step=3.970D-01 exceeds max=3.000D-01 adjusted using Lamda=-7.916D-02.
 Angle between NR and scaled steps=   7.97 degrees.
 Angle between quadratic step and forces=  33.71 degrees.
 Linear search not attempted -- first point.
 TrRot= -0.010874 -0.011558 -0.000451  0.757623 -0.000431 -0.757452
 Variable       Old X    -DE/DX   Delta X   Delta X   Delta X     New X
                                 (Linear)    (Quad)   (Total)
    X1        1.89503   0.00740   0.00000   0.03738   0.02674   1.92177
    Y1       -1.31206  -0.02726   0.00000  -0.05945  -0.07068  -1.38273
    Z1        0.00822   0.00018   0.00000   0.00033   0.00008   0.00830
    X2       -0.68890   0.01134   0.00000  -0.01027  -0.02076  -0.70966
    Y2       -2.05400  -0.07458   0.00000  -0.07905  -0.09070  -2.14471
    Z2       -0.07894  -0.00257   0.00000  -0.00437  -0.00567  -0.08461
    X3       -2.14210  -0.07985   0.00000  -0.09611  -0.10697  -2.24907
    Y3        0.01503  -0.00854   0.00000  -0.01652  -0.02846  -0.01343
    Z3       -0.02011  -0.00121   0.00000  -0.00416  -0.00531  -0.02542
    X4       -0.67475  -0.02818   0.00000  -0.04702  -0.05828  -0.73303
    Y4        2.05709   0.05710   0.00000   0.07565   0.06395   2.12104
    Z4        0.05613   0.00330   0.00000   0.00610   0.00606   0.06219
    X5        1.81334   0.04593   0.00000   0.07363   0.06249   1.87583
    Y5        1.41395  -0.02198   0.00000   0.01239   0.00113   1.41508
    Z5        0.05790   0.00168   0.00000   0.00124   0.00180   0.05970
    X6        3.34669   0.04109   0.00000   0.13234   0.12102   3.46771
    Y6        2.55849   0.03515   0.00000   0.08803   0.07707   2.63555
    Z6        0.01735  -0.00153   0.00000  -0.00664  -0.00521   0.01213
    X7       -1.58044  -0.01450   0.00000  -0.05815  -0.06970  -1.65014
    Y7        3.78782   0.02908   0.00000   0.12762   0.11578   3.90360
    Z7        0.02642  -0.00015   0.00000   0.00391   0.00410   0.03053
    X8       -1.51985  -0.00025   0.00000  -0.02881  -0.03900  -1.55885
    Y8       -3.94092   0.01412   0.00000  -0.02061  -0.03242  -3.97334
    Z8       -0.02172   0.00001   0.00000   0.00257   0.00046  -0.02126
    X9        3.39090   0.01700   0.00000   0.09487   0.08446   3.47536
    Y9       -2.62872  -0.00308   0.00000  -0.02471  -0.03566  -2.66439
    Z9       -0.03502   0.00029   0.00000   0.00384   0.00369  -0.03133
         Item               Value     Threshold  Converged?
 Maximum Force            0.079849     0.000450     NO 
 RMS     Force            0.029869     0.000300     NO 
 Maximum Displacement     0.121015     0.001800     NO 
 RMS     Displacement     0.057089     0.001200     NO 
 Predicted change in Energy=-2.296593D-02
 GradGradGradGradGradGradGradGradGradGradGradGradGradGradGradGradGradGrad

 Leave Link  103 at Tue Dec 15 16:29:44 2015, MaxMem=    33554432 cpu:         0.0
 (Enter /home/Applications/g09/g09/l9999.exe)
 1\1\GINC-DUSTIN-DESKTOP\Force\RB3LYP-FC\3-21G\C4H4O1\DUSTIN\15-Dec-201
 5\0\\#P B3LYP/3-21G CIS(Singlets,NStates=15) pop(full) force\\FuranDFT
 \\0,1\C,1.002809,-0.69431,0.004349\C,-0.364552,-1.086932,-0.041773\O,-
 1.13355,0.007953,-0.01064\C,-0.357061,1.088564,0.029703\C,0.959577,0.7
 48228,0.030637\H,1.770993,1.353893,0.009179\H,-0.836333,2.004427,0.013
 983\H,-0.804269,-2.085446,-0.011493\H,1.794385,-1.391061,-0.018532\\Ve
 rsion=ES64L-G09RevD.01\State=1-A\HF=-228.7387275\RMSD=6.587e-09\RMSF=2
 .987e-02\Dipole=0.307606,0.0085503,-0.0095429\PG=C01 [X(C4H4O1)]\\@


 GARBAGE IN, GARBAGE OUT
 Job cpu time:       0 days  0 hours  0 minutes 46.8 seconds.
 File lengths (MBytes):  RWF=     14 Int=      0 D2E=      0 Chk=      3 Scr=      1
 Normal termination of Gaussian 09 at Tue Dec 15 16:29:44 2015.
