 Entering Gaussian System, Link 0=g09
 Input=FuranAM1_86.com
 Output=FuranAM1_86.log
 Initial command:
 /home/Applications/g09/g09/l1.exe "/home/Applications/g09/scratch/Gau-6333.inp" -scrdir="/home/Applications/g09/scratch/"
 Entering Link 1 = /home/Applications/g09/g09/l1.exe PID=      6335.
  
 Copyright (c) 1988,1990,1992,1993,1995,1998,2003,2009,2013,
            Gaussian, Inc.  All Rights Reserved.
  
 This is part of the Gaussian(R) 09 program.  It is based on
 the Gaussian(R) 03 system (copyright 2003, Gaussian, Inc.),
 the Gaussian(R) 98 system (copyright 1998, Gaussian, Inc.),
 the Gaussian(R) 94 system (copyright 1995, Gaussian, Inc.),
 the Gaussian 92(TM) system (copyright 1992, Gaussian, Inc.),
 the Gaussian 90(TM) system (copyright 1990, Gaussian, Inc.),
 the Gaussian 88(TM) system (copyright 1988, Gaussian, Inc.),
 the Gaussian 86(TM) system (copyright 1986, Carnegie Mellon
 University), and the Gaussian 82(TM) system (copyright 1983,
 Carnegie Mellon University). Gaussian is a federally registered
 trademark of Gaussian, Inc.
  
 This software contains proprietary and confidential information,
 including trade secrets, belonging to Gaussian, Inc.
  
 This software is provided under written license and may be
 used, copied, transmitted, or stored only in accord with that
 written license.
  
 The following legend is applicable only to US Government
 contracts under FAR:
  
                    RESTRICTED RIGHTS LEGEND
  
 Use, reproduction and disclosure by the US Government is
 subject to restrictions as set forth in subparagraphs (a)
 and (c) of the Commercial Computer Software - Restricted
 Rights clause in FAR 52.227-19.
  
 Gaussian, Inc.
 340 Quinnipiac St., Bldg. 40, Wallingford CT 06492
  
  
 ---------------------------------------------------------------
 Warning -- This program may not be used in any manner that
 competes with the business of Gaussian, Inc. or will provide
 assistance to any competitor of Gaussian, Inc.  The licensee
 of this program is prohibited from giving any competitor of
 Gaussian, Inc. access to this program.  By using this program,
 the user acknowledges that Gaussian, Inc. is engaged in the
 business of creating and licensing software in the field of
 computational chemistry and represents and warrants to the
 licensee that it is not a competitor of Gaussian, Inc. and that
 it will not use this program in any manner prohibited above.
 ---------------------------------------------------------------
  

 Cite this work as:
 Gaussian 09, Revision D.01,
 M. J. Frisch, G. W. Trucks, H. B. Schlegel, G. E. Scuseria, 
 M. A. Robb, J. R. Cheeseman, G. Scalmani, V. Barone, B. Mennucci, 
 G. A. Petersson, H. Nakatsuji, M. Caricato, X. Li, H. P. Hratchian, 
 A. F. Izmaylov, J. Bloino, G. Zheng, J. L. Sonnenberg, M. Hada, 
 M. Ehara, K. Toyota, R. Fukuda, J. Hasegawa, M. Ishida, T. Nakajima, 
 Y. Honda, O. Kitao, H. Nakai, T. Vreven, J. A. Montgomery, Jr., 
 J. E. Peralta, F. Ogliaro, M. Bearpark, J. J. Heyd, E. Brothers, 
 K. N. Kudin, V. N. Staroverov, T. Keith, R. Kobayashi, J. Normand, 
 K. Raghavachari, A. Rendell, J. C. Burant, S. S. Iyengar, J. Tomasi, 
 M. Cossi, N. Rega, J. M. Millam, M. Klene, J. E. Knox, J. B. Cross, 
 V. Bakken, C. Adamo, J. Jaramillo, R. Gomperts, R. E. Stratmann, 
 O. Yazyev, A. J. Austin, R. Cammi, C. Pomelli, J. W. Ochterski, 
 R. L. Martin, K. Morokuma, V. G. Zakrzewski, G. A. Voth, 
 P. Salvador, J. J. Dannenberg, S. Dapprich, A. D. Daniels, 
 O. Farkas, J. B. Foresman, J. V. Ortiz, J. Cioslowski, 
 and D. J. Fox, Gaussian, Inc., Wallingford CT, 2013.
 
 ******************************************
 Gaussian 09:  ES64L-G09RevD.01 24-Apr-2013
                15-Dec-2015 
 ******************************************
 ------------------------------------------------------------
 #P AM1(Input,print) CIS(Singlets,NStates=15) pop(full) force
 ------------------------------------------------------------
 1/10=7,30=1,38=1/1,3;
 2/12=2,17=6,18=5,40=1/2;
 3/5=2,16=1,25=1,41=700000,71=1,135=100,136=1/1,2,8,3;
 4/35=1/1;
 5/5=2,35=1,38=5/2;
 8/6=1,10=1,108=15/1;
 9/15=2,41=15,42=1,48=1,49=10/14;
 10/5=4/2;
 6/7=3,18=1/1;
 7/12=6,13=5,29=1/1,2,3,16;
 1/10=7,30=1/3;
 99//99;
 Leave Link    1 at Tue Dec 15 16:28:09 2015, MaxMem=           0 cpu:         0.0
 (Enter /home/Applications/g09/g09/l101.exe)
 -----------------
 AM1-Reparam Input
 -----------------
 Symbolic Z-matrix:
 Charge =  0 Multiplicity = 1
 6                     0.98969  -0.68648   0.04344 
 6                    -0.31643  -1.12804  -0.02686 
 8                    -1.18217  -0.01637   0.04787 
 6                    -0.30182   1.0697    0.02567 
 6                     0.9251    0.69893   0.01152 
 1                     1.78792   1.4108    0.01187 
 1                    -0.82823   2.07717  -0.0081 
 1                    -0.80227  -2.01108  -0.01739 
 1                     1.79285  -1.40851   0.00796 
 
 NAtoms=      9 NQM=        9 NQMF=       0 NMMI=      0 NMMIF=      0
                NMic=       0 NMicF=      0.
                    Isotopes and Nuclear Properties:
 (Nuclear quadrupole moments (NQMom) in fm**2, nuclear magnetic moments (NMagM)
  in nuclear magnetons)

  Atom         1           2           3           4           5           6           7           8           9
 IAtWgt=          12          12          16          12          12           1           1           1           1
 AtmWgt=  12.0000000  12.0000000  15.9949146  12.0000000  12.0000000   1.0078250   1.0078250   1.0078250   1.0078250
 NucSpn=           0           0           0           0           0           1           1           1           1
 AtZEff=   0.0000000   0.0000000   0.0000000   0.0000000   0.0000000   0.0000000   0.0000000   0.0000000   0.0000000
 NQMom=    0.0000000   0.0000000   0.0000000   0.0000000   0.0000000   0.0000000   0.0000000   0.0000000   0.0000000
 NMagM=    0.0000000   0.0000000   0.0000000   0.0000000   0.0000000   2.7928460   2.7928460   2.7928460   2.7928460
 AtZNuc=   6.0000000   6.0000000   8.0000000   6.0000000   6.0000000   1.0000000   1.0000000   1.0000000   1.0000000
 Leave Link  101 at Tue Dec 15 16:28:09 2015, MaxMem=    33554432 cpu:         0.0
 (Enter /home/Applications/g09/g09/l103.exe)

 GradGradGradGradGradGradGradGradGradGradGradGradGradGradGradGradGradGrad
 Berny optimization.
 Initialization pass.
 Trust Radius=3.00D-01 FncErr=1.00D-07 GrdErr=1.00D-07
 Number of steps in this run=      2 maximum allowed number of steps=      2.
 GradGradGradGradGradGradGradGradGradGradGradGradGradGradGradGradGradGrad

 Leave Link  103 at Tue Dec 15 16:28:09 2015, MaxMem=    33554432 cpu:         0.0
 (Enter /home/Applications/g09/g09/l202.exe)
                          Input orientation:                          
 ---------------------------------------------------------------------
 Center     Atomic      Atomic             Coordinates (Angstroms)
 Number     Number       Type             X           Y           Z
 ---------------------------------------------------------------------
      1          6           0        0.989694   -0.686478    0.043436
      2          6           0       -0.316428   -1.128044   -0.026857
      3          8           0       -1.182175   -0.016365    0.047865
      4          6           0       -0.301816    1.069697    0.025668
      5          6           0        0.925104    0.698931    0.011520
      6          1           0        1.787915    1.410795    0.011865
      7          1           0       -0.828230    2.077168   -0.008101
      8          1           0       -0.802272   -2.011079   -0.017392
      9          1           0        1.792849   -1.408507    0.007959
 ---------------------------------------------------------------------
                    Distance matrix (angstroms):
                    1          2          3          4          5
     1  C    0.000000
     2  C    1.380535   0.000000
     3  O    2.272903   1.411004   0.000000
     4  C    2.180015   2.198417   1.398233   0.000000
     5  C    1.387281   2.209233   2.225667   1.281796   0.000000
     6  H    2.244261   3.297797   3.295378   2.117431   1.118568
     7  H    3.308360   3.245871   2.123980   1.137211   2.230270
     8  H    2.229217   1.007911   2.031617   3.121457   3.213848
     9  H    1.080575   2.128126   3.284877   3.244908   2.279098
                    6          7          8          9
     6  H    0.000000
     7  H    2.699753   0.000000
     8  H    4.291753   4.088340   0.000000
     9  H    2.819309   4.361220   2.664280   0.000000
 Stoichiometry    C4H4O
 Framework group  C1[X(C4H4O)]
 Deg. of freedom    21
 Full point group                 C1      NOp   1
 Largest Abelian subgroup         C1      NOp   1
 Largest concise Abelian subgroup C1      NOp   1
                         Standard orientation:                         
 ---------------------------------------------------------------------
 Center     Atomic      Atomic             Coordinates (Angstroms)
 Number     Number       Type             X           Y           Z
 ---------------------------------------------------------------------
      1          6           0       -0.641123    1.005779   -0.031384
      2          6           0       -1.129898   -0.283423    0.038843
      3          8           0       -0.049575   -1.188788   -0.025569
      4          6           0        1.067270   -0.347998    0.002481
      5          6           0        0.740796    0.891495    0.010900
      6          1           0        1.483228    1.728144    0.013694
      7          1           0        2.054875   -0.910209    0.044960
      8          1           0       -2.029750   -0.737221    0.024056
      9          1           0       -1.334025    1.834473   -0.003191
 ---------------------------------------------------------------------
 Rotational constants (GHZ):      9.5414425      9.2703838      4.7058765
 Leave Link  202 at Tue Dec 15 16:28:09 2015, MaxMem=    33554432 cpu:         0.0
 (Enter /home/Applications/g09/g09/l301.exe)

 Semi-emprical parameters in input format:
 Method=8 CoreType=1 PeptideFC=0.0114510000 RIJScale=0.5291770000
 ****
 H       
 PQN=1 NValence=1 F0ss=0.4721550000 ZetaOverlap=1.1880780000 U=-0.4188110000
 Beta=-0.2268830000 CoreKO=1.0589200000 KON=0,0,0,1.0589200000 KON=1,0,1,1.0589200000
 KON=0,1,1,1.0589200000 KON=2,1,1,1.0589200000 EISol=-0.4188110042 EHeat=0.0830298228
 Alpha=1.5252600000
 GCore=0.0085280000,1.4001430000,2.2676710000
 GCore=0.0003530000,1.4001430000,3.4015070000
 GCore=-0.0012730000,0.5600570000,3.9684250000
 ****
 C       
 PQN=2,2 NValence=4 F0ss=0.4494440000 F0sp=0.4215150000 F0pp=0.3768030000 F2pp=0.1898720000
 G1sp=0.2679030000
 ZetaOverlap=1.8086650000,1.6851160000
 U=-1.9120180000,-1.4557970000
 Beta=-0.5775440000,-0.2836780000 DDN=0,1,0.8236740000 DDN=1,1,0.7268010000
 CoreKO=1.1124280000 KON=0,0,0,1.1124280000 KON=1,0,1,0.8219700000 KON=0,1,1,1.1124280000
 KON=2,1,1,0.7783930000 EISol=-4.4398989268 EHeat=0.2723305520 Alpha=1.4014060000
 DipHyp=1.6472532266
 GCore=0.0007890000,1.4001430000,3.0235620000
 GCore=0.0031890000,1.4001430000,3.4959930000
 GCore=-0.0013930000,1.4001430000,3.8739390000
 GCore=-0.0000880000,1.4001430000,5.0077740000
 ****
 O       
 PQN=2,2 NValence=6 F0ss=0.5666750000 F0sp=0.5321300000 F0pp=0.4958710000 F2pp=0.2358080000
 G1sp=0.4343770000
 ZetaOverlap=3.1080320000,2.5240390000
 U=-3.5951870000,-2.8760900000
 Beta=-1.0757550000,-1.0757550000 DDN=0,1,0.4988900000 DDN=1,1,0.4852320000
 CoreKO=0.8822960000 KON=0,0,0,0.8822960000 KON=1,0,1,0.5019540000 KON=0,1,1,0.8822960000
 KON=2,1,1,0.5515580000 EISol=-11.6164441184 EHeat=0.0949133088 Alpha=2.3576810000
 DipHyp=0.9977225968
 GCore=0.0195120000,1.4001430000,1.6023330000
 GCore=0.0056550000,1.9602000000,2.7307880000
 ****
 
 Standard basis: VSTO-6G (5D, 7F)
 Ernie: Thresh=  0.10000D-02 Tol=  0.10000D-05 Strict=F.
  NNHCO=     0 NNPyr=     0 NCTC=     0               EPep=         0.000000000
    EC=        68.705597035  ECS=         1.845739631   EG=         0.334913180
   EHC=         0.000000000  EAt=       -31.051283842  AtH=         1.516354808
 EPDDG=         0.000000000  ECC=        70.886249846 EAtT=        32.567638650
 There are    24 symmetry adapted cartesian basis functions of A   symmetry.
 There are    24 symmetry adapted basis functions of A   symmetry.
    24 basis functions,   144 primitive gaussians,    24 cartesian basis functions
    13 alpha electrons       13 beta electrons
       nuclear repulsion energy       103.4538884960 Hartrees.
 IExCor=    0 DFT=F Ex=HF Corr=None ExCW=0 ScaHFX=  1.000000
 ScaDFX=  1.000000  1.000000  1.000000  1.000000 ScalE2=  1.000000  1.000000
 IRadAn=      0 IRanWt=     -1 IRanGd=            0 ICorTp=0 IEmpDi=  4
 Integral buffers will be    131072 words long.
 Regular integral format.
 Two-electron integral symmetry is turned off.
 Leave Link  301 at Tue Dec 15 16:28:09 2015, MaxMem=    33554432 cpu:         0.0
 (Enter /home/Applications/g09/g09/l302.exe)
 Do NDO integrals.
 NPDir=0 NMtPBC=     1 NCelOv=     1 NCel=       1 NClECP=     1 NCelD=      1
         NCelK=      1 NCelE2=     1 NClLst=     1 CellRange=     0.0.
 One-electron integrals computed using PRISM.
 NBasis=    24 RedAO= F EigKep=  0.00D+00  NBF=    24
 NBsUse=    24 1.00D-04 EigRej=  0.00D+00 NBFU=    24
 Leave Link  302 at Tue Dec 15 16:28:09 2015, MaxMem=    33554432 cpu:         0.0
 (Enter /home/Applications/g09/g09/l308.exe)
 Leave Link  308 at Tue Dec 15 16:28:09 2015, MaxMem=    33554432 cpu:         0.0
 (Enter /home/Applications/g09/g09/l303.exe)
 DipDrv:  MaxL=1.
 Leave Link  303 at Tue Dec 15 16:28:09 2015, MaxMem=    33554432 cpu:         0.0
 (Enter /home/Applications/g09/g09/l401.exe)
 Simple Huckel Guess.
 JPrj=0 DoOrth=F DoCkMO=F.
 Leave Link  401 at Tue Dec 15 16:28:09 2015, MaxMem=    33554432 cpu:         0.0
 (Enter /home/Applications/g09/g09/l502.exe)
 Closed shell SCF:
 Using DIIS extrapolation, IDIIS=  1040.
 Overlap will be assumed to be unity.
 Two-electron integral symmetry not used.
 Keep J ints in memory in canonical form, NReq=888082.
 IVT=       79475 IEndB=       79475 NGot=    33554432 MDV=    33473473
 LenX=    33473473 LenY=    33472456
 Requested convergence on RMS density matrix=1.00D-08 within 128 cycles.
 Requested convergence on MAX density matrix=1.00D-06.
 Requested convergence on             energy=1.00D-06.
 No special actions if energy rises.
 FoFCou: FMM=F IPFlag=           0 FMFlag=           0 FMFlg1=           0
         NFxFlg=           0 DoJE=F BraDBF=F KetDBF=F FulRan=T
         wScrn=  0.000000 ICntrl=     600 IOpCl=  2 I1Cent=           0 NGrid=           0
         NMat0=    1 NMatS0=     54 NMatT0=    0 NMatD0=    1 NMtDS0=    0 NMtDT0=    0
 Symmetry not used in FoFCou.

 Cycle   1  Pass 1  IDiag  1:
 E= 0.348778040140189    
 DIIS: error= 5.30D-02 at cycle   1 NSaved=   1.
 NSaved= 1 IEnMin= 1 EnMin= 0.348778040140189     IErMin= 1 ErrMin= 5.30D-02
 ErrMax= 5.30D-02  0.00D+00 EMaxC= 1.00D-01 BMatC= 1.11D-01 BMatP= 1.11D-01
 IDIUse=3 WtCom= 4.70D-01 WtEn= 5.30D-01
 Coeff-Com:  0.100D+01
 Coeff-En:   0.100D+01
 Coeff:      0.100D+01
 GapD=    2.000 DampG=2.000 DampE=0.500 DampFc=1.0000 IDamp=-1.
 RMSDP=1.97D-02 MaxDP=1.59D-01              OVMax= 0.00D+00

 Cycle   2  Pass 1  IDiag  1:
 E= 0.652273200480806E-01 Delta-E=       -0.283550720092 Rises=F Damp=F
 DIIS: error= 2.05D-02 at cycle   2 NSaved=   2.
 NSaved= 2 IEnMin= 2 EnMin= 0.652273200480806E-01 IErMin= 2 ErrMin= 2.05D-02
 ErrMax= 2.05D-02  0.00D+00 EMaxC= 1.00D-01 BMatC= 9.48D-03 BMatP= 1.11D-01
 IDIUse=3 WtCom= 7.95D-01 WtEn= 2.05D-01
 Coeff-Com: -0.359D+00 0.136D+01
 Coeff-En:   0.000D+00 0.100D+01
 Coeff:     -0.286D+00 0.129D+01
 RMSDP=8.13D-03 MaxDP=7.66D-02 DE=-2.84D-01 OVMax= 0.00D+00

 Cycle   3  Pass 1  IDiag  1:
 E= 0.352813248898514E-01 Delta-E=       -0.029945995158 Rises=F Damp=F
 DIIS: error= 3.22D-03 at cycle   3 NSaved=   3.
 NSaved= 3 IEnMin= 3 EnMin= 0.352813248898514E-01 IErMin= 3 ErrMin= 3.22D-03
 ErrMax= 3.22D-03  0.00D+00 EMaxC= 1.00D-01 BMatC= 3.40D-04 BMatP= 9.48D-03
 IDIUse=3 WtCom= 9.68D-01 WtEn= 3.22D-02
 Coeff-Com:  0.149D+00-0.645D+00 0.150D+01
 Coeff-En:   0.000D+00 0.000D+00 0.100D+01
 Coeff:      0.144D+00-0.624D+00 0.148D+01
 RMSDP=2.44D-03 MaxDP=2.90D-02 DE=-2.99D-02 OVMax= 0.00D+00

 Cycle   4  Pass 1  IDiag  3:
 E= 0.334281065782278E-01 Delta-E=       -0.001853218312 Rises=F Damp=F
 DIIS: error= 1.02D-03 at cycle   4 NSaved=   4.
 NSaved= 4 IEnMin= 4 EnMin= 0.334281065782278E-01 IErMin= 4 ErrMin= 1.02D-03
 ErrMax= 1.02D-03  0.00D+00 EMaxC= 1.00D-01 BMatC= 2.42D-05 BMatP= 3.40D-04
 IDIUse=3 WtCom= 9.90D-01 WtEn= 1.02D-02
 Coeff-Com:  0.147D-01-0.593D-01-0.143D+00 0.119D+01
 Coeff-En:   0.000D+00 0.000D+00 0.000D+00 0.100D+01
 Coeff:      0.146D-01-0.587D-01-0.142D+00 0.119D+01
 Gap=     0.374 Goal=   None    Shift=    0.000
 RMSDP=7.41D-04 MaxDP=9.42D-03 DE=-1.85D-03 OVMax= 8.42D-03

 Cycle   5  Pass 1  IDiag  3:
 E= 0.332808581805750E-01 Delta-E=       -0.000147248398 Rises=F Damp=F
 DIIS: error= 2.30D-04 at cycle   5 NSaved=   5.
 NSaved= 5 IEnMin= 5 EnMin= 0.332808581805750E-01 IErMin= 5 ErrMin= 2.30D-04
 ErrMax= 2.30D-04  0.00D+00 EMaxC= 1.00D-01 BMatC= 1.86D-06 BMatP= 2.42D-05
 IDIUse=3 WtCom= 9.98D-01 WtEn= 2.30D-03
 Coeff-Com: -0.873D-02 0.375D-01-0.996D-02-0.439D+00 0.142D+01
 Coeff-En:   0.000D+00 0.000D+00 0.000D+00 0.000D+00 0.100D+01
 Coeff:     -0.871D-02 0.374D-01-0.994D-02-0.438D+00 0.142D+01
 Gap=     0.374 Goal=   None    Shift=    0.000
 RMSDP=2.53D-04 MaxDP=2.06D-03 DE=-1.47D-04 OVMax= 2.88D-03

 Cycle   6  Pass 1  IDiag  3:
 E= 0.332664451624680E-01 Delta-E=       -0.000014413018 Rises=F Damp=F
 DIIS: error= 1.01D-04 at cycle   6 NSaved=   6.
 NSaved= 6 IEnMin= 6 EnMin= 0.332664451624680E-01 IErMin= 6 ErrMin= 1.01D-04
 ErrMax= 1.01D-04  0.00D+00 EMaxC= 1.00D-01 BMatC= 2.03D-07 BMatP= 1.86D-06
 IDIUse=3 WtCom= 9.99D-01 WtEn= 1.01D-03
 Coeff-Com:  0.264D-02-0.109D-01 0.131D-01 0.108D+00-0.649D+00 0.154D+01
 Coeff-En:   0.000D+00 0.000D+00 0.000D+00 0.000D+00 0.000D+00 0.100D+01
 Coeff:      0.264D-02-0.109D-01 0.131D-01 0.108D+00-0.648D+00 0.154D+01
 Gap=     0.374 Goal=   None    Shift=    0.000
 RMSDP=1.02D-04 MaxDP=8.56D-04 DE=-1.44D-05 OVMax= 1.34D-03

 Cycle   7  Pass 1  IDiag  3:
 E= 0.332645725967780E-01 Delta-E=       -0.000001872566 Rises=F Damp=F
 DIIS: error= 3.40D-05 at cycle   7 NSaved=   7.
 NSaved= 7 IEnMin= 7 EnMin= 0.332645725967780E-01 IErMin= 7 ErrMin= 3.40D-05
 ErrMax= 3.40D-05  0.00D+00 EMaxC= 1.00D-01 BMatC= 1.69D-08 BMatP= 2.03D-07
 IDIUse=1 WtCom= 1.00D+00 WtEn= 0.00D+00
 Coeff-Com: -0.425D-03 0.119D-02-0.162D-02-0.239D-01 0.175D+00-0.690D+00
 Coeff-Com:  0.154D+01
 Coeff:     -0.425D-03 0.119D-02-0.162D-02-0.239D-01 0.175D+00-0.690D+00
 Coeff:      0.154D+01
 Gap=     0.374 Goal=   None    Shift=    0.000
 RMSDP=3.45D-05 MaxDP=3.24D-04 DE=-1.87D-06 OVMax= 4.21D-04

 Cycle   8  Pass 1  IDiag  3:
 E= 0.332644115142671E-01 Delta-E=       -0.000000161083 Rises=F Damp=F
 DIIS: error= 5.52D-06 at cycle   8 NSaved=   8.
 NSaved= 8 IEnMin= 8 EnMin= 0.332644115142671E-01 IErMin= 8 ErrMin= 5.52D-06
 ErrMax= 5.52D-06  0.00D+00 EMaxC= 1.00D-01 BMatC= 6.25D-10 BMatP= 1.69D-08
 IDIUse=1 WtCom= 1.00D+00 WtEn= 0.00D+00
 Coeff-Com:  0.172D-04 0.257D-03-0.900D-03 0.906D-02-0.556D-01 0.253D+00
 Coeff-Com: -0.716D+00 0.151D+01
 Coeff:      0.172D-04 0.257D-03-0.900D-03 0.906D-02-0.556D-01 0.253D+00
 Coeff:     -0.716D+00 0.151D+01
 Gap=     0.374 Goal=   None    Shift=    0.000
 RMSDP=5.50D-06 MaxDP=5.13D-05 DE=-1.61D-07 OVMax= 6.94D-05

 Cycle   9  Pass 1  IDiag  3:
 E= 0.332644068277546E-01 Delta-E=       -0.000000004687 Rises=F Damp=F
 DIIS: error= 7.10D-07 at cycle   9 NSaved=   9.
 NSaved= 9 IEnMin= 9 EnMin= 0.332644068277546E-01 IErMin= 9 ErrMin= 7.10D-07
 ErrMax= 7.10D-07  0.00D+00 EMaxC= 1.00D-01 BMatC= 1.96D-11 BMatP= 6.25D-10
 IDIUse=1 WtCom= 1.00D+00 WtEn= 0.00D+00
 Coeff-Com:  0.213D-04-0.196D-03 0.438D-03-0.217D-02 0.126D-01-0.660D-01
 Coeff-Com:  0.204D+00-0.533D+00 0.138D+01
 Coeff:      0.213D-04-0.196D-03 0.438D-03-0.217D-02 0.126D-01-0.660D-01
 Coeff:      0.204D+00-0.533D+00 0.138D+01
 Gap=     0.374 Goal=   None    Shift=    0.000
 RMSDP=7.96D-07 MaxDP=6.30D-06 DE=-4.69D-09 OVMax= 1.07D-05

 Cycle  10  Pass 1  IDiag  3:
 E= 0.332644067058538E-01 Delta-E=       -0.000000000122 Rises=F Damp=F
 DIIS: error= 1.41D-07 at cycle  10 NSaved=  10.
 NSaved=10 IEnMin=10 EnMin= 0.332644067058538E-01 IErMin=10 ErrMin= 1.41D-07
 ErrMax= 1.41D-07  0.00D+00 EMaxC= 1.00D-01 BMatC= 9.70D-13 BMatP= 1.96D-11
 IDIUse=1 WtCom= 1.00D+00 WtEn= 0.00D+00
 Coeff-Com: -0.113D-04 0.908D-04-0.204D-03 0.881D-03-0.464D-02 0.248D-01
 Coeff-Com: -0.781D-01 0.208D+00-0.667D+00 0.152D+01
 Coeff:     -0.113D-04 0.908D-04-0.204D-03 0.881D-03-0.464D-02 0.248D-01
 Coeff:     -0.781D-01 0.208D+00-0.667D+00 0.152D+01
 Gap=     0.374 Goal=   None    Shift=    0.000
 RMSDP=1.71D-07 MaxDP=1.32D-06 DE=-1.22D-10 OVMax= 1.85D-06

 Cycle  11  Pass 1  IDiag  3:
 E= 0.332644066998995E-01 Delta-E=       -0.000000000006 Rises=F Damp=F
 DIIS: error= 2.38D-08 at cycle  11 NSaved=  11.
 NSaved=11 IEnMin=11 EnMin= 0.332644066998995E-01 IErMin=11 ErrMin= 2.38D-08
 ErrMax= 2.38D-08  0.00D+00 EMaxC= 1.00D-01 BMatC= 3.46D-14 BMatP= 9.70D-13
 IDIUse=1 WtCom= 1.00D+00 WtEn= 0.00D+00
 Coeff-Com:  0.390D-05-0.319D-04 0.696D-04-0.300D-03 0.158D-02-0.860D-02
 Coeff-Com:  0.272D-01-0.721D-01 0.240D+00-0.650D+00 0.146D+01
 Coeff:      0.390D-05-0.319D-04 0.696D-04-0.300D-03 0.158D-02-0.860D-02
 Coeff:      0.272D-01-0.721D-01 0.240D+00-0.650D+00 0.146D+01
 Gap=     0.374 Goal=   None    Shift=    0.000
 RMSDP=3.08D-08 MaxDP=2.21D-07 DE=-5.95D-12 OVMax= 1.79D-07

 Cycle  12  Pass 1  IDiag  3:
 E= 0.332644066998995E-01 Delta-E=        0.000000000000 Rises=F Damp=F
 DIIS: error= 4.53D-09 at cycle  12 NSaved=  12.
 NSaved=12 IEnMin=11 EnMin= 0.332644066998995E-01 IErMin=12 ErrMin= 4.53D-09
 ErrMax= 4.53D-09  0.00D+00 EMaxC= 1.00D-01 BMatC= 1.61D-15 BMatP= 3.46D-14
 IDIUse=1 WtCom= 1.00D+00 WtEn= 0.00D+00
 Coeff-Com: -0.911D-06 0.760D-05-0.158D-04 0.686D-04-0.361D-03 0.203D-02
 Coeff-Com: -0.640D-02 0.167D-01-0.570D-01 0.165D+00-0.509D+00 0.139D+01
 Coeff:     -0.911D-06 0.760D-05-0.158D-04 0.686D-04-0.361D-03 0.203D-02
 Coeff:     -0.640D-02 0.167D-01-0.570D-01 0.165D+00-0.509D+00 0.139D+01
 Gap=     0.374 Goal=   None    Shift=    0.000
 RMSDP=7.30D-09 MaxDP=3.97D-08 DE= 0.00D+00 OVMax= 5.73D-08

 Cycle  13  Pass 2  IDiag  1:
 SCF Done:  E(RAM1) =  0.332644066999E-01 A.U. after   13 cycles
            NFock= 12  Conv=0.73D-08     -V/T= 1.0020
 KE=-1.653553764755D+01 PE=-1.710568635064D+02 EE= 8.417177706463D+01
 Leave Link  502 at Tue Dec 15 16:28:09 2015, MaxMem=    33554432 cpu:         0.0
 (Enter /home/Applications/g09/g09/l801.exe)
 Range of M.O.s used for correlation:     1    24
 NBasis=    24 NAE=    13 NBE=    13 NFC=     0 NFV=     0
 NROrb=     24 NOA=    13 NOB=    13 NVA=    11 NVB=    11
 Leave Link  801 at Tue Dec 15 16:28:09 2015, MaxMem=    33554432 cpu:         0.0
 (Enter /home/Applications/g09/g09/l914.exe)
 RHF ground state
 MDV=    33554432 DFT=F DoStab=F Mixed=F DoRPA=F DoScal=F NonHer=F
 Making orbital integer symmetry assigments:
 Orbital symmetries:
       Occupied  (A) (A) (A) (A) (A) (A) (A) (A) (A) (A) (A) (A)
                 (A)
       Virtual   (A) (A) (A) (A) (A) (A) (A) (A) (A) (A) (A)
    60 initial guesses have been made.
 Convergence on wavefunction:    0.000001000000000
 Davidson Disk Diagonalization:  ConvIn= 1.00D-06 SkipCon=T Conv= 1.00D-06.
 Max sub-space:   240 roots to seek:    60 dimension of matrix:          286
 Iteration     1 Dimension    60 NMult     0 NNew     60
 CISAX will form    60 AO SS matrices at one time.
 NMat=    60 NSing=    60 JSym2X= 0.
 FoFJK:  IHMeth= 8 ICntrl=       0 DoSepK=F KAlg= 0 I1Cent=   0 FoldK=F
 IRaf=         1 NMat= 120 IRICut=       1 DoRegI=T DoRafI=F ISym2E= 0.
 FoFCou: FMM=F IPFlag=           0 FMFlag=      100000 FMFlg1=           0
         NFxFlg=           0 DoJE=F BraDBF=F KetDBF=F FulRan=T
         wScrn=  0.000000 ICntrl=       0 IOpCl=  0 I1Cent=           0 NGrid=           0
         NMat0=  120 NMatS0=     60 NMatT0=    0 NMatD0=  120 NMtDS0=    0 NMtDT0=    0
 Symmetry not used in FoFCou.
 New state      2 was old state      4
 New state      3 was old state      2
 New state      4 was old state      7
 New state      5 was old state      9
 New state      6 was old state      3
 New state      7 was old state      8
 New state      8 was old state      6
 New state      9 was old state      5
 New state     10 was old state     13
 New state     11 was old state     15
 New state     12 was old state     11
 New state     13 was old state     20
 New state     14 was old state     17
 New state     15 was old state     14
 Excitation Energies [eV] at current iteration:
 Root      1 :     4.497797826533538
 Root      2 :     5.178645822261111
 Root      3 :     5.276411241840634
 Root      4 :     5.962112889129610
 Root      5 :     6.214717799731477
 Root      6 :     6.429646090949126
 Root      7 :     6.489405756984537
 Root      8 :     6.565317726051590
 Root      9 :     6.844009093205861
 Root     10 :     7.151469901316443
 Root     11 :     7.366417944974258
 Root     12 :     7.520440439643711
 Root     13 :     7.550598789371108
 Root     14 :     7.739985896326872
 Root     15 :     7.808693466326167
 Root     16 :     7.916012057944824
 Root     17 :     8.001569800327154
 Root     18 :     8.166683646381690
 Root     19 :     8.311807762337306
 Root     20 :     8.372013513432245
 Root     21 :     8.778117106574003
 Root     22 :     8.846689578111802
 Root     23 :     9.052093880404941
 Root     24 :     9.255033865395793
 Root     25 :     9.435986136556378
 Root     26 :     9.489306270624732
 Root     27 :     9.555149255014545
 Root     28 :     9.663141284092655
 Root     29 :     9.785948402715082
 Root     30 :     9.849776327743188
 Root     31 :    10.060440079027160
 Root     32 :    10.142863870479650
 Root     33 :    10.163204715453020
 Root     34 :    10.272078181096280
 Root     35 :    10.394341105393180
 Root     36 :    10.462252628570400
 Root     37 :    10.477397229903820
 Root     38 :    10.710406951677180
 Root     39 :    10.794396251919610
 Root     40 :    10.866410451723040
 Root     41 :    10.934840467687970
 Root     42 :    11.173184449464140
 Root     43 :    11.252149529583390
 Root     44 :    11.439418956530420
 Root     45 :    11.545426059321730
 Root     46 :    11.649415633287930
 Root     47 :    11.725123623291240
 Root     48 :    11.845292815916580
 Root     49 :    11.908661723457240
 Root     50 :    12.254053187842940
 Root     51 :    12.277009739483230
 Root     52 :    12.647867077353280
 Root     53 :    12.833602072480630
 Root     54 :    12.923527850470040
 Root     55 :    13.004897230427400
 Root     56 :    13.105384864875860
 Root     57 :    13.307634520591960
 Root     58 :    13.469329850258430
 Root     59 :    13.600018717042690
 Root     60 :    13.702051992290760
 Iteration     2 Dimension   120 NMult    60 NNew     60
 CISAX will form    60 AO SS matrices at one time.
 NMat=    60 NSing=    60 JSym2X= 0.
 Root      1 not converged, maximum delta is    0.031356557847603
 Root      2 not converged, maximum delta is    0.030481487919528
 Root      3 not converged, maximum delta is    0.019063200293631
 Root      4 not converged, maximum delta is    0.056295372512679
 Root      5 not converged, maximum delta is    0.062534916117618
 Root      6 not converged, maximum delta is    0.038583922511149
 Root      7 not converged, maximum delta is    0.056861060738474
 Root      8 not converged, maximum delta is    0.053374020791385
 Root      9 not converged, maximum delta is    0.030709797200838
 Root     10 not converged, maximum delta is    0.066062474396953
 Root     11 not converged, maximum delta is    0.102650120500481
 Root     12 not converged, maximum delta is    0.149850523800988
 Root     13 not converged, maximum delta is    0.131405211907626
 Root     14 not converged, maximum delta is    0.214003966044412
 Root     15 not converged, maximum delta is    0.171663069298657
 Excitation Energies [eV] at current iteration:
 Root      1 :     4.409374299499096   Change is   -0.088423527034442
 Root      2 :     5.151027543422358   Change is   -0.027618278838753
 Root      3 :     5.253862038330380   Change is   -0.022549203510255
 Root      4 :     5.844491576194986   Change is   -0.117621312934625
 Root      5 :     6.104143683035393   Change is   -0.110574116696083
 Root      6 :     6.307240784136027   Change is   -0.122405306813099
 Root      7 :     6.352125152865993   Change is   -0.137280604118545
 Root      8 :     6.492172137987842   Change is   -0.073145588063748
 Root      9 :     6.788250241294200   Change is   -0.055758851911660
 Root     10 :     7.070460387300511   Change is   -0.081009514015933
 Root     11 :     7.173097084027102   Change is   -0.193320860947156
 Root     12 :     7.421162324554500   Change is   -0.099278115089211
 Root     13 :     7.463585040671466   Change is   -0.087013748699642
 Root     14 :     7.606433602316369   Change is   -0.133552294010503
 Root     15 :     7.710257807380521   Change is   -0.098435658945646
 Root     16 :     7.767926869412117   Change is   -0.148085188532708
 Root     17 :     7.927554523735344   Change is   -0.074015276591810
 Root     18 :     7.975475062003215   Change is   -0.191208584378475
 Root     19 :     8.183685851532022   Change is   -0.188327661900223
 Root     20 :     8.240367182163819   Change is   -0.071440580173486
 Root     21 :     8.744909062316950   Change is   -0.033208044257053
 Root     22 :     8.761804447532391   Change is   -0.290289432872550
 Root     23 :     8.812983548568409   Change is   -0.033706029543392
 Root     24 :     9.004062500130212   Change is   -0.250971365265581
 Root     25 :     9.079737444507272   Change is   -0.356248692049108
 Root     26 :     9.279795035327181   Change is   -0.506153367387900
 Root     27 :     9.386848863723550   Change is   -0.102457406901183
 Root     28 :     9.401623697933417   Change is   -0.658816381093740
 Root     29 :     9.488671860020014   Change is   -0.066477394994529
 Root     30 :     9.527864836365209   Change is   -0.614999034114440
 Root     31 :     9.562608232605820   Change is   -0.100533051486833
 Root     32 :     9.624923495869655   Change is   -0.224852831873531
 Root     33 :     9.789640210040893   Change is   -0.482437971055386
 Root     34 :     9.923640561462683   Change is   -0.470700543930493
 Root     35 :    10.033637379218100   Change is   -0.676769572459076
 Root     36 :    10.060711310459040   Change is   -0.102493404993981
 Root     37 :    10.202126398111970   Change is   -0.260126230458428
 Root     38 :    10.297503088519070   Change is   -0.179894141384751
 Root     39 :    10.356861321690890   Change is   -0.437534930228721
 Root     40 :    10.396665423751500   Change is   -0.538175043936466
 Root     41 :    10.702429564569350   Change is   -0.549719965014039
 Root     42 :    10.751352874750810   Change is   -0.688066081779605
 Root     43 :    10.773651867306640   Change is   -0.092758584416400
 Root     44 :    10.848366362552710   Change is   -0.324818086911424
 Root     45 :    11.058654176370340   Change is   -0.486771882951388
 Root     46 :    11.342054689646940   Change is   -0.566607033810294
 Root     47 :    11.360424250526700   Change is   -0.288991382761225
 Root     48 :    11.504762211447880   Change is   -0.220361411843364
 Root     49 :    11.631703130450230   Change is   -0.213589685466354
 Root     50 :    11.831572514501600   Change is   -1.091955335968434
 Root     51 :    11.896413256457450   Change is   -0.357639931385483
 Root     52 :    11.926988222395680   Change is   -0.350021517087545
 Root     53 :    12.162805893884360   Change is   -0.485061183468913
 Root     54 :    12.465526757369660   Change is   -0.639858107506202
 Root     55 :    12.480084454476520
 Root     56 :    12.697026313994230   Change is   -0.307870916433169
 Root     57 :    12.784693593259770   Change is   -0.048908479220866
 Root     58 :    12.788849215930430   Change is   -0.811169501112255
 Root     59 :    13.070195424901630   Change is   -0.237439095690336
 Root     60 :    13.131202639289010   Change is   -0.338127210969425
 Iteration     3 Dimension   135 NMult   120 NNew     15
 CISAX will form    15 AO SS matrices at one time.
 NMat=    15 NSing=    15 JSym2X= 0.
 Root      1 not converged, maximum delta is    0.001256574339248
 Root      2 not converged, maximum delta is    0.000203890858094
 Root      3 not converged, maximum delta is    0.000343492271002
 Root      4 not converged, maximum delta is    0.000254941652832
 Root      5 not converged, maximum delta is    0.000114621356857
 Root      6 not converged, maximum delta is    0.001218217721555
 Root      7 not converged, maximum delta is    0.000192618567266
 Root      8 not converged, maximum delta is    0.000257776117660
 Root      9 not converged, maximum delta is    0.002324600545516
 Root     10 not converged, maximum delta is    0.000521082381599
 Root     11 not converged, maximum delta is    0.000404203321434
 Root     12 not converged, maximum delta is    0.000391861181428
 Root     13 not converged, maximum delta is    0.000299080984707
 Root     14 not converged, maximum delta is    0.000254545182489
 Root     15 not converged, maximum delta is    0.000339000510475
 Excitation Energies [eV] at current iteration:
 Root      1 :     4.409024874985798   Change is   -0.000349424513298
 Root      2 :     5.151013485271436   Change is   -0.000014058150922
 Root      3 :     5.253828540623950   Change is   -0.000033497706430
 Root      4 :     5.844483656827993   Change is   -0.000007919366992
 Root      5 :     6.104140152521255   Change is   -0.000003530514138
 Root      6 :     6.306796472848981   Change is   -0.000444311287046
 Root      7 :     6.352118521518851   Change is   -0.000006631347142
 Root      8 :     6.492158350317390   Change is   -0.000013787670451
 Root      9 :     6.787698440093203   Change is   -0.000551801200998
 Root     10 :     7.070413688406816   Change is   -0.000046698893694
 Root     11 :     7.173077125542014   Change is   -0.000019958485088
 Root     12 :     7.421134577905807   Change is   -0.000027746648693
 Root     13 :     7.463569250244411   Change is   -0.000015790427055
 Root     14 :     7.606421425812719   Change is   -0.000012176503651
 Root     15 :     7.710221958292713   Change is   -0.000035849087808
 Iteration     4 Dimension   143 NMult   135 NNew      8
 CISAX will form     8 AO SS matrices at one time.
 NMat=     8 NSing=     8 JSym2X= 0.
 Root      1 not converged, maximum delta is    0.000049540866605
 Root      2 not converged, maximum delta is    0.000004713610719
 Root      3 not converged, maximum delta is    0.000008294348854
 Root      4 not converged, maximum delta is    0.000005505095743
 Root      5 not converged, maximum delta is    0.000006668198451
 Root      6 not converged, maximum delta is    0.000064125339728
 Root      7 not converged, maximum delta is    0.000008329286122
 Root      8 not converged, maximum delta is    0.000013109514604
 Root      9 not converged, maximum delta is    0.000111719296463
 Root     10 not converged, maximum delta is    0.000024395218369
 Root     11 not converged, maximum delta is    0.000020253557179
 Root     12 not converged, maximum delta is    0.000011729069120
 Root     13 not converged, maximum delta is    0.000016602103781
 Root     14 not converged, maximum delta is    0.000012266839760
 Root     15 not converged, maximum delta is    0.000012811108055
 Excitation Energies [eV] at current iteration:
 Root      1 :     4.409023664039304   Change is   -0.000001210946494
 Root      2 :     5.151013475098313   Change is   -0.000000010173123
 Root      3 :     5.253828507386966   Change is   -0.000000033236984
 Root      4 :     5.844483644813649   Change is   -0.000000012014344
 Root      5 :     6.104140131103993   Change is   -0.000000021417263
 Root      6 :     6.306795354345860   Change is   -0.000001118503120
 Root      7 :     6.352118493967830   Change is   -0.000000027551021
 Root      8 :     6.492158273514365   Change is   -0.000000076803026
 Root      9 :     6.787694212663038   Change is   -0.000004227430164
 Root     10 :     7.070413534056525   Change is   -0.000000154350292
 Root     11 :     7.173077014307685   Change is   -0.000000111234329
 Root     12 :     7.421134545121610   Change is   -0.000000032784198
 Root     13 :     7.463569181651338   Change is   -0.000000068593073
 Root     14 :     7.606421362203650   Change is   -0.000000063609068
 Root     15 :     7.710221916961786   Change is   -0.000000041330927
 Convergence achieved on expansion vectors.
 ***********************************************************************
 Excited states from <AA,BB:AA,BB> singles matrix:
 ***********************************************************************
 
 1PDM for each excited state written to RWF  633
 Ground to excited state transition densities written to RWF  633
 Ground to excited state transition electric dipole moments (Au):
       state          X           Y           Z        Dip. S.      Osc.
         1         0.9519      0.2200     -0.1117      0.9670      0.1045
         2        -0.0300     -0.1323      0.0323      0.0194      0.0025
         3        -0.0413      0.1388     -0.0242      0.0216      0.0028
         4         0.0068      0.0170      0.0946      0.0093      0.0013
         5         0.0527      0.0009      0.0751      0.0084      0.0013
         6        -0.2847      1.4571     -0.0633      2.2082      0.3412
         7         0.0193      0.0207     -0.0781      0.0069      0.0011
         8        -0.0615      0.2164      0.0724      0.0559      0.0089
         9        -0.7081     -0.4228     -0.0301      0.6811      0.1133
        10         0.1009     -0.1186     -0.0474      0.0265      0.0046
        11        -0.0874      0.0509      0.0544      0.0132      0.0023
        12        -0.0005     -0.0278      0.0350      0.0020      0.0004
        13        -0.0417     -0.0170     -0.1035      0.0127      0.0023
        14        -0.0359      0.0263     -0.1069      0.0134      0.0025
        15         0.0168      0.0164      0.0781      0.0067      0.0013
 Ground to excited state transition velocity dipole moments (Au):
       state          X           Y           Z        Dip. S.      Osc.
         1        -0.0598     -0.0302      0.0177      0.0048      0.0198
         2        -0.0037      0.0057     -0.0132      0.0002      0.0008
         3        -0.0005     -0.0008      0.0053      0.0000      0.0001
         4        -0.0026     -0.0029     -0.0398      0.0016      0.0050
         5        -0.0111      0.0023     -0.0824      0.0069      0.0206
         6         0.0432     -0.2959      0.0352      0.0907      0.2609
         7        -0.0022     -0.0084      0.0449      0.0021      0.0060
         8         0.0130     -0.0470     -0.1780      0.0341      0.0952
         9         0.1408      0.0969      0.0208      0.0296      0.0792
        10        -0.0216      0.0288     -0.0101      0.0014      0.0036
        11         0.0146     -0.0078     -0.0183      0.0006      0.0015
        12        -0.0012      0.0068      0.0295      0.0009      0.0022
        13         0.0081      0.0055     -0.0057      0.0001      0.0003
        14         0.0117      0.0000      0.0665      0.0046      0.0109
        15        -0.0039     -0.0041      0.0352      0.0013      0.0030
 Ground to excited state transition magnetic dipole moments (Au):
       state          X           Y           Z
         1         0.0075      0.0047      0.7235
         2        -0.0644     -0.5626      0.0319
         3         0.0243     -0.3562     -0.0120
         4         0.2748     -0.0861      0.0156
         5         0.2284      0.0949      0.0125
         6        -0.1143      0.0413     -0.1291
         7         0.0126     -0.0031     -0.0061
         8        -0.2573      0.0646     -0.0103
         9        -0.0523      0.1350     -0.0142
        10        -1.4136      0.3639      0.0031
        11        -0.0484     -0.5940      0.0226
        12        -0.5712     -0.4572     -0.0194
        13        -0.9363     -0.2657     -0.0317
        14         0.2922      0.2867      0.0177
        15         0.5343     -0.0760     -0.0426
 Ground to excited state transition velocity quadrupole moments (Au):
       state          XX          YY          ZZ          XY          XZ          YZ
         1         0.0897     -0.0863     -0.0027      0.4243     -0.0242      0.0063
         2        -0.0365      0.0700     -0.0395     -0.0114     -0.1308      0.0249
         3         0.0662     -0.1315      0.0659     -0.0190     -0.0783      0.0122
         4         0.0149      0.0174     -0.0370      0.0389      0.1269      0.2131
         5         0.0022     -0.0278      0.0218     -0.0276      0.0040      0.1779
         6         0.4652     -0.2699     -0.0522      0.0794     -0.0452      0.0360
         7        -0.0005      0.0101     -0.0098     -0.0030      0.0931     -0.1633
         8         0.0962     -0.0583     -0.0044      0.0581      0.0314     -0.0010
         9        -0.1155      0.0252      0.0156      0.5275     -0.0034      0.0474
        10        -0.0545      0.0260     -0.0077     -0.0712      0.0826      0.0390
        11         0.0011     -0.0098      0.0130      0.0725      0.2054     -0.0537
        12        -0.0040      0.0267      0.0019     -0.0048      0.0472      0.1549
        13        -0.0047     -0.0057     -0.0024      0.0176     -0.1238     -0.2749
        14        -0.0029      0.0024     -0.0094      0.0089     -0.1730      0.1928
        15         0.0051     -0.0111     -0.0044      0.0003     -0.0556     -0.0758
 <0|del|b> * <b|rxdel|0> + <0|del|b> * <b|delr+rdel|0>
 Rotatory Strengths (R) in cgs (10**-40 erg-esu-cm/Gauss)
       state          XX          YY          ZZ    R(velocity)    E-M Angle
         1        42.4600      9.7649      1.1409     17.7886       75.89
         2        -5.0928     -0.7939     -6.7530     -4.2132      113.72
         3         0.1042      0.0370      0.6257      0.2556       83.78
         4        -2.5557     -0.6012     -0.4642     -1.2070       95.47
         5         2.2863    -12.3234     -0.5306     -3.5226       99.36
         6       -41.7420    -16.3545     -8.1543    -22.0836      113.99
         7         0.6085      0.3008     -1.7448     -0.2785      114.82
         8       -14.9375     13.0576    -11.6473     -4.5091       95.34
         9        34.1047    -16.9260     -1.8150      5.1212       77.50
        10        11.9440     39.4350     60.2244     37.2011       41.25
        11         5.9802     -0.7817      4.1460      3.1148       76.31
        12        -5.4009      0.1141     -2.4644     -2.5837       97.75
        13        -0.8980    -12.3623     -9.6931     -7.6511      143.76
        14         2.2084      7.8851      1.4602      3.8512       80.50
        15        -1.7576     -4.1380     -2.3211     -2.7389       99.81
 1/2[<0|r|b>*<b|rxdel|0> + (<0|rxdel|b>*<b|r|0>)*]
 Rotatory Strengths (R) in cgs (10**-40 erg-esu-cm/Gauss)
       state          XX          YY          ZZ     R(length)
         1        -5.0167     -0.7298     57.1685     17.1407
         2        -1.3631    -52.6453     -0.7269    -18.2451
         3         0.7085     34.9763     -0.2052     11.8265
         4        -1.3144      1.0340     -1.0464     -0.4422
         5        -8.5049     -0.0593     -0.6635     -3.0759
         6       -23.0207    -42.5800     -5.7786    -23.7931
         7        -0.1724      0.0453     -0.3369     -0.1546
         8       -11.1976     -9.8912      0.5267     -6.8540
         9       -26.1853     40.3667     -0.3033      4.6260
        10       100.8207     30.5054      0.1047     43.8103
        11        -2.9897     21.3935     -0.8709      5.8443
        12        -0.2080     -8.9776      0.4808     -2.9016
        13       -27.5885     -3.1864     -2.3182    -11.0310
        14         7.4096     -5.3427      1.3350      1.1340
        15        -6.3406      0.8817      2.3548     -1.0347
  1/2[<0|del|b>*<b|r|0> + (<0|r|b>*<b|del|0>)*] (Au)
       state          X           Y           Z        Dip. S.   Osc.(frdel)
         1        -0.0570     -0.0066     -0.0020      0.0656      0.0437
         2         0.0001     -0.0008     -0.0004      0.0011      0.0007
         3         0.0000     -0.0001     -0.0001      0.0002      0.0001
         4         0.0000      0.0000     -0.0038      0.0038      0.0026
         5        -0.0006      0.0000     -0.0062      0.0068      0.0045
         6        -0.0123     -0.4312     -0.0022      0.4458      0.2972
         7         0.0000     -0.0002     -0.0035      0.0037      0.0025
         8        -0.0008     -0.0102     -0.0129      0.0239      0.0159
         9        -0.0997     -0.0410     -0.0006      0.1413      0.0942
        10        -0.0022     -0.0034      0.0005      0.0051      0.0034
        11        -0.0013     -0.0004     -0.0010      0.0027      0.0018
        12         0.0000     -0.0002      0.0010     -0.0008     -0.0006
        13        -0.0003     -0.0001      0.0006     -0.0002     -0.0001
        14        -0.0004      0.0000     -0.0071      0.0075      0.0050
        15        -0.0001     -0.0001      0.0028     -0.0026     -0.0017

 Excitation energies and oscillator strengths:
 
 Excited State   1:      Singlet-A      4.4090 eV  281.21 nm  f=0.1045  <S**2>=0.000
      12 -> 15         0.16245
      13 -> 14         0.67829
 This state for optimization and/or second-order correction.
 Total Energy, E(CIS) =  0.195293052014    
 Copying the excited state density for this state as the 1-particle RhoCI density.
 
 Excited State   2:      Singlet-A      5.1510 eV  240.70 nm  f=0.0025  <S**2>=0.000
      12 -> 14         0.22926
      13 -> 15        -0.34133
      13 -> 16         0.55130
 
 Excited State   3:      Singlet-A      5.2538 eV  235.99 nm  f=0.0028  <S**2>=0.000
      12 -> 14        -0.37154
      13 -> 15         0.43287
      13 -> 16         0.39867
 
 Excited State   4:      Singlet-A      5.8445 eV  212.14 nm  f=0.0013  <S**2>=0.000
      12 -> 18         0.12779
      13 -> 17         0.20852
      13 -> 18         0.47321
      13 -> 19         0.14206
      13 -> 20        -0.16714
      13 -> 21        -0.21950
      13 -> 22        -0.21792
      13 -> 23         0.14975
 
 Excited State   5:      Singlet-A      6.1041 eV  203.11 nm  f=0.0013  <S**2>=0.000
       7 -> 16        -0.20147
      12 -> 16         0.63264
      12 -> 22        -0.10848
 
 Excited State   6:      Singlet-A      6.3068 eV  196.59 nm  f=0.3412  <S**2>=0.000
      10 -> 16        -0.10472
      12 -> 14         0.50667
      13 -> 15         0.41518
 
 Excited State   7:      Singlet-A      6.3521 eV  195.19 nm  f=0.0011  <S**2>=0.000
      12 -> 18         0.10981
      12 -> 19        -0.13223
      12 -> 22         0.13327
      12 -> 23         0.10888
      12 -> 24         0.10587
      13 -> 17         0.17888
      13 -> 18        -0.25015
      13 -> 19         0.41752
      13 -> 22        -0.26186
      13 -> 23        -0.20074
      13 -> 24        -0.10282
 
 Excited State   8:      Singlet-A      6.4922 eV  190.98 nm  f=0.0089  <S**2>=0.000
      12 -> 17        -0.10205
      13 -> 17         0.53745
      13 -> 19        -0.36709
      13 -> 23        -0.11619
 
 Excited State   9:      Singlet-A      6.7877 eV  182.66 nm  f=0.1133  <S**2>=0.000
      12 -> 15         0.66163
      13 -> 14        -0.14672
 
 Excited State  10:      Singlet-A      7.0704 eV  175.36 nm  f=0.0046  <S**2>=0.000
       9 -> 14        -0.29315
      10 -> 14         0.45560
      10 -> 15         0.11117
      11 -> 14        -0.31614
      11 -> 15        -0.19955
 
 Excited State  11:      Singlet-A      7.1731 eV  172.85 nm  f=0.0023  <S**2>=0.000
       7 -> 24         0.10264
      12 -> 17         0.38185
      12 -> 18         0.22126
      12 -> 19        -0.32664
      12 -> 20        -0.14695
      13 -> 17        -0.15141
      13 -> 19        -0.23759
      13 -> 20        -0.13265
      13 -> 22        -0.17832
 
 Excited State  12:      Singlet-A      7.4211 eV  167.07 nm  f=0.0004  <S**2>=0.000
       9 -> 14        -0.33464
       9 -> 15         0.18249
      10 -> 14         0.11433
      11 -> 14         0.35094
      11 -> 15        -0.13738
      12 -> 17         0.16226
      12 -> 18        -0.13760
      13 -> 18        -0.12140
      13 -> 19         0.13509
      13 -> 20        -0.23733
      13 -> 21         0.13436
 
 Excited State  13:      Singlet-A      7.4636 eV  166.12 nm  f=0.0023  <S**2>=0.000
       9 -> 14        -0.16375
       9 -> 15         0.15792
      11 -> 14         0.27914
      12 -> 17        -0.22777
      12 -> 19        -0.19389
      12 -> 20         0.13953
      12 -> 22         0.15180
      12 -> 23         0.12156
      13 -> 17        -0.10104
      13 -> 18         0.22092
      13 -> 20         0.19149
      13 -> 22        -0.13187
      13 -> 24        -0.25051
 
 Excited State  14:      Singlet-A      7.6064 eV  163.00 nm  f=0.0025  <S**2>=0.000
      10 -> 14         0.10700
      11 -> 14         0.21917
      12 -> 18         0.37042
      12 -> 24        -0.11160
      13 -> 18        -0.13168
      13 -> 20         0.21821
      13 -> 21        -0.28128
      13 -> 22         0.24391
      13 -> 24         0.12372
 
 Excited State  15:      Singlet-A      7.7102 eV  160.80 nm  f=0.0013  <S**2>=0.000
       9 -> 14         0.31860
       9 -> 15        -0.12288
      10 -> 14         0.42527
      11 -> 14         0.22817
      12 -> 19         0.10264
      12 -> 20         0.14330
      13 -> 17        -0.15619
      13 -> 22        -0.15016
 SavETr:  write IOETrn=   770 NScale= 10 NData=  16 NLR=1 NState=   15 LETran=     280.
 The selected state is a singlet
 CISAX will form     1 AO SS matrices at one time.
 NMat=     1 NSing=     1 JSym2X= 0.
 Leave Link  914 at Tue Dec 15 16:28:09 2015, MaxMem=    33554432 cpu:         0.1
 (Enter /home/Applications/g09/g09/l1002.exe)
 Minotr:  Closed shell wavefunction.
          Computing CIS/TD-HF/TD-KS derivatives.
          Using Z-Vector for PSCF gradient.
          Skipping F1 and S1 gradient terms here.
          IDoAtm=111111111
          Direct CPHF calculation.
          Differentiating once with respect to electric field.
                with respect to dipole field.
          Differentiating once with respect to nuclear coordinates.
          Electric field/nuclear overlap derivatives assumed to be zero.
          Requested convergence is 1.0D-10 RMS, and 1.0D-09 maximum.
          NewPWx=T KeepS1=F KeepF1=F KeepIn=T MapXYZ=F SortEE=F KeepMc=T.
          MDV=      33495423 using IRadAn=       0.
 Keep J ints in memory in canonical form, NReq=871704.
 FoFCou: FMM=F IPFlag=           0 FMFlag=           0 FMFlg1=           0
         NFxFlg=           0 DoJE=F BraDBF=F KetDBF=F FulRan=T
         wScrn=  0.000000 ICntrl=     600 IOpCl=  2 I1Cent=           0 NGrid=           0
         NMat0=    1 NMatS0=     54 NMatT0=    0 NMatD0=    1 NMtDS0=    0 NMtDT0=    0
 Symmetry not used in FoFCou.
          Solving linear equations separately, MaxMat=       0.
          There are     1 degrees of freedom in the 1st order CPHF.  IDoFFX=0 NUNeed=     1.
 LinEq1:  Iter=  0 NonCon=     1 RMS=1.12D-02 Max=7.77D-02 NDo=     1
 AX will form     1 AO Fock derivatives at one time.
 LinEq1:  Iter=  1 NonCon=     1 RMS=2.30D-03 Max=1.76D-02 NDo=     1
 LinEq1:  Iter=  2 NonCon=     1 RMS=3.76D-04 Max=2.66D-03 NDo=     1
 LinEq1:  Iter=  3 NonCon=     1 RMS=4.78D-05 Max=2.30D-04 NDo=     1
 LinEq1:  Iter=  4 NonCon=     1 RMS=4.65D-06 Max=1.51D-05 NDo=     1
 LinEq1:  Iter=  5 NonCon=     1 RMS=5.41D-07 Max=1.94D-06 NDo=     1
 LinEq1:  Iter=  6 NonCon=     1 RMS=8.03D-08 Max=5.87D-07 NDo=     1
 LinEq1:  Iter=  7 NonCon=     1 RMS=1.10D-08 Max=4.91D-08 NDo=     1
 LinEq1:  Iter=  8 NonCon=     1 RMS=1.81D-09 Max=1.26D-08 NDo=     1
 LinEq1:  Iter=  9 NonCon=     1 RMS=2.14D-10 Max=6.56D-10 NDo=     1
 LinEq1:  Iter= 10 NonCon=     0 RMS=2.09D-11 Max=9.68D-11 NDo=     1
 Linear equations converged to 1.000D-10 1.000D-09 after    10 iterations.
 End of Minotr F.D. properties file   721 does not exist.
 End of Minotr F.D. properties file   722 does not exist.
 End of Minotr F.D. properties file   788 does not exist.
 Leave Link 1002 at Tue Dec 15 16:28:09 2015, MaxMem=    33554432 cpu:         0.0
 (Enter /home/Applications/g09/g09/l601.exe)
 Copying SCF densities to generalized density rwf, IOpCl= 0 IROHF=0.

 **********************************************************************

            Population analysis using the SCF density.

 **********************************************************************

 Orbital symmetries:
       Occupied  (A) (A) (A) (A) (A) (A) (A) (A) (A) (A) (A) (A)
                 (A)
       Virtual   (A) (A) (A) (A) (A) (A) (A) (A) (A) (A) (A)
 The electronic state is 1-A.
 Alpha  occ. eigenvalues --   -1.55167  -1.24590  -1.10021  -0.82770  -0.80327
 Alpha  occ. eigenvalues --   -0.68092  -0.58900  -0.55424  -0.51133  -0.50373
 Alpha  occ. eigenvalues --   -0.50096  -0.40665  -0.34885
 Alpha virt. eigenvalues --    0.02551   0.07038   0.10086   0.13378   0.14268
 Alpha virt. eigenvalues --    0.15437   0.17549   0.18015   0.19207   0.20800
 Alpha virt. eigenvalues --    0.21619
     Molecular Orbital Coefficients:
                           1         2         3         4         5
                           O         O         O         O         O
     Eigenvalues --    -1.55167  -1.24590  -1.10021  -0.82770  -0.80327
   1 1   C  1S          0.31398  -0.41320   0.34593  -0.39692   0.14651
   2        1PX         0.07108  -0.09780  -0.16310  -0.09466  -0.27751
   3        1PY        -0.11742   0.02337  -0.10918  -0.22656  -0.10315
   4        1PZ         0.00634  -0.00824   0.00759  -0.00066   0.00579
   5 2   C  1S          0.36007  -0.05160   0.52798   0.41759   0.08148
   6        1PX         0.17030   0.04667  -0.02116  -0.11061  -0.10008
   7        1PY        -0.00489  -0.21990   0.05904  -0.19987   0.31065
   8        1PZ        -0.01034  -0.00193  -0.01132   0.00050   0.00349
   9 3   O  1S          0.58673   0.65032  -0.03768  -0.24906  -0.16752
  10        1PX         0.01007  -0.01346  -0.28246  -0.24526   0.45199
  11        1PY         0.19373   0.00126   0.01257   0.14793   0.10288
  12        1PZ         0.00767   0.00384   0.00183   0.01609   0.00012
  13 4   C  1S          0.38817  -0.13111  -0.48912   0.25582   0.32785
  14        1PX        -0.17610  -0.06535  -0.01809   0.14325  -0.01363
  15        1PY         0.01916  -0.24703  -0.03949   0.17073  -0.32271
  16        1PZ        -0.00137  -0.00323  -0.00018   0.01194  -0.00095
  17 5   C  1S          0.33929  -0.46541  -0.26713  -0.03644  -0.39341
  18        1PX        -0.07773   0.07309  -0.17571   0.26981  -0.05997
  19        1PY        -0.12100   0.02955   0.14239  -0.23839  -0.18420
  20        1PZ        -0.00257   0.00308   0.00042   0.00850   0.00255
  21 6   H  1S          0.07193  -0.14316  -0.10447  -0.01833  -0.26198
  22 7   H  1S          0.07876  -0.02614  -0.18036   0.13048   0.22033
  23 8   H  1S          0.08804  -0.00219   0.22253   0.30314   0.01368
  24 9   H  1S          0.06938  -0.12751   0.14483  -0.23610   0.11512
                           6         7         8         9        10
                           O         O         O         O         O
     Eigenvalues --    -0.68092  -0.58900  -0.55424  -0.51133  -0.50373
   1 1   C  1S         -0.09279  -0.00104  -0.15699  -0.01394  -0.03452
   2        1PX         0.19843   0.01484   0.21479  -0.28354  -0.33770
   3        1PY        -0.25356   0.02437  -0.10266  -0.19964   0.42135
   4        1PZ        -0.00009   0.24531   0.01208   0.03248  -0.01233
   5 2   C  1S         -0.06534   0.00825   0.12198  -0.05000  -0.04480
   6        1PX         0.37514   0.03194  -0.41590  -0.11923  -0.04288
   7        1PY         0.04795  -0.01964   0.01664   0.32064  -0.20062
   8        1PZ        -0.00839   0.36636   0.03029   0.02442   0.00156
   9 3   O  1S         -0.18970  -0.01304  -0.02718   0.19022  -0.08421
  10        1PX        -0.02358   0.00080   0.47024   0.07307   0.05639
  11        1PY         0.45397  -0.00450  -0.00789  -0.41515   0.43333
  12        1PZ         0.00704   0.74944   0.00457   0.01513   0.01259
  13 4   C  1S         -0.09211  -0.00140  -0.11926  -0.07290   0.03143
  14        1PX        -0.35679  -0.00089  -0.36694  -0.15110  -0.32875
  15        1PY         0.09090  -0.02805  -0.14553   0.43843   0.11050
  16        1PZ        -0.00682   0.40329  -0.01420   0.02685  -0.00863
  17 5   C  1S         -0.08099   0.00090   0.16671   0.03426  -0.01521
  18        1PX        -0.23138  -0.02127  -0.07803   0.21485   0.28861
  19        1PY        -0.21493   0.01922   0.18361  -0.38709  -0.02777
  20        1PZ        -0.00540   0.27693  -0.00196   0.03677   0.00181
  21 6   H  1S         -0.23104   0.00196   0.15911  -0.10606   0.12442
  22 7   H  1S         -0.25708   0.01735  -0.24528  -0.32936  -0.25746
  23 8   H  1S         -0.25946  -0.01110   0.35122  -0.07002   0.07040
  24 9   H  1S         -0.24591   0.00930  -0.24671   0.00543   0.41522
                          11        12        13        14        15
                           O         O         O         V         V
     Eigenvalues --    -0.50096  -0.40665  -0.34885   0.02551   0.07038
   1 1   C  1S         -0.06643  -0.01844  -0.01639   0.00901   0.02064
   2        1PX        -0.24931   0.01229   0.00425   0.00873  -0.00401
   3        1PY        -0.31377   0.02932   0.01987   0.00778  -0.00839
   4        1PZ         0.02064   0.50500   0.46717  -0.43282  -0.52326
   5 2   C  1S          0.10111  -0.00058   0.02696   0.02580   0.02401
   6        1PX         0.25997  -0.00594   0.02984   0.01220   0.03251
   7        1PY         0.33024  -0.00738   0.00712   0.00749  -0.03948
   8        1PZ        -0.01036   0.07780   0.61966   0.62341   0.28456
   9 3   O  1S          0.00441   0.00061   0.00136   0.00449  -0.01575
  10        1PX         0.07863  -0.01332  -0.00659   0.00399   0.01260
  11        1PY         0.15548   0.03185  -0.00110   0.00857  -0.03686
  12        1PZ        -0.00867  -0.55791  -0.05127  -0.34552   0.05017
  13 4   C  1S         -0.10596   0.00185   0.00406  -0.01127   0.01687
  14        1PX         0.04852  -0.00117   0.02329  -0.01001   0.00816
  15        1PY        -0.14046  -0.00673   0.00988   0.00540  -0.01755
  16        1PZ         0.00576   0.23878  -0.54861   0.49806  -0.47733
  17 5   C  1S          0.03588   0.00644  -0.00665  -0.00814  -0.00044
  18        1PX         0.41046  -0.03184   0.00610   0.01451  -0.00340
  19        1PY         0.35492   0.00167  -0.00130  -0.00478  -0.00455
  20        1PZ         0.02604   0.60531  -0.30101  -0.23326   0.63840
  21 6   H  1S          0.45849  -0.01225  -0.00486   0.00510   0.00477
  22 7   H  1S          0.01958   0.01305   0.00065   0.01123  -0.02746
  23 8   H  1S         -0.24813   0.00886  -0.01606  -0.01509  -0.01799
  24 9   H  1S         -0.12330   0.01058   0.01220  -0.00554  -0.00694
                          16        17        18        19        20
                           V         V         V         V         V
     Eigenvalues --     0.10086   0.13378   0.14268   0.15437   0.17549
   1 1   C  1S          0.03372  -0.17909   0.34124   0.05067   0.26896
   2        1PX        -0.01720  -0.24977  -0.12302   0.24589   0.17981
   3        1PY         0.05678  -0.20990  -0.17236  -0.30028   0.43790
   4        1PZ        -0.03544  -0.00815   0.01707   0.01029   0.01859
   5 2   C  1S         -0.22131  -0.06079  -0.43794  -0.18518   0.21101
   6        1PX        -0.26755  -0.11305  -0.09660   0.34992   0.16034
   7        1PY         0.33866  -0.10189  -0.04992  -0.16736  -0.04034
   8        1PZ         0.03293   0.01292   0.03849   0.00082  -0.03224
   9 3   O  1S          0.21878  -0.04526   0.02135  -0.01118  -0.04462
  10        1PX         0.01660  -0.13263  -0.26455   0.27181   0.17513
  11        1PY         0.50377  -0.09708   0.07450   0.00122  -0.13055
  12        1PZ         0.03607  -0.00042   0.00192  -0.00848  -0.00309
  13 4   C  1S         -0.29578  -0.23571   0.21371  -0.30962  -0.17462
  14        1PX         0.19359  -0.45401  -0.03287   0.16779  -0.21642
  15        1PY         0.33176  -0.03177  -0.00897  -0.09562   0.15665
  16        1PZ        -0.03421  -0.02438  -0.00002   0.00518  -0.00864
  17 5   C  1S          0.08566   0.12171  -0.32459   0.01660  -0.25542
  18        1PX         0.02826  -0.28379  -0.12998   0.25385   0.24809
  19        1PY         0.05297  -0.17049  -0.10379  -0.31539  -0.22839
  20        1PZ         0.03943  -0.00147   0.00026   0.00180   0.00795
  21 6   H  1S         -0.19019   0.23329   0.44632   0.05780   0.19164
  22 7   H  1S          0.33771   0.56202  -0.14032   0.06287   0.31075
  23 8   H  1S          0.19306  -0.10517   0.30496   0.40796  -0.06015
  24 9   H  1S         -0.13541   0.19044  -0.25606   0.34171  -0.40341
                          21        22        23        24
                           V         V         V         V
     Eigenvalues --     0.18015   0.19207   0.20800   0.21619
   1 1   C  1S         -0.23653  -0.27261   0.18724   0.04411
   2        1PX         0.32873   0.12315   0.41057  -0.26042
   3        1PY         0.07020   0.12847  -0.33466  -0.16363
   4        1PZ        -0.01813  -0.02608   0.01313   0.01402
   5 2   C  1S          0.20858  -0.02730  -0.04113   0.05250
   6        1PX        -0.19626   0.39002  -0.30919   0.13244
   7        1PY         0.21325   0.38388  -0.14210  -0.42971
   8        1PZ        -0.01397  -0.00751   0.01009  -0.00734
   9 3   O  1S          0.08316  -0.03607   0.00436   0.01146
  10        1PX         0.06105  -0.07837  -0.09268   0.45590
  11        1PY         0.14005  -0.17742   0.00376  -0.00168
  12        1PZ         0.01388  -0.00162   0.00349  -0.00944
  13 4   C  1S         -0.00788   0.21365   0.13391   0.02405
  14        1PX         0.26419  -0.24233  -0.24767   0.19554
  15        1PY         0.12899   0.27590   0.20776   0.51782
  16        1PZ        -0.00101  -0.00704  -0.00638   0.01643
  17 5   C  1S         -0.26473  -0.19545  -0.29328  -0.12769
  18        1PX        -0.25690  -0.12940   0.35849  -0.29426
  19        1PY        -0.26924   0.32091   0.27947   0.26211
  20        1PZ         0.00982   0.00814   0.01611  -0.01165
  21 6   H  1S          0.47753   0.00828  -0.12947   0.06206
  22 7   H  1S         -0.11250   0.10775   0.12974   0.03236
  23 8   H  1S         -0.22359   0.41669  -0.21886  -0.06801
  24 9   H  1S          0.29452   0.17402   0.24725  -0.04150
     Density Matrix:
                           1         2         3         4         5
   1 1   C  1S          1.21531
   2        1PX        -0.03409   0.93937
   3        1PY         0.07671  -0.04354   0.96150
   4        1PZ        -0.02276   0.00539   0.01696   1.07084
   5 2   C  1S          0.29040  -0.20010  -0.48000   0.04745   1.25354
   6        1PX         0.14411   0.03669  -0.21655   0.03154  -0.09322
   7        1PY         0.41619  -0.29705  -0.52871   0.03769   0.01577
   8        1PZ        -0.04342   0.01857   0.04701   0.83891   0.02495
   9 3   O  1S         -0.00280  -0.03189  -0.00020   0.00403   0.08774
  10        1PX        -0.00978  -0.03468  -0.04002   0.00037  -0.29979
  11        1PY        -0.07986  -0.01927   0.06993   0.00103   0.26569
  12        1PZ         0.00800  -0.00329  -0.00207  -0.24323   0.02658
  13 4   C  1S         -0.02503  -0.00481   0.01946  -0.00466   0.00984
  14        1PX         0.01436  -0.04146  -0.00991   0.00987  -0.00904
  15        1PY        -0.01362  -0.06987  -0.02958   0.00484  -0.04186
  16        1PZ         0.00507  -0.00913  -0.00838  -0.07169  -0.01754
  17 5   C  1S          0.28452   0.46422   0.01256   0.01227  -0.02816
  18        1PX        -0.47452  -0.63397  -0.01930  -0.02086   0.01339
  19        1PY         0.08112   0.13341   0.12543   0.00289   0.01715
  20        1PZ        -0.02589  -0.02162   0.00696   0.46929  -0.00492
  21 6   H  1S         -0.04403  -0.05495   0.00474  -0.00442   0.05922
  22 7   H  1S          0.05579   0.07250  -0.00029   0.00325   0.04787
  23 8   H  1S         -0.05743   0.03892   0.09226  -0.01521   0.62306
  24 9   H  1S          0.58014  -0.45661   0.63139   0.01258  -0.05230
                           6         7         8         9        10
   6        1PX         0.90633
   7        1PY         0.09119   0.88701
   8        1PZ         0.01260   0.00326   1.05240
   9 3   O  1S          0.19445  -0.16062  -0.01251   1.87776
  10        1PX        -0.41249   0.44096   0.03049  -0.01135   1.16224
  11        1PY         0.50136  -0.29061  -0.03339  -0.28135   0.00019
  12        1PZ         0.04304  -0.03008   0.39970  -0.01393   0.01421
  13 4   C  1S          0.00827  -0.04452   0.00345   0.09209   0.32686
  14        1PX         0.03405  -0.01638   0.00674  -0.20335  -0.45422
  15        1PY         0.01304  -0.01568   0.00434  -0.15165  -0.43282
  16        1PZ        -0.00899  -0.00777  -0.34678  -0.00806  -0.01422
  17 5   C  1S         -0.01782  -0.01071   0.00381   0.00045   0.00197
  18        1PX        -0.03178   0.07245  -0.00577   0.03209  -0.02408
  19        1PY         0.01150  -0.03212  -0.00125  -0.00222   0.04567
  20        1PZ        -0.00826   0.01228  -0.07467   0.00463  -0.00587
  21 6   H  1S          0.01935   0.06255  -0.00768   0.02465   0.06805
  22 7   H  1S          0.08199  -0.05450  -0.00807  -0.03812  -0.05363
  23 8   H  1S         -0.65637  -0.33645  -0.00554  -0.03298   0.04098
  24 9   H  1S         -0.04432  -0.03829   0.01323   0.02126  -0.04973
                          11        12        13        14        15
  11        1PY         1.32330
  12        1PZ        -0.03239   1.75284
  13 4   C  1S          0.25410   0.00493   1.24059
  14        1PX        -0.49191  -0.02315   0.10700   0.90412
  15        1PY        -0.23739  -0.01344  -0.01508  -0.09163   0.90154
  16        1PZ        -0.01837   0.39491  -0.00029  -0.00907  -0.00751
  17 5   C  1S         -0.07437  -0.00535   0.33173  -0.11047   0.45859
  18        1PX         0.02180   0.01309   0.15215   0.11104   0.22489
  19        1PY         0.05794  -0.00166  -0.50850   0.15853  -0.53190
  20        1PZ         0.01306  -0.22859  -0.00747  -0.01755  -0.00512
  21 6   H  1S          0.09094   0.00625  -0.05495   0.04169  -0.03809
  22 7   H  1S         -0.06259  -0.00666   0.58922   0.64771  -0.39516
  23 8   H  1S         -0.06623  -0.00946   0.04648  -0.07486  -0.04378
  24 9   H  1S          0.08223   0.00096   0.05601  -0.01335   0.05715
                          16        17        18        19        20
  16        1PZ         1.04372
  17 5   C  1S          0.01204   1.19262
  18        1PX        -0.01605   0.04693   0.95543
  19        1PY        -0.00604   0.07252   0.04541   0.96681
  20        1PZ         0.84527   0.00940  -0.00800   0.00089   1.07172
  21 6   H  1S         -0.00204   0.55758   0.51148   0.60809   0.00459
  22 7   H  1S          0.01969  -0.06202  -0.02708   0.08898   0.00726
  23 8   H  1S          0.00554   0.04473  -0.05845   0.00668   0.00280
  24 9   H  1S         -0.00405  -0.04852   0.07064  -0.01225   0.00527
                          21        22        23        24
  21 6   H  1S          0.84275
  22 7   H  1S          0.00049   0.81371
  23 8   H  1S         -0.01509  -0.02006   0.82382
  24 9   H  1S         -0.01155  -0.01967   0.01003   0.84073
    Full Mulliken population analysis:
                           1         2         3         4         5
   1 1   C  1S          1.21531
   2        1PX         0.00000   0.93937
   3        1PY         0.00000   0.00000   0.96150
   4        1PZ         0.00000   0.00000   0.00000   1.07084
   5 2   C  1S          0.00000   0.00000   0.00000   0.00000   1.25354
   6        1PX         0.00000   0.00000   0.00000   0.00000   0.00000
   7        1PY         0.00000   0.00000   0.00000   0.00000   0.00000
   8        1PZ         0.00000   0.00000   0.00000   0.00000   0.00000
   9 3   O  1S          0.00000   0.00000   0.00000   0.00000   0.00000
  10        1PX         0.00000   0.00000   0.00000   0.00000   0.00000
  11        1PY         0.00000   0.00000   0.00000   0.00000   0.00000
  12        1PZ         0.00000   0.00000   0.00000   0.00000   0.00000
  13 4   C  1S          0.00000   0.00000   0.00000   0.00000   0.00000
  14        1PX         0.00000   0.00000   0.00000   0.00000   0.00000
  15        1PY         0.00000   0.00000   0.00000   0.00000   0.00000
  16        1PZ         0.00000   0.00000   0.00000   0.00000   0.00000
  17 5   C  1S          0.00000   0.00000   0.00000   0.00000   0.00000
  18        1PX         0.00000   0.00000   0.00000   0.00000   0.00000
  19        1PY         0.00000   0.00000   0.00000   0.00000   0.00000
  20        1PZ         0.00000   0.00000   0.00000   0.00000   0.00000
  21 6   H  1S          0.00000   0.00000   0.00000   0.00000   0.00000
  22 7   H  1S          0.00000   0.00000   0.00000   0.00000   0.00000
  23 8   H  1S          0.00000   0.00000   0.00000   0.00000   0.00000
  24 9   H  1S          0.00000   0.00000   0.00000   0.00000   0.00000
                           6         7         8         9        10
   6        1PX         0.90633
   7        1PY         0.00000   0.88701
   8        1PZ         0.00000   0.00000   1.05240
   9 3   O  1S          0.00000   0.00000   0.00000   1.87776
  10        1PX         0.00000   0.00000   0.00000   0.00000   1.16224
  11        1PY         0.00000   0.00000   0.00000   0.00000   0.00000
  12        1PZ         0.00000   0.00000   0.00000   0.00000   0.00000
  13 4   C  1S          0.00000   0.00000   0.00000   0.00000   0.00000
  14        1PX         0.00000   0.00000   0.00000   0.00000   0.00000
  15        1PY         0.00000   0.00000   0.00000   0.00000   0.00000
  16        1PZ         0.00000   0.00000   0.00000   0.00000   0.00000
  17 5   C  1S          0.00000   0.00000   0.00000   0.00000   0.00000
  18        1PX         0.00000   0.00000   0.00000   0.00000   0.00000
  19        1PY         0.00000   0.00000   0.00000   0.00000   0.00000
  20        1PZ         0.00000   0.00000   0.00000   0.00000   0.00000
  21 6   H  1S          0.00000   0.00000   0.00000   0.00000   0.00000
  22 7   H  1S          0.00000   0.00000   0.00000   0.00000   0.00000
  23 8   H  1S          0.00000   0.00000   0.00000   0.00000   0.00000
  24 9   H  1S          0.00000   0.00000   0.00000   0.00000   0.00000
                          11        12        13        14        15
  11        1PY         1.32330
  12        1PZ         0.00000   1.75284
  13 4   C  1S          0.00000   0.00000   1.24059
  14        1PX         0.00000   0.00000   0.00000   0.90412
  15        1PY         0.00000   0.00000   0.00000   0.00000   0.90154
  16        1PZ         0.00000   0.00000   0.00000   0.00000   0.00000
  17 5   C  1S          0.00000   0.00000   0.00000   0.00000   0.00000
  18        1PX         0.00000   0.00000   0.00000   0.00000   0.00000
  19        1PY         0.00000   0.00000   0.00000   0.00000   0.00000
  20        1PZ         0.00000   0.00000   0.00000   0.00000   0.00000
  21 6   H  1S          0.00000   0.00000   0.00000   0.00000   0.00000
  22 7   H  1S          0.00000   0.00000   0.00000   0.00000   0.00000
  23 8   H  1S          0.00000   0.00000   0.00000   0.00000   0.00000
  24 9   H  1S          0.00000   0.00000   0.00000   0.00000   0.00000
                          16        17        18        19        20
  16        1PZ         1.04372
  17 5   C  1S          0.00000   1.19262
  18        1PX         0.00000   0.00000   0.95543
  19        1PY         0.00000   0.00000   0.00000   0.96681
  20        1PZ         0.00000   0.00000   0.00000   0.00000   1.07172
  21 6   H  1S          0.00000   0.00000   0.00000   0.00000   0.00000
  22 7   H  1S          0.00000   0.00000   0.00000   0.00000   0.00000
  23 8   H  1S          0.00000   0.00000   0.00000   0.00000   0.00000
  24 9   H  1S          0.00000   0.00000   0.00000   0.00000   0.00000
                          21        22        23        24
  21 6   H  1S          0.84275
  22 7   H  1S          0.00000   0.81371
  23 8   H  1S          0.00000   0.00000   0.82382
  24 9   H  1S          0.00000   0.00000   0.00000   0.84073
     Gross orbital populations:
                           1
   1 1   C  1S          1.21531
   2        1PX         0.93937
   3        1PY         0.96150
   4        1PZ         1.07084
   5 2   C  1S          1.25354
   6        1PX         0.90633
   7        1PY         0.88701
   8        1PZ         1.05240
   9 3   O  1S          1.87776
  10        1PX         1.16224
  11        1PY         1.32330
  12        1PZ         1.75284
  13 4   C  1S          1.24059
  14        1PX         0.90412
  15        1PY         0.90154
  16        1PZ         1.04372
  17 5   C  1S          1.19262
  18        1PX         0.95543
  19        1PY         0.96681
  20        1PZ         1.07172
  21 6   H  1S          0.84275
  22 7   H  1S          0.81371
  23 8   H  1S          0.82382
  24 9   H  1S          0.84073
          Condensed to atoms (all electrons):
               1          2          3          4          5          6
     1  C    4.187022   0.000000   0.000000   0.000000   0.000000   0.000000
     2  C    0.000000   4.099281   0.000000   0.000000   0.000000   0.000000
     3  O    0.000000   0.000000   6.116137   0.000000   0.000000   0.000000
     4  C    0.000000   0.000000   0.000000   4.089974   0.000000   0.000000
     5  C    0.000000   0.000000   0.000000   0.000000   4.186581   0.000000
     6  H    0.000000   0.000000   0.000000   0.000000   0.000000   0.842745
     7  H    0.000000   0.000000   0.000000   0.000000   0.000000   0.000000
     8  H    0.000000   0.000000   0.000000   0.000000   0.000000   0.000000
     9  H    0.000000   0.000000   0.000000   0.000000   0.000000   0.000000
               7          8          9
     1  C    0.000000   0.000000   0.000000
     2  C    0.000000   0.000000   0.000000
     3  O    0.000000   0.000000   0.000000
     4  C    0.000000   0.000000   0.000000
     5  C    0.000000   0.000000   0.000000
     6  H    0.000000   0.000000   0.000000
     7  H    0.813708   0.000000   0.000000
     8  H    0.000000   0.823823   0.000000
     9  H    0.000000   0.000000   0.840730
 Mulliken charges:
               1
     1  C   -0.187022
     2  C   -0.099281
     3  O   -0.116137
     4  C   -0.089974
     5  C   -0.186581
     6  H    0.157255
     7  H    0.186292
     8  H    0.176177
     9  H    0.159270
 Sum of Mulliken charges =   0.00000
 Mulliken charges with hydrogens summed into heavy atoms:
               1
     1  C   -0.027752
     2  C    0.076896
     3  O   -0.116137
     4  C    0.096318
     5  C   -0.029326
 Charge=              0.0000 electrons
 Dipole moment (field-independent basis, Debye):
    X=              0.1555    Y=              0.6024    Z=              0.0696  Tot=              0.6261
 N-N= 1.034538884960D+02 E-N=-1.710568634194D+02  KE=-1.653553764755D+01
 Orbital energies and kinetic energies (alpha):
                                 1                 2
   1         O                -1.551667         -1.316848
   2         O                -1.245905         -1.047052
   3         O                -1.100209         -0.962749
   4         O                -0.827695         -0.727934
   5         O                -0.803271         -0.696088
   6         O                -0.680921         -0.602701
   7         O                -0.589001         -0.482031
   8         O                -0.554239         -0.489336
   9         O                -0.511329         -0.414051
  10         O                -0.503728         -0.432898
  11         O                -0.500958         -0.435077
  12         O                -0.406651         -0.347285
  13         O                -0.348850         -0.313719
  14         V                 0.025514         -0.200535
  15         V                 0.070381         -0.184317
  16         V                 0.100861         -0.189844
  17         V                 0.133780         -0.210878
  18         V                 0.142679         -0.232407
  19         V                 0.154366         -0.169417
  20         V                 0.175495         -0.176315
  21         V                 0.180147         -0.184375
  22         V                 0.192066         -0.135300
  23         V                 0.208002         -0.118036
  24         V                 0.216190         -0.057562
 Total kinetic energy from orbitals=-1.653553764755D+01
 Leave Link  601 at Tue Dec 15 16:28:09 2015, MaxMem=    33554432 cpu:         0.0
 (Enter /home/Applications/g09/g09/l701.exe)
 Compute integral first derivatives.
 ... and contract with generalized density number  6.
 Leave Link  701 at Tue Dec 15 16:28:09 2015, MaxMem=    33554432 cpu:         0.0
 (Enter /home/Applications/g09/g09/l702.exe)
 L702 exits ... SP integral derivatives will be done elsewhere.
 Leave Link  702 at Tue Dec 15 16:28:09 2015, MaxMem=    33554432 cpu:         0.0
 (Enter /home/Applications/g09/g09/l703.exe)
 Compute integral first derivatives, UseDBF=F ICtDFT=           0.
 Integral derivatives from FoFJK, PRISM(SPDF).
 Calling FoFJK, ICntrl=  10005127 FMM=F ISym2X=0 I1Cent= 0 IOpClX= 0 NMat=1 NMatS=1 NMatT=0.
 FoFJK:  IHMeth= 8 ICntrl=10005127 DoSepK=F KAlg= 0 I1Cent=   0 FoldK=F
 IRaf=         0 NMat=   1 IRICut=       1 DoRegI=T DoRafI=F ISym2E= 0.
 FoFCou: FMM=F IPFlag=           0 FMFlag=      100000 FMFlg1=         800
         NFxFlg=           0 DoJE=F BraDBF=F KetDBF=F FulRan=T
         wScrn=  0.000000 ICntrl=10005127 IOpCl=  0 I1Cent=           0 NGrid=           0
         NMat0=    1 NMatS0=      1 NMatT0=    0 NMatD0=    1 NMtDS0=    0 NMtDT0=    0
 Symmetry not used in FoFCou.
 Leave Link  703 at Tue Dec 15 16:28:09 2015, MaxMem=    33554432 cpu:         0.0
 (Enter /home/Applications/g09/g09/l716.exe)
 Dipole        = 9.40905510D-02 3.31884880D-01 3.82706555D-02
 ***** Axes restored to original set *****
 -------------------------------------------------------------------
 Center     Atomic                   Forces (Hartrees/Bohr)
 Number     Number              X              Y              Z
 -------------------------------------------------------------------
      1        6           0.067108628   -0.025122776   -0.010456064
      2        6          -0.046014899    0.025976602    0.009723318
      3        8          -0.031452134   -0.010498457   -0.001080908
      4        6          -0.189094644    0.104428118   -0.004323240
      5        6           0.209609115   -0.000159893    0.006098178
      6        1          -0.006642375   -0.013075347   -0.000562205
      7        1           0.011335202   -0.026183643    0.001456670
      8        1          -0.028256495   -0.060107867   -0.003691781
      9        1           0.013407602    0.004743263    0.002836034
 -------------------------------------------------------------------
 Cartesian Forces:  Max     0.209609115 RMS     0.062524717
 Z-matrix is all fixed cartesians, so copy forces.
 Force constants in Cartesian coordinates: 
                1             2             3             4             5 
      1  0.853680D+00
      2 -0.442569D-01  0.878166D+00
      3  0.145259D-01  0.529097D-02  0.222566D+00
      4 -0.456001D+00 -0.105445D+00 -0.230757D-01  0.891961D+00
      5 -0.843075D-01 -0.212415D+00 -0.944911D-02  0.963774D-01  0.893000D+00
      6 -0.222365D-01 -0.837124D-02 -0.977729D-01  0.438316D-02  0.224572D-01
      7 -0.916456D-02  0.267357D-01  0.221103D-02 -0.256939D+00  0.135347D+00
      8 -0.704807D-02  0.206672D-01  0.105295D-02  0.174767D+00 -0.304782D+00
      9 -0.143456D-02  0.214869D-02  0.410987D-02  0.172248D-01 -0.186418D-01
     10  0.113398D-01  0.531475D-03 -0.506063D-03  0.216592D-01  0.169049D-01
     11  0.375927D-01  0.171784D-02 -0.123405D-02 -0.175856D-01 -0.137366D-01
     12 -0.203799D-02  0.147501D-03 -0.850120D-03 -0.162357D-02 -0.156933D-02
     13 -0.181012D+00  0.276325D-01 -0.494726D-03  0.115599D-01 -0.344623D-01
     14 -0.191121D-03 -0.476977D+00  0.101733D-01  0.560010D-03 -0.167810D-02
     15 -0.105956D-02  0.131397D-01 -0.102684D+00  0.810609D-03 -0.305400D-02
     16  0.183211D-01  0.854226D-03  0.296500D-05  0.601289D-05 -0.200358D-05
     17 -0.222070D-01 -0.103566D-02 -0.147889D-04 -0.713196D-05  0.237647D-05
     18  0.209144D-02  0.629661D-03  0.230998D-01 -0.321753D-03  0.107213D-03
     19  0.463017D-05  0.590253D-05  0.246847D-03 -0.180714D-05  0.000000D+00
     20  0.845297D-05  0.107758D-04  0.450650D-03  0.522904D-05 -0.230081D-05
     21  0.180009D-03  0.229476D-03  0.959678D-02  0.184175D-03 -0.810381D-04
     22  0.894883D-02 -0.265737D-01  0.651146D-03 -0.205789D+00 -0.148788D+00
     23 -0.492742D-02  0.145828D-01 -0.493350D-04 -0.141600D+00 -0.381300D+00
     24 -0.354246D-03 -0.354019D-02  0.288210D-01  0.462928D-02  0.728726D-02
     25 -0.246117D+00  0.120516D+00  0.643857D-02 -0.645530D-02  0.189289D-01
     26  0.125337D+00 -0.224717D+00 -0.622063D-02 -0.707197D-02  0.209111D-01
     27  0.103254D-01 -0.967456D-02 -0.868857D-01 -0.221098D-02  0.294363D-02
                6             7             8             9            10 
      6  0.192188D+00
      7  0.134197D-01  0.505064D+00
      8 -0.175195D-01  0.106136D-01  0.594152D+00
      9 -0.402572D-01 -0.211003D-01  0.123270D-01  0.493719D-01
     10 -0.703063D-03 -0.271277D+00 -0.186674D+00  0.505074D-02  0.107049D+01
     11  0.428350D-03 -0.141855D+00 -0.316089D+00  0.283585D-02 -0.751953D-01
     12 -0.333497D-02  0.665845D-02  0.571679D-02 -0.467460D-01 -0.890533D-02
     13  0.161177D-02 -0.877254D-02  0.709507D-02  0.601004D-03 -0.680753D+00
     14  0.868438D-04 -0.290337D-01  0.235584D-01  0.703038D-03  0.157598D+00
     15 -0.137867D-02  0.718958D-03  0.619032D-04  0.878303D-02  0.751537D-02
     16 -0.991401D-04  0.100562D-05  0.000000D+00  0.707016D-04 -0.575040D-02
     17  0.117591D-03 -0.127734D-05  0.000000D+00 -0.898056D-04  0.696939D-02
     18  0.530503D-02  0.120682D-03  0.755871D-04  0.848474D-02  0.736677D-03
     19 -0.327678D-04  0.194042D-01 -0.157149D-01  0.689844D-03 -0.145732D+00
     20  0.948153D-04  0.101283D-01 -0.819907D-02  0.535395D-03  0.798660D-01
     21  0.333955D-02 -0.314604D-03  0.361690D-03  0.521933D-02 -0.350373D-02
     22  0.261780D-02  0.216803D-01  0.169487D-01 -0.962095D-03  0.110532D-04
     23  0.266025D-02 -0.119454D-01 -0.934260D-02  0.592071D-03 -0.406113D-05
     24 -0.806795D-01 -0.158639D-02 -0.162880D-02  0.585223D-02  0.188485D-03
     25  0.103900D-02  0.344884D-05  0.121040D-04 -0.140118D-03  0.859517D-05
     26  0.457154D-04  0.101037D-04  0.354595D-04 -0.410486D-03  0.332463D-05
     27  0.225912D-01 -0.127552D-03 -0.447654D-03  0.518213D-02  0.126921D-03
               11            12            13            14            15 
     11  0.810463D+00
     12 -0.915427D-02  0.223472D+00
     13  0.132292D+00  0.849180D-02  0.106149D+01
     14 -0.250617D+00 -0.746667D-03 -0.535577D-01  0.884177D+00
     15 -0.106002D-02 -0.128050D+00 -0.629545D-02 -0.908611D-02  0.250585D+00
     16 -0.190282D-01 -0.200974D-04 -0.230253D+00 -0.102336D+00 -0.293234D-03
     17  0.230624D-01  0.979993D-05 -0.105256D+00 -0.193059D+00  0.247163D-03
     18  0.129146D-02  0.300406D-01 -0.194191D-02 -0.102105D-02 -0.937367D-01
     19  0.837730D-01 -0.322191D-02  0.786346D-02  0.260490D-01 -0.724347D-03
     20 -0.254807D+00  0.549257D-02  0.411468D-02  0.135861D-01  0.786744D-03
     21  0.681382D-02 -0.847157D-01  0.177283D-03 -0.739879D-03  0.347635D-01
     22 -0.486347D-05  0.200421D-03  0.307035D-04 -0.102309D-04 -0.506237D-03
     23  0.178692D-05 -0.736383D-04 -0.215566D-04  0.718299D-05  0.355424D-03
     24 -0.829343D-04  0.341769D-02 -0.435091D-03  0.144979D-03  0.717375D-02
     25  0.109571D-04  0.458232D-03  0.198488D-01  0.921555D-03 -0.166121D-03
     26  0.423824D-05  0.177245D-03  0.221632D-01  0.100124D-02 -0.139079D-02
     27  0.161799D-03  0.676650D-02 -0.171468D-02  0.485500D-03  0.245447D-01
               16            17            18            19            20 
     16  0.217666D+00
     17  0.120512D+00  0.171029D+00
     18  0.280463D-03 -0.210212D-03  0.494298D-01
     19 -0.289083D-05  0.367195D-05 -0.346922D-03  0.118465D+00
     20 -0.527758D-05  0.670361D-05 -0.633350D-03 -0.941175D-01  0.249405D+00
     21 -0.112388D-03  0.142756D-03 -0.134874D-01  0.338926D-02 -0.672683D-02
     22  0.000000D+00  0.000000D+00  0.000000D+00  0.000000D+00  0.000000D+00
     23  0.000000D+00  0.000000D+00  0.000000D+00  0.000000D+00  0.000000D+00
     24  0.000000D+00  0.000000D+00  0.000000D+00  0.000000D+00  0.000000D+00
     25  0.115619D-04 -0.137137D-04 -0.618682D-03  0.000000D+00  0.000000D+00
     26  0.447217D-05 -0.530449D-05 -0.239308D-03  0.000000D+00  0.000000D+00
     27  0.170729D-03 -0.202504D-03 -0.913580D-02  0.000000D+00  0.000000D+00
               21            22            23            24            25 
     21  0.452840D-01
     22  0.000000D+00  0.175138D+00
     23  0.000000D+00  0.158485D+00  0.376011D+00
     24  0.000000D+00 -0.271598D-02 -0.298282D-02  0.455461D-01
     25  0.000000D+00 -0.193311D-04  0.135722D-04  0.273936D-03  0.232719D+00
     26  0.000000D+00 -0.566319D-04  0.397607D-04  0.802516D-03 -0.140389D+00
     27  0.000000D+00  0.714943D-03 -0.501954D-03 -0.101313D-01 -0.728481D-02
               26            27 
     26  0.202731D+00
     27  0.723574D-02  0.470683D-01
 Leave Link  716 at Tue Dec 15 16:28:09 2015, MaxMem=    33554432 cpu:         0.0
 (Enter /home/Applications/g09/g09/l103.exe)

 GradGradGradGradGradGradGradGradGradGradGradGradGradGradGradGradGradGrad
 Berny optimization.
 Search for a local minimum.
 Step number   1 out of a maximum of    2
 All quantities printed in internal units (Hartrees-Bohrs-Radians)
 Second derivative matrix not updated -- first step.
 ITU=  0
     Eigenvalues ---    0.02173   0.02967   0.06864   0.07406   0.07933
     Eigenvalues ---    0.08607   0.13346   0.15877   0.16445   0.23325
     Eigenvalues ---    0.25751   0.32465   0.44366   0.45514   0.62033
     Eigenvalues ---    0.80881   1.03238   1.31344   1.39933   1.55636
     Eigenvalues ---    1.89645
 Quadratic step=5.128D-01 exceeds max=3.000D-01 adjusted using Lamda=-1.483D-01.
 Angle between NR and scaled steps=  23.93 degrees.
 Angle between quadratic step and forces=  37.68 degrees.
 Linear search not attempted -- first point.
 TrRot= -0.005784  0.008226  0.000067  1.037245  0.000523 -1.037928
 Variable       Old X    -DE/DX   Delta X   Delta X   Delta X     New X
                                 (Linear)    (Quad)   (Total)
    X1        1.87025   0.06711   0.00000   0.08687   0.08019   1.95045
    Y1       -1.29726  -0.02512   0.00000  -0.02911  -0.02219  -1.31945
    Z1        0.08208  -0.01046   0.00000  -0.02566  -0.02551   0.05657
    X2       -0.59796  -0.04601   0.00000  -0.05561  -0.06287  -0.66083
    Y2       -2.13169   0.02598   0.00000  -0.00597   0.00270  -2.12900
    Z2       -0.05075   0.00972   0.00000   0.02785   0.02905  -0.02170
    X3       -2.23399  -0.03145   0.00000  -0.08528  -0.09106  -2.32504
    Y3       -0.03093  -0.01050   0.00000   0.00081   0.01066  -0.02027
    Z3        0.09045  -0.00108   0.00000  -0.00594  -0.00525   0.08520
    X4       -0.57035  -0.18909   0.00000  -0.09859  -0.10293  -0.67328
    Y4        2.02143   0.10443   0.00000   0.07402   0.08272   2.10415
    Z4        0.04851  -0.00432   0.00000  -0.00957  -0.01027   0.03823
    X5        1.74819   0.20961   0.00000   0.13888   0.13403   1.88223
    Y5        1.32079  -0.00016   0.00000   0.03129   0.03824   1.35903
    Z5        0.02177   0.00610   0.00000   0.01558   0.01453   0.03630
    X6        3.37867  -0.00664   0.00000   0.07864   0.07468   3.45335
    Y6        2.66602  -0.01308   0.00000  -0.00489   0.00099   2.66701
    Z6        0.02242  -0.00056   0.00000   0.00996   0.00791   0.03033
    X7       -1.56513   0.01134   0.00000  -0.03788  -0.04099  -1.60612
    Y7        3.92528  -0.02618   0.00000  -0.00988  -0.00057   3.92471
    Z7       -0.01531   0.00146   0.00000  -0.00129  -0.00256  -0.01787
    X8       -1.51607  -0.02826   0.00000  -0.06548  -0.07395  -1.59003
    Y8       -3.80039  -0.06011   0.00000  -0.11629  -0.10700  -3.90739
    Z8       -0.03287  -0.00369   0.00000  -0.00706  -0.00481  -0.03768
    X9        3.38799   0.01341   0.00000   0.09050   0.08289   3.47088
    Y9       -2.66169   0.00474   0.00000  -0.01141  -0.00555  -2.66725
    Z9        0.01504   0.00284   0.00000  -0.00344  -0.00309   0.01195
         Item               Value     Threshold  Converged?
 Maximum Force            0.209609     0.000450     NO 
 RMS     Force            0.062525     0.000300     NO 
 Maximum Displacement     0.134034     0.001800     NO 
 RMS     Displacement     0.057469     0.001200     NO 
 Predicted change in Energy=-4.527020D-02
 GradGradGradGradGradGradGradGradGradGradGradGradGradGradGradGradGradGrad

 Leave Link  103 at Tue Dec 15 16:28:09 2015, MaxMem=    33554432 cpu:         0.0
 (Enter /home/Applications/g09/g09/l9999.exe)
 1\1\GINC-DUSTIN-DESKTOP\Force\RAM1-FC\STO-3G\C4H4O1\DUSTIN\15-Dec-2015
 \0\\#P AM1(Input,print) CIS(Singlets,NStates=15) pop(full) force\\AM1-
 Reparam Input\\0,1\C,0.989694,-0.686478,0.043436\C,-0.316428,-1.128044
 ,-0.026857\O,-1.182175,-0.016365,0.047865\C,-0.301816,1.069697,0.02566
 8\C,0.925104,0.698931,0.01152\H,1.787915,1.410795,0.011865\H,-0.82823,
 2.077168,-0.008101\H,-0.802272,-2.011079,-0.017392\H,1.792849,-1.40850
 7,0.007959\\Version=ES64L-G09RevD.01\State=1-A\HF=0.0332644\RMSD=7.297
 e-09\RMSF=6.252e-02\Dipole=0.334961,0.0823739,-0.0384828\PG=C01 [X(C4H
 4O1)]\\@


 AN AIRPLANE IS A COLLECTION OF SPARE PARTS
 FLYING IN CLOSE FORMATION.
 Job cpu time:       0 days  0 hours  0 minutes  0.3 seconds.
 File lengths (MBytes):  RWF=      7 Int=      0 D2E=      0 Chk=      2 Scr=      1
 Normal termination of Gaussian 09 at Tue Dec 15 16:28:09 2015.
