 Entering Gaussian System, Link 0=g09
 Input=FuranAM1_0.com
 Output=FuranAM1_0.log
 Initial command:
 /home/Applications/g09/g09/l1.exe "/home/Applications/g09/scratch/Gau-5408.inp" -scrdir="/home/Applications/g09/scratch/"
 Entering Link 1 = /home/Applications/g09/g09/l1.exe PID=      5413.
  
 Copyright (c) 1988,1990,1992,1993,1995,1998,2003,2009,2013,
            Gaussian, Inc.  All Rights Reserved.
  
 This is part of the Gaussian(R) 09 program.  It is based on
 the Gaussian(R) 03 system (copyright 2003, Gaussian, Inc.),
 the Gaussian(R) 98 system (copyright 1998, Gaussian, Inc.),
 the Gaussian(R) 94 system (copyright 1995, Gaussian, Inc.),
 the Gaussian 92(TM) system (copyright 1992, Gaussian, Inc.),
 the Gaussian 90(TM) system (copyright 1990, Gaussian, Inc.),
 the Gaussian 88(TM) system (copyright 1988, Gaussian, Inc.),
 the Gaussian 86(TM) system (copyright 1986, Carnegie Mellon
 University), and the Gaussian 82(TM) system (copyright 1983,
 Carnegie Mellon University). Gaussian is a federally registered
 trademark of Gaussian, Inc.
  
 This software contains proprietary and confidential information,
 including trade secrets, belonging to Gaussian, Inc.
  
 This software is provided under written license and may be
 used, copied, transmitted, or stored only in accord with that
 written license.
  
 The following legend is applicable only to US Government
 contracts under FAR:
  
                    RESTRICTED RIGHTS LEGEND
  
 Use, reproduction and disclosure by the US Government is
 subject to restrictions as set forth in subparagraphs (a)
 and (c) of the Commercial Computer Software - Restricted
 Rights clause in FAR 52.227-19.
  
 Gaussian, Inc.
 340 Quinnipiac St., Bldg. 40, Wallingford CT 06492
  
  
 ---------------------------------------------------------------
 Warning -- This program may not be used in any manner that
 competes with the business of Gaussian, Inc. or will provide
 assistance to any competitor of Gaussian, Inc.  The licensee
 of this program is prohibited from giving any competitor of
 Gaussian, Inc. access to this program.  By using this program,
 the user acknowledges that Gaussian, Inc. is engaged in the
 business of creating and licensing software in the field of
 computational chemistry and represents and warrants to the
 licensee that it is not a competitor of Gaussian, Inc. and that
 it will not use this program in any manner prohibited above.
 ---------------------------------------------------------------
  

 Cite this work as:
 Gaussian 09, Revision D.01,
 M. J. Frisch, G. W. Trucks, H. B. Schlegel, G. E. Scuseria, 
 M. A. Robb, J. R. Cheeseman, G. Scalmani, V. Barone, B. Mennucci, 
 G. A. Petersson, H. Nakatsuji, M. Caricato, X. Li, H. P. Hratchian, 
 A. F. Izmaylov, J. Bloino, G. Zheng, J. L. Sonnenberg, M. Hada, 
 M. Ehara, K. Toyota, R. Fukuda, J. Hasegawa, M. Ishida, T. Nakajima, 
 Y. Honda, O. Kitao, H. Nakai, T. Vreven, J. A. Montgomery, Jr., 
 J. E. Peralta, F. Ogliaro, M. Bearpark, J. J. Heyd, E. Brothers, 
 K. N. Kudin, V. N. Staroverov, T. Keith, R. Kobayashi, J. Normand, 
 K. Raghavachari, A. Rendell, J. C. Burant, S. S. Iyengar, J. Tomasi, 
 M. Cossi, N. Rega, J. M. Millam, M. Klene, J. E. Knox, J. B. Cross, 
 V. Bakken, C. Adamo, J. Jaramillo, R. Gomperts, R. E. Stratmann, 
 O. Yazyev, A. J. Austin, R. Cammi, C. Pomelli, J. W. Ochterski, 
 R. L. Martin, K. Morokuma, V. G. Zakrzewski, G. A. Voth, 
 P. Salvador, J. J. Dannenberg, S. Dapprich, A. D. Daniels, 
 O. Farkas, J. B. Foresman, J. V. Ortiz, J. Cioslowski, 
 and D. J. Fox, Gaussian, Inc., Wallingford CT, 2013.
 
 ******************************************
 Gaussian 09:  ES64L-G09RevD.01 24-Apr-2013
                15-Dec-2015 
 ******************************************
 ------------------------------------------------------------
 #P AM1(Input,print) CIS(Singlets,NStates=15) pop(full) force
 ------------------------------------------------------------
 1/10=7,30=1,38=1/1,3;
 2/12=2,17=6,18=5,40=1/2;
 3/5=2,16=1,25=1,41=700000,71=1,135=100,136=1/1,2,8,3;
 4/35=1/1;
 5/5=2,35=1,38=5/2;
 8/6=1,10=1,108=15/1;
 9/15=2,41=15,42=1,48=1,49=10/14;
 10/5=4/2;
 6/7=3,18=1/1;
 7/12=6,13=5,29=1/1,2,3,16;
 1/10=7,30=1/3;
 99//99;
 Leave Link    1 at Tue Dec 15 16:10:32 2015, MaxMem=           0 cpu:         0.0
 (Enter /home/Applications/g09/g09/l101.exe)
 -----------------
 AM1-Reparam Input
 -----------------
 Symbolic Z-matrix:
 Charge =  0 Multiplicity = 1
 6                     0.98844  -0.71971   0.03816 
 6                    -0.37909  -1.05562   0.03286 
 8                    -1.14688   0.01717   0.03845 
 6                    -0.3812    1.11959  -0.02616 
 6                     0.95823   0.72893  -0.04979 
 1                     1.77292   1.40814  -0.02785 
 1                    -0.86378   2.06575   0.04064 
 1                    -0.8185   -2.05218  -0.00348 
 1                     1.84573  -1.32296   0.01785 
 
 NAtoms=      9 NQM=        9 NQMF=       0 NMMI=      0 NMMIF=      0
                NMic=       0 NMicF=      0.
                    Isotopes and Nuclear Properties:
 (Nuclear quadrupole moments (NQMom) in fm**2, nuclear magnetic moments (NMagM)
  in nuclear magnetons)

  Atom         1           2           3           4           5           6           7           8           9
 IAtWgt=          12          12          16          12          12           1           1           1           1
 AtmWgt=  12.0000000  12.0000000  15.9949146  12.0000000  12.0000000   1.0078250   1.0078250   1.0078250   1.0078250
 NucSpn=           0           0           0           0           0           1           1           1           1
 AtZEff=   0.0000000   0.0000000   0.0000000   0.0000000   0.0000000   0.0000000   0.0000000   0.0000000   0.0000000
 NQMom=    0.0000000   0.0000000   0.0000000   0.0000000   0.0000000   0.0000000   0.0000000   0.0000000   0.0000000
 NMagM=    0.0000000   0.0000000   0.0000000   0.0000000   0.0000000   2.7928460   2.7928460   2.7928460   2.7928460
 AtZNuc=   6.0000000   6.0000000   8.0000000   6.0000000   6.0000000   1.0000000   1.0000000   1.0000000   1.0000000
 Leave Link  101 at Tue Dec 15 16:10:32 2015, MaxMem=    33554432 cpu:         0.0
 (Enter /home/Applications/g09/g09/l103.exe)

 GradGradGradGradGradGradGradGradGradGradGradGradGradGradGradGradGradGrad
 Berny optimization.
 Initialization pass.
 Trust Radius=3.00D-01 FncErr=1.00D-07 GrdErr=1.00D-07
 Number of steps in this run=      2 maximum allowed number of steps=      2.
 GradGradGradGradGradGradGradGradGradGradGradGradGradGradGradGradGradGrad

 Leave Link  103 at Tue Dec 15 16:10:32 2015, MaxMem=    33554432 cpu:         0.0
 (Enter /home/Applications/g09/g09/l202.exe)
                          Input orientation:                          
 ---------------------------------------------------------------------
 Center     Atomic      Atomic             Coordinates (Angstroms)
 Number     Number       Type             X           Y           Z
 ---------------------------------------------------------------------
      1          6           0        0.988436   -0.719709    0.038159
      2          6           0       -0.379087   -1.055616    0.032855
      3          8           0       -1.146877    0.017168    0.038453
      4          6           0       -0.381199    1.119586   -0.026155
      5          6           0        0.958226    0.728928   -0.049790
      6          1           0        1.772915    1.408143   -0.027850
      7          1           0       -0.863781    2.065747    0.040639
      8          1           0       -0.818496   -2.052182   -0.003475
      9          1           0        1.845733   -1.322956    0.017853
 ---------------------------------------------------------------------
                    Distance matrix (angstroms):
                    1          2          3          4          5
     1  C    0.000000
     2  C    1.408184   0.000000
     3  O    2.258882   1.319242   0.000000
     4  C    2.294132   2.176003   1.343787   0.000000
     5  C    1.451619   2.231554   2.223926   1.395432   0.000000
     6  H    2.268814   3.271835   3.234871   2.173356   1.060911
     7  H    3.345068   3.158781   2.068048   1.064222   2.261630
     8  H    2.245489   1.089745   2.095663   3.201852   3.300524
     9  H    1.048464   2.240875   3.279035   3.305628   2.236621
                    6          7          8          9
     6  H    0.000000
     7  H    2.718327   0.000000
     8  H    4.323176   4.118414   0.000000
     9  H    2.732452   4.338812   2.762307   0.000000
 Stoichiometry    C4H4O
 Framework group  C1[X(C4H4O)]
 Deg. of freedom    21
 Full point group                 C1      NOp   1
 Largest Abelian subgroup         C1      NOp   1
 Largest concise Abelian subgroup C1      NOp   1
                         Standard orientation:                         
 ---------------------------------------------------------------------
 Center     Atomic      Atomic             Coordinates (Angstroms)
 Number     Number       Type             X           Y           Z
 ---------------------------------------------------------------------
      1          6           0       -1.019134    0.700298   -0.028078
      2          6           0       -0.896149   -0.702093    0.005899
      3          8           0        0.366618   -1.083516   -0.012352
      4          6           0        1.164285   -0.002440    0.015332
      5          6           0        0.363164    1.140054    0.027278
      6          1           0        0.743042    2.129363   -0.022659
      7          1           0        2.214252   -0.156025   -0.065589
      8          1           0       -1.697125   -1.438065    0.071687
      9          1           0       -1.866105    1.317940   -0.007204
 ---------------------------------------------------------------------
 Rotational constants (GHZ):      9.5188922      9.1004147      4.6552497
 Leave Link  202 at Tue Dec 15 16:10:32 2015, MaxMem=    33554432 cpu:         0.0
 (Enter /home/Applications/g09/g09/l301.exe)

 Semi-emprical parameters in input format:
 Method=8 CoreType=1 PeptideFC=0.0114510000 RIJScale=0.5291770000
 ****
 H       
 PQN=1 NValence=1 F0ss=0.4721550000 ZetaOverlap=1.1880780000 U=-0.4188110000
 Beta=-0.2268830000 CoreKO=1.0589200000 KON=0,0,0,1.0589200000 KON=1,0,1,1.0589200000
 KON=0,1,1,1.0589200000 KON=2,1,1,1.0589200000 EISol=-0.4188110042 EHeat=0.0830298228
 Alpha=1.5252600000
 GCore=0.0085280000,1.4001430000,2.2676710000
 GCore=0.0003530000,1.4001430000,3.4015070000
 GCore=-0.0012730000,0.5600570000,3.9684250000
 ****
 C       
 PQN=2,2 NValence=4 F0ss=0.4494440000 F0sp=0.4215150000 F0pp=0.3768030000 F2pp=0.1898720000
 G1sp=0.2679030000
 ZetaOverlap=1.8086650000,1.6851160000
 U=-1.9120180000,-1.4557970000
 Beta=-0.5775440000,-0.2836780000 DDN=0,1,0.8236740000 DDN=1,1,0.7268010000
 CoreKO=1.1124280000 KON=0,0,0,1.1124280000 KON=1,0,1,0.8219700000 KON=0,1,1,1.1124280000
 KON=2,1,1,0.7783930000 EISol=-4.4398989268 EHeat=0.2723305520 Alpha=1.4014060000
 DipHyp=1.6472532266
 GCore=0.0007890000,1.4001430000,3.0235620000
 GCore=0.0031890000,1.4001430000,3.4959930000
 GCore=-0.0013930000,1.4001430000,3.8739390000
 GCore=-0.0000880000,1.4001430000,5.0077740000
 ****
 O       
 PQN=2,2 NValence=6 F0ss=0.5666750000 F0sp=0.5321300000 F0pp=0.4958710000 F2pp=0.2358080000
 G1sp=0.4343770000
 ZetaOverlap=3.1080320000,2.5240390000
 U=-3.5951870000,-2.8760900000
 Beta=-1.0757550000,-1.0757550000 DDN=0,1,0.4988900000 DDN=1,1,0.4852320000
 CoreKO=0.8822960000 KON=0,0,0,0.8822960000 KON=1,0,1,0.5019540000 KON=0,1,1,0.8822960000
 KON=2,1,1,0.5515580000 EISol=-11.6164441184 EHeat=0.0949133088 Alpha=2.3576810000
 DipHyp=0.9977225968
 GCore=0.0195120000,1.4001430000,1.6023330000
 GCore=0.0056550000,1.9602000000,2.7307880000
 ****
 
 Standard basis: VSTO-6G (5D, 7F)
 Ernie: Thresh=  0.10000D-02 Tol=  0.10000D-05 Strict=F.
  NNHCO=     0 NNPyr=     0 NCTC=     0               EPep=         0.000000000
    EC=        68.658826321  ECS=         1.810436813   EG=         0.373071722
   EHC=         0.000000000  EAt=       -31.051283842  AtH=         1.516354808
 EPDDG=         0.000000000  ECC=        70.842334856 EAtT=        32.567638650
 There are    24 symmetry adapted cartesian basis functions of A   symmetry.
 There are    24 symmetry adapted basis functions of A   symmetry.
    24 basis functions,   144 primitive gaussians,    24 cartesian basis functions
    13 alpha electrons       13 beta electrons
       nuclear repulsion energy       103.4099735062 Hartrees.
 IExCor=    0 DFT=F Ex=HF Corr=None ExCW=0 ScaHFX=  1.000000
 ScaDFX=  1.000000  1.000000  1.000000  1.000000 ScalE2=  1.000000  1.000000
 IRadAn=      0 IRanWt=     -1 IRanGd=            0 ICorTp=0 IEmpDi=  4
 Integral buffers will be    131072 words long.
 Regular integral format.
 Two-electron integral symmetry is turned off.
 Leave Link  301 at Tue Dec 15 16:10:32 2015, MaxMem=    33554432 cpu:         0.0
 (Enter /home/Applications/g09/g09/l302.exe)
 Do NDO integrals.
 NPDir=0 NMtPBC=     1 NCelOv=     1 NCel=       1 NClECP=     1 NCelD=      1
         NCelK=      1 NCelE2=     1 NClLst=     1 CellRange=     0.0.
 One-electron integrals computed using PRISM.
 NBasis=    24 RedAO= F EigKep=  0.00D+00  NBF=    24
 NBsUse=    24 1.00D-04 EigRej=  0.00D+00 NBFU=    24
 Leave Link  302 at Tue Dec 15 16:10:32 2015, MaxMem=    33554432 cpu:         0.0
 (Enter /home/Applications/g09/g09/l308.exe)
 Leave Link  308 at Tue Dec 15 16:10:32 2015, MaxMem=    33554432 cpu:         0.0
 (Enter /home/Applications/g09/g09/l303.exe)
 DipDrv:  MaxL=1.
 Leave Link  303 at Tue Dec 15 16:10:32 2015, MaxMem=    33554432 cpu:         0.0
 (Enter /home/Applications/g09/g09/l401.exe)
 Simple Huckel Guess.
 JPrj=0 DoOrth=F DoCkMO=F.
 Leave Link  401 at Tue Dec 15 16:10:32 2015, MaxMem=    33554432 cpu:         0.0
 (Enter /home/Applications/g09/g09/l502.exe)
 Closed shell SCF:
 Using DIIS extrapolation, IDIIS=  1040.
 Overlap will be assumed to be unity.
 Two-electron integral symmetry not used.
 Keep J ints in memory in canonical form, NReq=888082.
 IVT=       79475 IEndB=       79475 NGot=    33554432 MDV=    33473473
 LenX=    33473473 LenY=    33472456
 Requested convergence on RMS density matrix=1.00D-08 within 128 cycles.
 Requested convergence on MAX density matrix=1.00D-06.
 Requested convergence on             energy=1.00D-06.
 No special actions if energy rises.
 FoFCou: FMM=F IPFlag=           0 FMFlag=           0 FMFlg1=           0
         NFxFlg=           0 DoJE=F BraDBF=F KetDBF=F FulRan=T
         wScrn=  0.000000 ICntrl=     600 IOpCl=  2 I1Cent=           0 NGrid=           0
         NMat0=    1 NMatS0=     54 NMatT0=    0 NMatD0=    1 NMtDS0=    0 NMtDT0=    0
 Symmetry not used in FoFCou.

 Cycle   1  Pass 1  IDiag  1:
 E= 0.335618091990114    
 DIIS: error= 6.74D-02 at cycle   1 NSaved=   1.
 NSaved= 1 IEnMin= 1 EnMin= 0.335618091990114     IErMin= 1 ErrMin= 6.74D-02
 ErrMax= 6.74D-02  0.00D+00 EMaxC= 1.00D-01 BMatC= 1.13D-01 BMatP= 1.13D-01
 IDIUse=3 WtCom= 3.26D-01 WtEn= 6.74D-01
 Coeff-Com:  0.100D+01
 Coeff-En:   0.100D+01
 Coeff:      0.100D+01
 GapD=    2.000 DampG=2.000 DampE=0.500 DampFc=1.0000 IDamp=-1.
 RMSDP=1.95D-02 MaxDP=1.66D-01              OVMax= 0.00D+00

 Cycle   2  Pass 1  IDiag  1:
 E= 0.534869231967576E-01 Delta-E=       -0.282131168793 Rises=F Damp=F
 DIIS: error= 1.92D-02 at cycle   2 NSaved=   2.
 NSaved= 2 IEnMin= 2 EnMin= 0.534869231967576E-01 IErMin= 2 ErrMin= 1.92D-02
 ErrMax= 1.92D-02  0.00D+00 EMaxC= 1.00D-01 BMatC= 9.84D-03 BMatP= 1.13D-01
 IDIUse=3 WtCom= 8.08D-01 WtEn= 1.92D-01
 Coeff-Com: -0.355D+00 0.135D+01
 Coeff-En:   0.000D+00 0.100D+01
 Coeff:     -0.287D+00 0.129D+01
 RMSDP=8.33D-03 MaxDP=7.00D-02 DE=-2.82D-01 OVMax= 0.00D+00

 Cycle   3  Pass 1  IDiag  3:
 E= 0.217018384089300E-01 Delta-E=       -0.031785084788 Rises=F Damp=F
 DIIS: error= 4.34D-03 at cycle   3 NSaved=   3.
 NSaved= 3 IEnMin= 3 EnMin= 0.217018384089300E-01 IErMin= 3 ErrMin= 4.34D-03
 ErrMax= 4.34D-03  0.00D+00 EMaxC= 1.00D-01 BMatC= 4.21D-04 BMatP= 9.84D-03
 IDIUse=3 WtCom= 9.57D-01 WtEn= 4.34D-02
 Coeff-Com:  0.112D+00-0.528D+00 0.142D+01
 Coeff-En:   0.000D+00 0.000D+00 0.100D+01
 Coeff:      0.107D+00-0.505D+00 0.140D+01
 Gap=     0.370 Goal=   None    Shift=    0.000
 RMSDP=2.66D-03 MaxDP=2.84D-02 DE=-3.18D-02 OVMax= 2.82D-02

 Cycle   4  Pass 1  IDiag  3:
 E= 0.194076976139286E-01 Delta-E=       -0.002294140795 Rises=F Damp=F
 DIIS: error= 1.34D-03 at cycle   4 NSaved=   4.
 NSaved= 4 IEnMin= 4 EnMin= 0.194076976139286E-01 IErMin= 4 ErrMin= 1.34D-03
 ErrMax= 1.34D-03  0.00D+00 EMaxC= 1.00D-01 BMatC= 3.34D-05 BMatP= 4.21D-04
 IDIUse=3 WtCom= 9.87D-01 WtEn= 1.34D-02
 Coeff-Com:  0.175D-01-0.525D-01-0.245D+00 0.128D+01
 Coeff-En:   0.000D+00 0.000D+00 0.000D+00 0.100D+01
 Coeff:      0.173D-01-0.518D-01-0.242D+00 0.128D+01
 Gap=     0.371 Goal=   None    Shift=    0.000
 RMSDP=9.32D-04 MaxDP=1.07D-02 DE=-2.29D-03 OVMax= 9.52D-03

 Cycle   5  Pass 1  IDiag  3:
 E= 0.192032533175990E-01 Delta-E=       -0.000204444296 Rises=F Damp=F
 DIIS: error= 1.70D-04 at cycle   5 NSaved=   5.
 NSaved= 5 IEnMin= 5 EnMin= 0.192032533175990E-01 IErMin= 5 ErrMin= 1.70D-04
 ErrMax= 1.70D-04  0.00D+00 EMaxC= 1.00D-01 BMatC= 1.44D-06 BMatP= 3.34D-05
 IDIUse=3 WtCom= 9.98D-01 WtEn= 1.70D-03
 Coeff-Com: -0.770D-02 0.272D-01 0.577D-01-0.499D+00 0.142D+01
 Coeff-En:   0.000D+00 0.000D+00 0.000D+00 0.000D+00 0.100D+01
 Coeff:     -0.769D-02 0.272D-01 0.576D-01-0.498D+00 0.142D+01
 Gap=     0.371 Goal=   None    Shift=    0.000
 RMSDP=1.99D-04 MaxDP=1.64D-03 DE=-2.04D-04 OVMax= 1.79D-03

 Cycle   6  Pass 1  IDiag  3:
 E= 0.191939612482201E-01 Delta-E=       -0.000009292069 Rises=F Damp=F
 DIIS: error= 6.93D-05 at cycle   6 NSaved=   6.
 NSaved= 6 IEnMin= 6 EnMin= 0.191939612482201E-01 IErMin= 6 ErrMin= 6.93D-05
 ErrMax= 6.93D-05  0.00D+00 EMaxC= 1.00D-01 BMatC= 1.12D-07 BMatP= 1.44D-06
 IDIUse=1 WtCom= 1.00D+00 WtEn= 0.00D+00
 Coeff-Com:  0.261D-02-0.929D-02-0.884D-02 0.135D+00-0.569D+00 0.145D+01
 Coeff:      0.261D-02-0.929D-02-0.884D-02 0.135D+00-0.569D+00 0.145D+01
 Gap=     0.371 Goal=   None    Shift=    0.000
 RMSDP=6.58D-05 MaxDP=5.09D-04 DE=-9.29D-06 OVMax= 8.39D-04

 Cycle   7  Pass 1  IDiag  3:
 E= 0.191930258905302E-01 Delta-E=       -0.000000935358 Rises=F Damp=F
 DIIS: error= 3.12D-05 at cycle   7 NSaved=   7.
 NSaved= 7 IEnMin= 7 EnMin= 0.191930258905302E-01 IErMin= 7 ErrMin= 3.12D-05
 ErrMax= 3.12D-05  0.00D+00 EMaxC= 1.00D-01 BMatC= 1.31D-08 BMatP= 1.12D-07
 IDIUse=1 WtCom= 1.00D+00 WtEn= 0.00D+00
 Coeff-Com: -0.416D-03 0.981D-03 0.271D-02-0.268D-01 0.144D+00-0.701D+00
 Coeff-Com:  0.158D+01
 Coeff:     -0.416D-03 0.981D-03 0.271D-02-0.268D-01 0.144D+00-0.701D+00
 Coeff:      0.158D+01
 Gap=     0.371 Goal=   None    Shift=    0.000
 RMSDP=3.02D-05 MaxDP=2.70D-04 DE=-9.35D-07 OVMax= 3.71D-04

 Cycle   8  Pass 1  IDiag  3:
 E= 0.191928903046801E-01 Delta-E=       -0.000000135586 Rises=F Damp=F
 DIIS: error= 8.42D-06 at cycle   8 NSaved=   8.
 NSaved= 8 IEnMin= 8 EnMin= 0.191928903046801E-01 IErMin= 8 ErrMin= 8.42D-06
 ErrMax= 8.42D-06  0.00D+00 EMaxC= 1.00D-01 BMatC= 8.36D-10 BMatP= 1.31D-08
 IDIUse=1 WtCom= 1.00D+00 WtEn= 0.00D+00
 Coeff-Com:  0.497D-04 0.188D-03-0.181D-02 0.876D-02-0.462D-01 0.284D+00
 Coeff-Com: -0.856D+00 0.161D+01
 Coeff:      0.497D-04 0.188D-03-0.181D-02 0.876D-02-0.462D-01 0.284D+00
 Coeff:     -0.856D+00 0.161D+01
 Gap=     0.371 Goal=   None    Shift=    0.000
 RMSDP=8.18D-06 MaxDP=7.84D-05 DE=-1.36D-07 OVMax= 9.66D-05

 Cycle   9  Pass 1  IDiag  3:
 E= 0.191928817689586E-01 Delta-E=       -0.000000008536 Rises=F Damp=F
 DIIS: error= 1.41D-06 at cycle   9 NSaved=   9.
 NSaved= 9 IEnMin= 9 EnMin= 0.191928817689586E-01 IErMin= 9 ErrMin= 1.41D-06
 ErrMax= 1.41D-06  0.00D+00 EMaxC= 1.00D-01 BMatC= 3.75D-11 BMatP= 8.36D-10
 IDIUse=1 WtCom= 1.00D+00 WtEn= 0.00D+00
 Coeff-Com:  0.276D-04-0.243D-03 0.536D-03-0.109D-02 0.828D-02-0.784D-01
 Coeff-Com:  0.279D+00-0.690D+00 0.148D+01
 Coeff:      0.276D-04-0.243D-03 0.536D-03-0.109D-02 0.828D-02-0.784D-01
 Coeff:      0.279D+00-0.690D+00 0.148D+01
 Gap=     0.371 Goal=   None    Shift=    0.000
 RMSDP=1.39D-06 MaxDP=1.25D-05 DE=-8.54D-09 OVMax= 1.87D-05

 Cycle  10  Pass 1  IDiag  3:
 E= 0.191928814812599E-01 Delta-E=       -0.000000000288 Rises=F Damp=F
 DIIS: error= 1.78D-07 at cycle  10 NSaved=  10.
 NSaved=10 IEnMin=10 EnMin= 0.191928814812599E-01 IErMin=10 ErrMin= 1.78D-07
 ErrMax= 1.78D-07  0.00D+00 EMaxC= 1.00D-01 BMatC= 1.81D-12 BMatP= 3.75D-11
 IDIUse=1 WtCom= 1.00D+00 WtEn= 0.00D+00
 Coeff-Com: -0.149D-04 0.115D-03-0.239D-03 0.412D-03-0.274D-02 0.288D-01
 Coeff-Com: -0.106D+00 0.273D+00-0.713D+00 0.152D+01
 Coeff:     -0.149D-04 0.115D-03-0.239D-03 0.412D-03-0.274D-02 0.288D-01
 Coeff:     -0.106D+00 0.273D+00-0.713D+00 0.152D+01
 Gap=     0.371 Goal=   None    Shift=    0.000
 RMSDP=2.56D-07 MaxDP=1.65D-06 DE=-2.88D-10 OVMax= 2.79D-06

 Cycle  11  Pass 1  IDiag  3:
 E= 0.191928814690385E-01 Delta-E=       -0.000000000012 Rises=F Damp=F
 DIIS: error= 3.52D-08 at cycle  11 NSaved=  11.
 NSaved=11 IEnMin=11 EnMin= 0.191928814690385E-01 IErMin=11 ErrMin= 3.52D-08
 ErrMax= 3.52D-08  0.00D+00 EMaxC= 1.00D-01 BMatC= 8.90D-14 BMatP= 1.81D-12
 IDIUse=1 WtCom= 1.00D+00 WtEn= 0.00D+00
 Coeff-Com:  0.473D-05-0.382D-04 0.847D-04-0.172D-03 0.969D-03-0.968D-02
 Coeff-Com:  0.351D-01-0.894D-01 0.238D+00-0.633D+00 0.146D+01
 Coeff:      0.473D-05-0.382D-04 0.847D-04-0.172D-03 0.969D-03-0.968D-02
 Coeff:      0.351D-01-0.894D-01 0.238D+00-0.633D+00 0.146D+01
 Gap=     0.371 Goal=   None    Shift=    0.000
 RMSDP=5.71D-08 MaxDP=2.35D-07 DE=-1.22D-11 OVMax= 5.92D-07

 Cycle  12  Pass 1  IDiag  3:
 E= 0.191928814682427E-01 Delta-E=       -0.000000000001 Rises=F Damp=F
 DIIS: error= 9.77D-09 at cycle  12 NSaved=  12.
 NSaved=12 IEnMin=12 EnMin= 0.191928814682427E-01 IErMin=12 ErrMin= 9.77D-09
 ErrMax= 9.77D-09  0.00D+00 EMaxC= 1.00D-01 BMatC= 7.05D-15 BMatP= 8.90D-14
 IDIUse=1 WtCom= 1.00D+00 WtEn= 0.00D+00
 Coeff-Com: -0.118D-05 0.974D-05-0.217D-04 0.483D-04-0.227D-03 0.231D-02
 Coeff-Com: -0.835D-02 0.211D-01-0.568D-01 0.171D+00-0.617D+00 0.149D+01
 Coeff:     -0.118D-05 0.974D-05-0.217D-04 0.483D-04-0.227D-03 0.231D-02
 Coeff:     -0.835D-02 0.211D-01-0.568D-01 0.171D+00-0.617D+00 0.149D+01
 Gap=     0.371 Goal=   None    Shift=    0.000
 RMSDP=1.81D-08 MaxDP=8.96D-08 DE=-7.96D-13 OVMax= 2.51D-07

 Cycle  13  Pass 1  IDiag  3:
 E= 0.191928814682427E-01 Delta-E=        0.000000000000 Rises=F Damp=F
 DIIS: error= 2.96D-09 at cycle  13 NSaved=  13.
 NSaved=13 IEnMin=12 EnMin= 0.191928814682427E-01 IErMin=13 ErrMin= 2.96D-09
 ErrMax= 2.96D-09  0.00D+00 EMaxC= 1.00D-01 BMatC= 5.86D-16 BMatP= 7.05D-15
 IDIUse=1 WtCom= 1.00D+00 WtEn= 0.00D+00
 Coeff-Com:  0.130D-06-0.112D-05 0.256D-05-0.774D-05 0.151D-04-0.172D-03
 Coeff-Com:  0.595D-03-0.134D-02 0.379D-02-0.210D-01 0.156D+00-0.661D+00
 Coeff-Com:  0.152D+01
 Coeff:      0.130D-06-0.112D-05 0.256D-05-0.774D-05 0.151D-04-0.172D-03
 Coeff:      0.595D-03-0.134D-02 0.379D-02-0.210D-01 0.156D+00-0.661D+00
 Coeff:      0.152D+01
 Gap=     0.371 Goal=   None    Shift=    0.000
 RMSDP=5.39D-09 MaxDP=2.79D-08 DE= 0.00D+00 OVMax= 7.39D-08

 Cycle  14  Pass 2  IDiag  1:
 SCF Done:  E(RAM1) =  0.191928814682E-01 A.U. after   14 cycles
            NFock= 13  Conv=0.54D-08     -V/T= 1.0012
 KE=-1.656744203355D+01 PE=-1.708957016050D+02 EE= 8.407236301387D+01
 Leave Link  502 at Tue Dec 15 16:10:32 2015, MaxMem=    33554432 cpu:         0.0
 (Enter /home/Applications/g09/g09/l801.exe)
 Range of M.O.s used for correlation:     1    24
 NBasis=    24 NAE=    13 NBE=    13 NFC=     0 NFV=     0
 NROrb=     24 NOA=    13 NOB=    13 NVA=    11 NVB=    11
 Leave Link  801 at Tue Dec 15 16:10:32 2015, MaxMem=    33554432 cpu:         0.0
 (Enter /home/Applications/g09/g09/l914.exe)
 RHF ground state
 MDV=    33554432 DFT=F DoStab=F Mixed=F DoRPA=F DoScal=F NonHer=F
 Making orbital integer symmetry assigments:
 Orbital symmetries:
       Occupied  (A) (A) (A) (A) (A) (A) (A) (A) (A) (A) (A) (A)
                 (A)
       Virtual   (A) (A) (A) (A) (A) (A) (A) (A) (A) (A) (A)
    60 initial guesses have been made.
 Convergence on wavefunction:    0.000001000000000
 Davidson Disk Diagonalization:  ConvIn= 1.00D-06 SkipCon=T Conv= 1.00D-06.
 Max sub-space:   240 roots to seek:    60 dimension of matrix:          286
 Iteration     1 Dimension    60 NMult     0 NNew     60
 CISAX will form    60 AO SS matrices at one time.
 NMat=    60 NSing=    60 JSym2X= 0.
 FoFJK:  IHMeth= 8 ICntrl=       0 DoSepK=F KAlg= 0 I1Cent=   0 FoldK=F
 IRaf=         1 NMat= 120 IRICut=       1 DoRegI=T DoRafI=F ISym2E= 0.
 FoFCou: FMM=F IPFlag=           0 FMFlag=      100000 FMFlg1=           0
         NFxFlg=           0 DoJE=F BraDBF=F KetDBF=F FulRan=T
         wScrn=  0.000000 ICntrl=       0 IOpCl=  0 I1Cent=           0 NGrid=           0
         NMat0=  120 NMatS0=     60 NMatT0=    0 NMatD0=  120 NMtDS0=    0 NMtDT0=    0
 Symmetry not used in FoFCou.
 New state      2 was old state      4
 New state      3 was old state      2
 New state      4 was old state      8
 New state      5 was old state      9
 New state      7 was old state      3
 New state      8 was old state      5
 New state      9 was old state      7
 New state     11 was old state     16
 New state     12 was old state     15
 New state     13 was old state     12
 New state     14 was old state     17
 New state     15 was old state     11
 Excitation Energies [eV] at current iteration:
 Root      1 :     4.409359198163846
 Root      2 :     4.676385871904493
 Root      3 :     4.830273029917937
 Root      4 :     5.803229989067717
 Root      5 :     5.939047389455178
 Root      6 :     6.004086326610685
 Root      7 :     6.207684042829138
 Root      8 :     6.217433180387657
 Root      9 :     6.522933298397791
 Root     10 :     6.948205863491676
 Root     11 :     6.963294698366052
 Root     12 :     7.282861391546837
 Root     13 :     7.382856031049255
 Root     14 :     7.479798473618818
 Root     15 :     7.569635911173695
 Root     16 :     7.660333905542424
 Root     17 :     7.868138195226527
 Root     18 :     8.082382380277320
 Root     19 :     8.209140234295582
 Root     20 :     8.250313411473055
 Root     21 :     8.426454088056467
 Root     22 :     8.659993113777288
 Root     23 :     8.677822991784597
 Root     24 :     8.940168166331645
 Root     25 :     9.196739495906968
 Root     26 :     9.350606287422067
 Root     27 :     9.472740902015381
 Root     28 :     9.500909793483979
 Root     29 :     9.682076135141592
 Root     30 :     9.746700538587117
 Root     31 :     9.819774000468103
 Root     32 :     9.969711455254705
 Root     33 :     9.979776566941396
 Root     34 :    10.227734947529550
 Root     35 :    10.318218514804880
 Root     36 :    10.419203312889350
 Root     37 :    10.507622475910530
 Root     38 :    10.753260706600250
 Root     39 :    10.852708766035520
 Root     40 :    11.065524956498790
 Root     41 :    11.180783408217110
 Root     42 :    11.223738916298540
 Root     43 :    11.314514319436830
 Root     44 :    11.458977050115590
 Root     45 :    11.473670314488930
 Root     46 :    11.635696546641990
 Root     47 :    11.715723896115860
 Root     48 :    11.873026661202640
 Root     49 :    11.913365809032920
 Root     50 :    12.046767633434570
 Root     51 :    12.150995832876110
 Root     52 :    12.341778284472130
 Root     53 :    12.792700231675420
 Root     54 :    12.925794352075910
 Root     55 :    13.097106425779290
 Root     56 :    13.176631520759610
 Root     57 :    13.300761402907850
 Root     58 :    13.661006178421930
 Root     59 :    13.744534490993500
 Root     60 :    13.992591586997520
 Iteration     2 Dimension   120 NMult    60 NNew     60
 CISAX will form    60 AO SS matrices at one time.
 NMat=    60 NSing=    60 JSym2X= 0.
 Root      1 not converged, maximum delta is    0.028689105744532
 Root      2 not converged, maximum delta is    0.033471114409775
 Root      3 not converged, maximum delta is    0.023117626491953
 Root      4 not converged, maximum delta is    0.038371438573304
 Root      5 not converged, maximum delta is    0.041022192816395
 Root      6 not converged, maximum delta is    0.061648200201320
 Root      7 not converged, maximum delta is    0.259708576348810
 Root      8 not converged, maximum delta is    0.230784418203977
 Root      9 not converged, maximum delta is    0.043131988277103
 New state     10 was old state     11
 Root     10 not converged, maximum delta is    0.286719332637726
 New state     11 was old state     10
 Root     11 not converged, maximum delta is    0.210192589637820
 Root     12 not converged, maximum delta is    0.095162964251855
 Root     13 not converged, maximum delta is    0.107366344579242
 Root     14 not converged, maximum delta is    0.087205664858052
 Root     15 not converged, maximum delta is    0.207962555886276
 Excitation Energies [eV] at current iteration:
 Root      1 :     4.338022848999644   Change is   -0.071336349164202
 Root      2 :     4.646189170756663   Change is   -0.030196701147831
 Root      3 :     4.816666470750616   Change is   -0.013606559167321
 Root      4 :     5.716230997224737   Change is   -0.086998991842980
 Root      5 :     5.838073068777224   Change is   -0.100974320677954
 Root      6 :     5.930860250481907   Change is   -0.073226076128778
 Root      7 :     6.049952089239613   Change is   -0.157731953589524
 Root      8 :     6.145333810024018   Change is   -0.072099370363639
 Root      9 :     6.479255136585623   Change is   -0.043678161812168
 Root     10 :     6.885736794517630   Change is   -0.077557903848422
 Root     11 :     6.895685143761561   Change is   -0.052520719730115
 Root     12 :     7.174598220792586   Change is   -0.108263170754251
 Root     13 :     7.288199953850288   Change is   -0.094656077198966
 Root     14 :     7.431770531713624   Change is   -0.048027941905193
 Root     15 :     7.498365235068738   Change is   -0.071270676104958
 Root     16 :     7.583021053430247   Change is   -0.077312852112177
 Root     17 :     7.791471674250612   Change is   -0.076666520975914
 Root     18 :     7.988789002770950   Change is   -0.093593377506369
 Root     19 :     8.098843606769909   Change is   -0.110296627525672
 Root     20 :     8.133958684610853   Change is   -0.116354726862203
 Root     21 :     8.150742809170987   Change is   -0.275711278885480
 Root     22 :     8.522638478088540   Change is   -0.137354635688748
 Root     23 :     8.633370768565166   Change is   -0.044452223219432
 Root     24 :     8.847349390023735   Change is   -0.349390105883233
 Root     25 :     8.877384656963072   Change is   -0.062783509368573
 Root     26 :     9.160031938405449   Change is   -0.340877855078529
 Root     27 :     9.270708572146861   Change is   -0.079897715275208
 Root     28 :     9.345232934647818   Change is   -0.474541065820286
 Root     29 :     9.441376707510909   Change is   -0.031364194504472
 Root     30 :     9.527833112199932   Change is   -0.451943454741465
 Root     31 :     9.604452755930700   Change is   -0.365258699324006
 Root     32 :     9.646172127871317   Change is   -0.035904007270275
 Root     33 :     9.704759790558590   Change is   -0.041940748028526
 Root     34 :     9.808537029991502   Change is   -0.509681484813378
 Root     35 :     9.960534821125979   Change is   -0.547087654784555
 Root     36 :    10.024282299646450   Change is   -0.203452647883101
 Root     37 :    10.073682046834080   Change is   -0.345521266055267
 Root     38 :    10.258662768212340   Change is   -0.494597938387913
 Root     39 :    10.348531727656280   Change is   -0.504177038379239
 Root     40 :    10.721513917482000   Change is   -0.344011039016791
 Root     41 :    10.830318377380410   Change is   -0.393420538918130
 Root     42 :    10.855811199091060   Change is   -0.324972209126048
 Root     43 :    10.942956009026640   Change is   -0.516021041088944
 Root     44 :    11.043955064291740   Change is   -0.429715250197188
 Root     45 :    11.195834564041040   Change is   -0.118679755395781
 Root     46 :    11.298318521811660   Change is   -0.417405374304193
 Root     47 :    11.336577547996040   Change is   -0.299118998645952
 Root     48 :    11.563041596893530   Change is   -0.309985064309109
 Root     49 :    11.653672000361450   Change is   -0.393095633073125
 Root     50 :    11.764007696837430   Change is   -0.149358112195491
 Root     51 :    11.884441368835350   Change is   -0.266554464040763
 Root     52 :    12.159038027836270   Change is   -0.182740256635854
 Root     53 :    12.422648155338610   Change is   -0.503146196737305
 Root     54 :    12.505170343183400   Change is   -0.287529888492019
 Root     55 :    12.840757468946950   Change is   -0.335874051812657
 Root     56 :    12.989949567284590   Change is   -0.310811835623264
 Root     57 :    13.018367300465280   Change is   -0.078739125314004
 Root     58 :    13.056621119169920
 Root     59 :    13.070425363269920
 Root     60 :    13.353766257576370   Change is   -0.307239920845565
 Iteration     3 Dimension   135 NMult   120 NNew     15
 CISAX will form    15 AO SS matrices at one time.
 NMat=    15 NSing=    15 JSym2X= 0.
 Root      1 not converged, maximum delta is    0.000725898571433
 Root      2 not converged, maximum delta is    0.000139639286997
 Root      3 not converged, maximum delta is    0.000247660944270
 Root      4 not converged, maximum delta is    0.000104486487635
 Root      5 not converged, maximum delta is    0.000313200866712
 Root      6 not converged, maximum delta is    0.000191331205119
 Root      7 not converged, maximum delta is    0.002040635974665
 Root      8 not converged, maximum delta is    0.000822529132247
 Root      9 not converged, maximum delta is    0.000182980438561
 Root     10 not converged, maximum delta is    0.000478938591000
 Root     11 not converged, maximum delta is    0.000344787701279
 Root     12 not converged, maximum delta is    0.000707123895063
 Root     13 not converged, maximum delta is    0.000433985573210
 Root     14 not converged, maximum delta is    0.000248171953797
 Root     15 not converged, maximum delta is    0.000217280621438
 Excitation Energies [eV] at current iteration:
 Root      1 :     4.337906330000307   Change is   -0.000116518999335
 Root      2 :     4.646185212941741   Change is   -0.000003957814922
 Root      3 :     4.816642323318056   Change is   -0.000024147432560
 Root      4 :     5.716227649098159   Change is   -0.000003348126578
 Root      5 :     5.838050737654530   Change is   -0.000022331122693
 Root      6 :     5.930852476612595   Change is   -0.000007773869313
 Root      7 :     6.049182563124980   Change is   -0.000769526114633
 Root      8 :     6.145103662382267   Change is   -0.000230147641751
 Root      9 :     6.479243781312306   Change is   -0.000011355273317
 Root     10 :     6.885721609296484   Change is   -0.000015185221146
 Root     11 :     6.895669988279906   Change is   -0.000015155481656
 Root     12 :     7.174550832620000   Change is   -0.000047388172587
 Root     13 :     7.288176088304704   Change is   -0.000023865545584
 Root     14 :     7.431764166132633   Change is   -0.000006365580991
 Root     15 :     7.498355923031506   Change is   -0.000009312037232
 Iteration     4 Dimension   143 NMult   135 NNew      8
 CISAX will form     8 AO SS matrices at one time.
 NMat=     8 NSing=     8 JSym2X= 0.
 Root      1 not converged, maximum delta is    0.000015779456596
 Root      2 not converged, maximum delta is    0.000004867393538
 Root      3 not converged, maximum delta is    0.000011965838719
 Root      4 not converged, maximum delta is    0.000007545171503
 Root      5 not converged, maximum delta is    0.000021065305173
 Root      6 not converged, maximum delta is    0.000007555531012
 Root      7 not converged, maximum delta is    0.000066807333833
 Root      8 not converged, maximum delta is    0.000044919723590
 Root      9 not converged, maximum delta is    0.000008507587149
 Root     10 not converged, maximum delta is    0.000008226471396
 Root     11 not converged, maximum delta is    0.000012070850142
 Root     12 not converged, maximum delta is    0.000036339594528
 Root     13 not converged, maximum delta is    0.000024244056626
 Root     14 not converged, maximum delta is    0.000013252539313
 Root     15 not converged, maximum delta is    0.000014630607152
 Excitation Energies [eV] at current iteration:
 Root      1 :     4.337906241946622   Change is   -0.000000088053685
 Root      2 :     4.646185203443984   Change is   -0.000000009497756
 Root      3 :     4.816642262840895   Change is   -0.000000060477161
 Root      4 :     5.716227634906880   Change is   -0.000000014191279
 Root      5 :     5.838050628156163   Change is   -0.000000109498368
 Root      6 :     5.930852462716437   Change is   -0.000000013896157
 Root      7 :     6.049180262993272   Change is   -0.000002300131708
 Root      8 :     6.145103316554938   Change is   -0.000000345827329
 Root      9 :     6.479243760925198   Change is   -0.000000020387108
 Root     10 :     6.885721584581626   Change is   -0.000000024714858
 Root     11 :     6.895669938972246   Change is   -0.000000049307659
 Root     12 :     7.174550410745982   Change is   -0.000000421874017
 Root     13 :     7.288175887117149   Change is   -0.000000201187555
 Root     14 :     7.431764127290362   Change is   -0.000000038842272
 Root     15 :     7.498355840521146   Change is   -0.000000082510359
 Convergence achieved on expansion vectors.
 ***********************************************************************
 Excited states from <AA,BB:AA,BB> singles matrix:
 ***********************************************************************
 
 1PDM for each excited state written to RWF  633
 Ground to excited state transition densities written to RWF  633
 Ground to excited state transition electric dipole moments (Au):
       state          X           Y           Z        Dip. S.      Osc.
         1        -0.8149     -0.3350      0.0226      0.7769      0.0826
         2         0.0821     -0.0621     -0.0002      0.0106      0.0012
         3         0.1318     -0.3005      0.0252      0.1083      0.0128
         4        -0.0237     -0.0026      0.0813      0.0072      0.0010
         5         0.0713     -0.1852      0.0580      0.0427      0.0061
         6        -0.1960     -0.0826      0.0745      0.0508      0.0074
         7        -0.5528      1.4805     -0.0042      2.4973      0.3701
         8        -0.9578     -0.2849     -0.0802      1.0050      0.1513
         9        -0.1144     -0.1361     -0.0521      0.0343      0.0054
        10        -0.0242      0.0786     -0.0450      0.0088      0.0015
        11        -0.1240      0.0223      0.0993      0.0257      0.0043
        12         0.0460     -0.1350     -0.0463      0.0225      0.0040
        13        -0.0142      0.0598     -0.1074      0.0153      0.0027
        14         0.0173      0.0014      0.0437      0.0022      0.0004
        15        -0.0107     -0.0061      0.1304      0.0172      0.0032
 Ground to excited state transition velocity dipole moments (Au):
       state          X           Y           Z        Dip. S.      Osc.
         1         0.0229      0.0163     -0.0191      0.0012      0.0048
         2        -0.0023      0.0015     -0.0031      0.0000      0.0001
         3        -0.0185      0.0176     -0.0064      0.0007      0.0026
         4         0.0042     -0.0015     -0.0487      0.0024      0.0076
         5        -0.0171      0.0447     -0.0007      0.0023      0.0071
         6         0.0282      0.0130     -0.0664      0.0054      0.0164
         7         0.1075     -0.3038      0.0059      0.1039      0.3115
         8         0.1572      0.0420      0.0034      0.0265      0.0782
         9         0.0134      0.0241      0.1717      0.0303      0.0847
        10         0.0069     -0.0216      0.0305      0.0014      0.0038
        11         0.0195     -0.0107      0.0499      0.0030      0.0078
        12        -0.0110      0.0356      0.0021      0.0014      0.0035
        13         0.0031     -0.0147      0.0094      0.0003      0.0008
        14        -0.0049      0.0075      0.0572      0.0034      0.0082
        15         0.0040      0.0084     -0.0772      0.0060      0.0146
 Ground to excited state transition magnetic dipole moments (Au):
       state          X           Y           Z
         1        -0.0634     -0.0078     -0.5587
         2        -0.2280      0.5554      0.0171
         3         0.0262     -0.1024      0.0138
         4         0.3529      0.0169      0.0112
         5         0.2040      0.1639     -0.0088
         6        -0.0188      0.0811     -0.0247
         7        -0.0628      0.0194     -0.0177
         8        -0.0311     -0.0112     -0.0938
         9        -0.1629      0.1423     -0.0508
        10        -0.1840     -0.7966      0.0249
        11         1.7120     -0.0208     -0.0795
        12        -0.3093     -1.0128      0.0352
        13         0.1241     -0.0742      0.0022
        14         0.2801      0.1484      0.0210
        15        -0.5075     -0.1419      0.0113
 Ground to excited state transition velocity quadrupole moments (Au):
       state          XX          YY          ZZ          XY          XZ          YZ
         1         0.3067     -0.2982      0.0015     -0.3967      0.0101      0.0104
         2        -0.0151      0.0224     -0.0267      0.0041      0.1571      0.0535
         3        -0.0575      0.0877     -0.0643     -0.1005     -0.0421     -0.0127
         4        -0.0134      0.0303     -0.0095      0.0353     -0.0169      0.2786
         5        -0.0478      0.0164      0.0063     -0.0323     -0.1512      0.1165
         6        -0.0711      0.0366      0.0130      0.0794     -0.0420      0.0586
         7         0.3684     -0.2071     -0.0313      0.1933     -0.0788      0.0089
         8        -0.3402      0.3096     -0.0051      0.4202     -0.0101      0.0026
         9        -0.0358      0.0313     -0.0038      0.0025      0.0154     -0.0889
        10         0.0066      0.0317      0.0004      0.0159      0.3118      0.1332
        11         0.0225     -0.0345     -0.0004     -0.0216      0.0740     -0.1036
        12        -0.0865      0.0198     -0.0091      0.0021     -0.1627     -0.0171
        13         0.0306      0.0149     -0.0480      0.0149     -0.0308      0.0636
        14        -0.0166      0.0136     -0.0124     -0.0065     -0.1175      0.1671
        15        -0.0258     -0.0158      0.0073     -0.0042      0.0906     -0.3028
 <0|del|b> * <b|rxdel|0> + <0|del|b> * <b|delr+rdel|0>
 Rotatory Strengths (R) in cgs (10**-40 erg-esu-cm/Gauss)
       state          XX          YY          ZZ    R(velocity)    E-M Angle
         1        39.8475      4.1786     -3.6639     13.4541       61.57
         2         1.0779      0.7310      3.4898      1.7662       58.94
         3        -1.0122     -1.9563     -6.5141     -3.1609      147.77
         4        -3.8965      6.4788      0.5289      1.0371       86.94
         5        23.2809     -9.0644     -1.5321      4.2282       72.13
         6        -3.2824     13.0362     -2.7096      2.3481       70.06
         7       -45.8293    -11.1728     16.4567    -13.5151      125.53
         8         1.6497     -9.7154     -9.6740     -5.9132      110.50
         9        -7.7671    -18.5959      4.1712     -7.3972      101.15
        10        35.1340     -0.1119     11.5348     15.5190       57.55
        11        -5.6303     39.6617     48.5307     27.5207       71.57
        12       -40.4560      4.9095    -51.7741    -29.1069      145.46
        13         1.0565      0.6012      2.2862      1.3146       54.34
        14         3.6512     -0.7996     -0.4170      0.8115       87.07
        15        -3.2243     -5.6948     -1.6046     -3.5079       95.74
 1/2[<0|r|b>*<b|rxdel|0> + (<0|rxdel|b>*<b|r|0>)*]
 Rotatory Strengths (R) in cgs (10**-40 erg-esu-cm/Gauss)
       state          XX          YY          ZZ     R(length)
         1       -36.5275     -1.8511      8.9487     -9.8100
         2        13.2293     24.3762      0.0030     12.5362
         3        -2.4436    -21.7640     -0.2455     -8.1510
         4         5.9140      0.0315     -0.6409      1.7682
         5       -10.2876     21.4649      0.3626      3.8466
         6        -2.6102      4.7353      1.3033      1.1428
         7       -24.5329    -20.3224     -0.0532    -14.9695
         8       -21.0328     -2.2518     -5.3154     -9.5334
         9       -13.1835     13.6943     -1.8687     -0.4526
        10        -3.1483     44.2600      0.7922     13.9680
        11       150.1189      0.3282      5.5843     52.0104
        12        10.0524    -96.7053      1.1542    -28.4996
        13         1.2490      3.1384      0.1664      1.5179
        14        -3.4257     -0.1479     -0.6488     -1.4075
        15        -3.8343     -0.6122     -1.0461     -1.8309
  1/2[<0|del|b>*<b|r|0> + (<0|r|b>*<b|del|0>)*] (Au)
       state          X           Y           Z        Dip. S.   Osc.(frdel)
         1        -0.0187     -0.0055     -0.0004      0.0246      0.0164
         2        -0.0002     -0.0001      0.0000      0.0003      0.0002
         3        -0.0024     -0.0053     -0.0002      0.0079      0.0053
         4        -0.0001      0.0000     -0.0040      0.0041      0.0027
         5        -0.0012     -0.0083      0.0000      0.0095      0.0064
         6        -0.0055     -0.0011     -0.0049      0.0115      0.0077
         7        -0.0594     -0.4498      0.0000      0.5092      0.3395
         8        -0.1505     -0.0120     -0.0003      0.1628      0.1085
         9        -0.0015     -0.0033     -0.0089      0.0138      0.0092
        10        -0.0002     -0.0017     -0.0014      0.0032      0.0022
        11        -0.0024     -0.0002      0.0050     -0.0023     -0.0015
        12        -0.0005     -0.0048     -0.0001      0.0054      0.0036
        13         0.0000     -0.0009     -0.0010      0.0019      0.0013
        14        -0.0001      0.0000      0.0025     -0.0024     -0.0016
        15         0.0000     -0.0001     -0.0101      0.0102      0.0068

 Excitation energies and oscillator strengths:
 
 Excited State   1:      Singlet-A      4.3379 eV  285.82 nm  f=0.0826  <S**2>=0.000
      12 -> 15        -0.22630
      13 -> 14         0.66205
 This state for optimization and/or second-order correction.
 Total Energy, E(CIS) =  0.178608009497    
 Copying the excited state density for this state as the 1-particle RhoCI density.
 
 Excited State   2:      Singlet-A      4.6462 eV  266.85 nm  f=0.0012  <S**2>=0.000
      13 -> 15         0.17137
      13 -> 16         0.66095
      13 -> 22         0.11633
 
 Excited State   3:      Singlet-A      4.8166 eV  257.41 nm  f=0.0128  <S**2>=0.000
      12 -> 14         0.38131
      13 -> 15         0.55957
      13 -> 16        -0.19009
 
 Excited State   4:      Singlet-A      5.7162 eV  216.90 nm  f=0.0010  <S**2>=0.000
      12 -> 18        -0.20803
      12 -> 21         0.12642
      13 -> 17         0.28323
      13 -> 18         0.49414
      13 -> 21        -0.13663
      13 -> 23        -0.20348
 
 Excited State   5:      Singlet-A      5.8381 eV  212.37 nm  f=0.0061  <S**2>=0.000
      12 -> 17         0.16377
      12 -> 19         0.20879
      12 -> 21         0.10943
      12 -> 23        -0.11996
      13 -> 17         0.26387
      13 -> 19         0.43197
      13 -> 21         0.25554
      13 -> 22         0.13065
      13 -> 23        -0.14585
 
 Excited State   6:      Singlet-A      5.9309 eV  209.05 nm  f=0.0074  <S**2>=0.000
       7 -> 16        -0.16024
      12 -> 15         0.17073
      12 -> 16         0.63034
      12 -> 22         0.11839
 
 Excited State   7:      Singlet-A      6.0492 eV  204.96 nm  f=0.3701  <S**2>=0.000
      12 -> 14         0.54689
      13 -> 15        -0.36597
 
 Excited State   8:      Singlet-A      6.1451 eV  201.76 nm  f=0.1513  <S**2>=0.000
      12 -> 15         0.62854
      12 -> 16        -0.17513
      13 -> 14         0.20538
 
 Excited State   9:      Singlet-A      6.4792 eV  191.36 nm  f=0.0054  <S**2>=0.000
      11 -> 14        -0.11219
      13 -> 17         0.45138
      13 -> 18        -0.36195
      13 -> 19        -0.30034
      13 -> 21        -0.10681
 
 Excited State  10:      Singlet-A      6.8857 eV  180.06 nm  f=0.0015  <S**2>=0.000
      11 -> 14        -0.15623
      12 -> 17         0.36035
      12 -> 18        -0.34678
      12 -> 19        -0.13519
      12 -> 20        -0.27383
      12 -> 21        -0.14849
      12 -> 23        -0.16007
      13 -> 18        -0.12228
      13 -> 21        -0.10566
      13 -> 22        -0.12809
 
 Excited State  11:      Singlet-A      6.8957 eV  179.80 nm  f=0.0043  <S**2>=0.000
       9 -> 14         0.25230
      10 -> 14        -0.11422
      10 -> 15         0.20869
      11 -> 14         0.49907
      11 -> 15         0.21149
      12 -> 18        -0.16765
      13 -> 17         0.10228
 
 Excited State  12:      Singlet-A      7.1746 eV  172.81 nm  f=0.0040  <S**2>=0.000
      10 -> 14         0.47480
      10 -> 15        -0.18749
      11 -> 15         0.40007
      13 -> 21        -0.10765
      13 -> 22        -0.11074
 
 Excited State  13:      Singlet-A      7.2882 eV  170.12 nm  f=0.0027  <S**2>=0.000
      10 -> 14        -0.20843
      12 -> 17        -0.18773
      12 -> 18        -0.13793
      12 -> 19        -0.14037
      12 -> 20         0.24758
      12 -> 23         0.11190
      13 -> 18        -0.13929
      13 -> 19         0.36168
      13 -> 21        -0.26806
      13 -> 22        -0.14683
 
 Excited State  14:      Singlet-A      7.4318 eV  166.83 nm  f=0.0004  <S**2>=0.000
      12 -> 17        -0.16348
      12 -> 18        -0.30306
      12 -> 19         0.29109
      12 -> 22         0.16974
      13 -> 17        -0.17039
      13 -> 18        -0.14972
      13 -> 20         0.33479
      13 -> 22         0.10306
      13 -> 24        -0.21089
 
 Excited State  15:      Singlet-A      7.4984 eV  165.35 nm  f=0.0032  <S**2>=0.000
      12 -> 17        -0.20215
      12 -> 18        -0.18715
      12 -> 19        -0.28817
      12 -> 22        -0.17224
      13 -> 17         0.17443
      13 -> 20         0.11868
      13 -> 21         0.12003
      13 -> 22         0.37289
      13 -> 23         0.19149
      13 -> 24         0.12509
 SavETr:  write IOETrn=   770 NScale= 10 NData=  16 NLR=1 NState=   15 LETran=     280.
 The selected state is a singlet
 CISAX will form     1 AO SS matrices at one time.
 NMat=     1 NSing=     1 JSym2X= 0.
 Leave Link  914 at Tue Dec 15 16:10:32 2015, MaxMem=    33554432 cpu:         0.1
 (Enter /home/Applications/g09/g09/l1002.exe)
 Minotr:  Closed shell wavefunction.
          Computing CIS/TD-HF/TD-KS derivatives.
          Using Z-Vector for PSCF gradient.
          Skipping F1 and S1 gradient terms here.
          IDoAtm=111111111
          Direct CPHF calculation.
          Differentiating once with respect to electric field.
                with respect to dipole field.
          Differentiating once with respect to nuclear coordinates.
          Electric field/nuclear overlap derivatives assumed to be zero.
          Requested convergence is 1.0D-10 RMS, and 1.0D-09 maximum.
          NewPWx=T KeepS1=F KeepF1=F KeepIn=T MapXYZ=F SortEE=F KeepMc=T.
          MDV=      33495423 using IRadAn=       0.
 Keep J ints in memory in canonical form, NReq=871704.
 FoFCou: FMM=F IPFlag=           0 FMFlag=           0 FMFlg1=           0
         NFxFlg=           0 DoJE=F BraDBF=F KetDBF=F FulRan=T
         wScrn=  0.000000 ICntrl=     600 IOpCl=  2 I1Cent=           0 NGrid=           0
         NMat0=    1 NMatS0=     54 NMatT0=    0 NMatD0=    1 NMtDS0=    0 NMtDT0=    0
 Symmetry not used in FoFCou.
          Solving linear equations separately, MaxMat=       0.
          There are     1 degrees of freedom in the 1st order CPHF.  IDoFFX=0 NUNeed=     1.
 LinEq1:  Iter=  0 NonCon=     1 RMS=1.25D-02 Max=8.76D-02 NDo=     1
 AX will form     1 AO Fock derivatives at one time.
 LinEq1:  Iter=  1 NonCon=     1 RMS=2.29D-03 Max=1.47D-02 NDo=     1
 LinEq1:  Iter=  2 NonCon=     1 RMS=3.59D-04 Max=2.62D-03 NDo=     1
 LinEq1:  Iter=  3 NonCon=     1 RMS=5.06D-05 Max=2.49D-04 NDo=     1
 LinEq1:  Iter=  4 NonCon=     1 RMS=6.10D-06 Max=3.80D-05 NDo=     1
 LinEq1:  Iter=  5 NonCon=     1 RMS=1.07D-06 Max=5.36D-06 NDo=     1
 LinEq1:  Iter=  6 NonCon=     1 RMS=1.72D-07 Max=1.05D-06 NDo=     1
 LinEq1:  Iter=  7 NonCon=     1 RMS=2.16D-08 Max=9.11D-08 NDo=     1
 LinEq1:  Iter=  8 NonCon=     1 RMS=2.59D-09 Max=9.93D-09 NDo=     1
 LinEq1:  Iter=  9 NonCon=     1 RMS=3.00D-10 Max=1.40D-09 NDo=     1
 LinEq1:  Iter= 10 NonCon=     0 RMS=3.62D-11 Max=1.38D-10 NDo=     1
 Linear equations converged to 1.000D-10 1.000D-09 after    10 iterations.
 End of Minotr F.D. properties file   721 does not exist.
 End of Minotr F.D. properties file   722 does not exist.
 End of Minotr F.D. properties file   788 does not exist.
 Leave Link 1002 at Tue Dec 15 16:10:32 2015, MaxMem=    33554432 cpu:         0.0
 (Enter /home/Applications/g09/g09/l601.exe)
 Copying SCF densities to generalized density rwf, IOpCl= 0 IROHF=0.

 **********************************************************************

            Population analysis using the SCF density.

 **********************************************************************

 Orbital symmetries:
       Occupied  (A) (A) (A) (A) (A) (A) (A) (A) (A) (A) (A) (A)
                 (A)
       Virtual   (A) (A) (A) (A) (A) (A) (A) (A) (A) (A) (A)
 The electronic state is 1-A.
 Alpha  occ. eigenvalues --   -1.58050  -1.22740  -1.09613  -0.83299  -0.81194
 Alpha  occ. eigenvalues --   -0.68974  -0.61521  -0.57900  -0.51187  -0.50220
 Alpha  occ. eigenvalues --   -0.48712  -0.38571  -0.33939
 Alpha virt. eigenvalues --    0.03126   0.05779   0.09244   0.14130   0.15009
 Alpha virt. eigenvalues --    0.15569   0.18009   0.18367   0.19190   0.20825
 Alpha virt. eigenvalues --    0.22974
     Molecular Orbital Coefficients:
                           1         2         3         4         5
                           O         O         O         O         O
     Eigenvalues --    -1.58050  -1.22740  -1.09613  -0.83299  -0.81194
   1 1   C  1S          0.24020  -0.49092  -0.28131   0.39249  -0.20418
   2        1PX         0.08932  -0.10650   0.08266  -0.17992  -0.09871
   3        1PY        -0.07718   0.00692   0.14727  -0.01270  -0.32845
   4        1PZ         0.00407  -0.00781  -0.00342   0.00180  -0.00091
   5 2   C  1S          0.36303  -0.12979  -0.51352  -0.12134   0.39275
   6        1PX         0.19367   0.12456   0.00464  -0.19974  -0.14915
   7        1PY         0.03238  -0.20766  -0.00024   0.29642  -0.00520
   8        1PZ        -0.00219  -0.00021   0.00164  -0.00314   0.00704
   9 3   O  1S          0.68088   0.53120   0.00787   0.04645  -0.30183
  10        1PX        -0.06993   0.00380   0.35963   0.47497  -0.01993
  11        1PY         0.18977  -0.04783   0.12008   0.13125   0.20100
  12        1PZ         0.00479   0.00132  -0.00041  -0.00432   0.00735
  13 4   C  1S          0.35285  -0.14980   0.52352   0.04213   0.39279
  14        1PX        -0.17063   0.03226  -0.00108   0.01002   0.12356
  15        1PY        -0.08418  -0.22729  -0.00401  -0.37369  -0.00054
  16        1PZ        -0.00443  -0.00156  -0.00645  -0.00995  -0.00376
  17 5   C  1S          0.24819  -0.49808   0.25767  -0.33952  -0.28663
  18        1PX        -0.02140   0.07576   0.17846  -0.21422   0.23074
  19        1PY        -0.11713   0.06676  -0.06509  -0.05700  -0.21274
  20        1PZ        -0.00382   0.00711  -0.00244   0.00011   0.00777
  21 6   H  1S          0.05373  -0.16108   0.10558  -0.21886  -0.19409
  22 7   H  1S          0.07634  -0.03726   0.21080   0.05134   0.24956
  23 8   H  1S          0.07470  -0.03404  -0.20237  -0.08197   0.24047
  24 9   H  1S          0.05173  -0.16007  -0.10786   0.25028  -0.15521
                           6         7         8         9        10
                           O         O         O         O         O
     Eigenvalues --    -0.68974  -0.61521  -0.57900  -0.51187  -0.50220
   1 1   C  1S         -0.08083  -0.01830  -0.17821   0.04349  -0.02922
   2        1PX         0.23438   0.00027   0.13630   0.47939   0.08685
   3        1PY        -0.13464   0.01153  -0.17407  -0.26319  -0.15670
   4        1PZ         0.00262   0.19275  -0.01390   0.01603   0.00136
   5 2   C  1S         -0.09714   0.00994   0.14951  -0.00096   0.10464
   6        1PX         0.30521  -0.04008  -0.40942  -0.04915   0.20396
   7        1PY         0.23063  -0.02095  -0.02111   0.20728   0.20821
   8        1PZ        -0.00655   0.39105  -0.02434   0.00699   0.00931
   9 3   O  1S         -0.18403  -0.00112   0.03208   0.11212  -0.09389
  10        1PX        -0.13769   0.04827   0.42368   0.11565  -0.08215
  11        1PY         0.47821  -0.00366   0.07854  -0.46088   0.27773
  12        1PZ         0.01102   0.78814  -0.08481   0.01573   0.04658
  13 4   C  1S         -0.10516  -0.00509  -0.16599  -0.04585  -0.06401
  14        1PX        -0.38891  -0.04408  -0.33057   0.25344   0.31215
  15        1PY        -0.02498  -0.02589  -0.17032   0.04968  -0.33949
  16        1PZ         0.01123   0.37252  -0.03502   0.00744  -0.00940
  17 5   C  1S         -0.07083   0.02309   0.18571   0.04116  -0.01231
  18        1PX        -0.11184  -0.00409   0.02779  -0.28154  -0.08250
  19        1PY        -0.25005   0.00451   0.16852  -0.18303   0.54086
  20        1PZ         0.00409   0.19335  -0.02160   0.00374  -0.01262
  21 6   H  1S         -0.20350   0.00978   0.22481  -0.18716   0.38318
  22 7   H  1S         -0.28359  -0.04526  -0.30905   0.16187   0.25323
  23 8   H  1S         -0.27507   0.04767   0.30378  -0.09183  -0.16390
  24 9   H  1S         -0.20568  -0.00425  -0.25442  -0.40216  -0.14784
                          11        12        13        14        15
                           O         O         O         V         V
     Eigenvalues --    -0.48712  -0.38571  -0.33939   0.03126   0.05779
   1 1   C  1S          0.02555  -0.01735   0.00887   0.01666   0.01475
   2        1PX        -0.32112  -0.01074   0.01442   0.01897  -0.00190
   3        1PY        -0.42934   0.00283   0.00604   0.01128  -0.00083
   4        1PZ        -0.00326   0.58799  -0.40196  -0.30624  -0.59831
   5 2   C  1S         -0.02967   0.00331   0.00665  -0.00693  -0.02380
   6        1PX         0.00202   0.00715  -0.00913   0.02182  -0.00432
   7        1PY         0.45256   0.01074  -0.03083   0.02453   0.02421
   8        1PZ        -0.01777   0.13410  -0.59926   0.57856   0.36097
   9 3   O  1S          0.15282   0.00072  -0.00987   0.00320   0.01827
  10        1PX         0.04724  -0.00684   0.00111  -0.00227  -0.00189
  11        1PY        -0.20815   0.01755   0.00175   0.00577   0.03359
  12        1PZ         0.01789  -0.45631   0.02636  -0.39872  -0.00415
  13 4   C  1S         -0.06232   0.00137   0.01970   0.01735  -0.04084
  14        1PX        -0.05883   0.01761   0.01334   0.02953  -0.00139
  15        1PY         0.26728  -0.01038  -0.03424  -0.00332   0.03562
  16        1PZ         0.03701   0.20101   0.60294   0.55879  -0.36968
  17 5   C  1S         -0.01564   0.01584   0.00844  -0.02390   0.02276
  18        1PX         0.47418  -0.01841  -0.01825   0.01519   0.00373
  19        1PY         0.03842   0.01627   0.01142   0.00072   0.01148
  20        1PZ         0.02449   0.62074   0.33348  -0.30846   0.60416
  21 6   H  1S          0.15362  -0.00112  -0.00127   0.01281  -0.02659
  22 7   H  1S         -0.13671   0.00846  -0.00544  -0.02427   0.04005
  23 8   H  1S         -0.29415  -0.00199   0.00265   0.01960   0.03183
  24 9   H  1S          0.02259   0.00480  -0.00800  -0.00700  -0.01607
                          16        17        18        19        20
                           V         V         V         V         V
     Eigenvalues --     0.09244   0.14130   0.15009   0.15569   0.18009
   1 1   C  1S          0.04420  -0.33570  -0.18173  -0.00501   0.21586
   2        1PX         0.00304  -0.14600   0.31945   0.20121   0.28682
   3        1PY         0.02967   0.00834   0.41614  -0.19204   0.31605
   4        1PZ         0.04291  -0.01975   0.00210   0.01094   0.01055
   5 2   C  1S         -0.31248   0.28861   0.32812  -0.16439   0.16873
   6        1PX        -0.27350  -0.18609   0.10777   0.39376  -0.14799
   7        1PY         0.24343  -0.02533   0.31068   0.00154  -0.10511
   8        1PZ        -0.04376   0.02111  -0.02364  -0.01792   0.00237
   9 3   O  1S          0.24844   0.01311   0.02391  -0.07593   0.01910
  10        1PX        -0.13844   0.07998   0.25630   0.13981   0.08728
  11        1PY         0.44195   0.05420   0.08230  -0.05752   0.04596
  12        1PZ         0.01935  -0.01259   0.01215  -0.00141   0.00066
  13 4   C  1S         -0.27691  -0.34891  -0.01456  -0.32542  -0.15151
  14        1PX         0.13310  -0.14507   0.31484   0.04087  -0.17386
  15        1PY         0.39100  -0.06385   0.14786  -0.30043   0.13579
  16        1PZ         0.05031   0.04207  -0.01514   0.00389   0.00803
  17 5   C  1S          0.02460   0.35219   0.01205   0.10325  -0.41141
  18        1PX         0.00183  -0.08289   0.27345   0.34051   0.25513
  19        1PY         0.03380  -0.10627   0.15663  -0.32930  -0.23189
  20        1PZ        -0.04601  -0.03453   0.00651   0.00221   0.02833
  21 6   H  1S         -0.10190  -0.21083  -0.26902   0.10275   0.43721
  22 7   H  1S          0.28289   0.44922  -0.26606   0.18942   0.26037
  23 8   H  1S          0.36251  -0.39357   0.00309   0.38335  -0.25050
  24 9   H  1S         -0.09807   0.20898   0.19522   0.29186  -0.13160
                          21        22        23        24
                           V         V         V         V
     Eigenvalues --     0.18367   0.19190   0.20825   0.22974
   1 1   C  1S          0.40923  -0.09277   0.10491   0.04632
   2        1PX        -0.10155   0.17463   0.44447  -0.18046
   3        1PY         0.00438  -0.28782  -0.33310  -0.18074
   4        1PZ         0.02197  -0.01260   0.01014   0.00276
   5 2   C  1S         -0.02279  -0.05452  -0.11646   0.11462
   6        1PX        -0.03353  -0.30778  -0.08032   0.42128
   7        1PY        -0.35893  -0.23634  -0.27015  -0.30878
   8        1PZ         0.00870   0.01729   0.01257  -0.00453
   9 3   O  1S          0.00760   0.10934  -0.00357  -0.01454
  10        1PX         0.04088  -0.07679  -0.01441   0.53886
  11        1PY         0.14782   0.25271  -0.00802   0.15561
  12        1PZ        -0.00074   0.00778  -0.00465   0.00085
  13 4   C  1S         -0.15923  -0.00733   0.08833  -0.10566
  14        1PX         0.22822   0.46944  -0.26950   0.10314
  15        1PY        -0.19174   0.00562   0.15226   0.48173
  16        1PZ        -0.00110  -0.01880   0.01240   0.01480
  17 5   C  1S          0.23618   0.01654  -0.13879  -0.05405
  18        1PX         0.42414  -0.08436   0.14964  -0.25613
  19        1PY         0.03828  -0.29566   0.47009   0.03243
  20        1PZ        -0.01100   0.01484  -0.00104  -0.00691
  21 6   H  1S         -0.33870   0.23353  -0.27117   0.06613
  22 7   H  1S         -0.08249  -0.33186   0.14184   0.02804
  23 8   H  1S         -0.18534  -0.23625  -0.09007   0.00259
  24 9   H  1S         -0.40030   0.32549   0.34458  -0.05438
     Density Matrix:
                           1         2         3         4         5
   1 1   C  1S          1.23195
   2        1PX        -0.06560   0.96516
   3        1PY         0.04515  -0.03577   0.92499
   4        1PZ        -0.01558  -0.00763  -0.00021   1.09005
   5 2   C  1S          0.28945   0.00538  -0.49638   0.00550   1.25019
   6        1PX        -0.04620   0.12818   0.09581   0.01140  -0.10510
   7        1PY         0.45346  -0.01019  -0.63057   0.03999  -0.03392
   8        1PZ        -0.02782  -0.01027   0.01770   0.79116   0.00074
   9 3   O  1S          0.00205  -0.03213  -0.02090   0.00675   0.11628
  10        1PX         0.02834  -0.00339  -0.06723  -0.00100  -0.41788
  11        1PY        -0.08119  -0.03769   0.04825   0.00707   0.15491
  12        1PZ         0.01031   0.00532  -0.00133  -0.25106   0.00451
  13 4   C  1S         -0.03208  -0.02028   0.02251  -0.01229   0.01706
  14        1PX         0.02709  -0.00297  -0.01662   0.00742   0.00792
  15        1PY        -0.00487  -0.07462  -0.06580   0.01042  -0.04185
  16        1PZ         0.00059  -0.00648  -0.00509  -0.10371   0.00320
  17 5   C  1S          0.26134   0.43650   0.17837   0.02393  -0.02966
  18        1PX        -0.43425  -0.59271  -0.30230  -0.02602  -0.00052
  19        1PY        -0.10879  -0.16090   0.04388  -0.00032   0.02179
  20        1PZ        -0.02388  -0.02609  -0.00577   0.53684   0.00501
  21 6   H  1S         -0.04637  -0.06724  -0.02312  -0.00800   0.05141
  22 7   H  1S          0.04261   0.05812   0.02027   0.01024   0.05474
  23 8   H  1S         -0.05825  -0.00442   0.09423   0.00433   0.60828
  24 9   H  1S          0.60114  -0.62580   0.43605   0.00783  -0.06055
                           6         7         8         9        10
   6        1PX         0.84346
   7        1PY         0.07079   0.95666
   8        1PZ        -0.00125   0.01016   1.06233
   9 3   O  1S          0.28058  -0.08572  -0.00133   1.83764
  10        1PX        -0.68625   0.24836   0.01239   0.10415   1.16685
  11        1PY         0.33618   0.06170  -0.00262  -0.28974  -0.06150
  12        1PZ         0.02523   0.00345   0.46698  -0.00910  -0.00019
  13 4   C  1S          0.02015  -0.03883  -0.01188   0.10677   0.23228
  14        1PX         0.04008  -0.00203  -0.01071  -0.16972  -0.14777
  15        1PY         0.04466  -0.01279   0.01430  -0.23499  -0.39515
  16        1PZ        -0.00395  -0.01463  -0.37720  -0.01052  -0.00479
  17 5   C  1S         -0.01063  -0.01936   0.00304  -0.00109   0.02470
  18        1PX        -0.06572   0.06393  -0.00323   0.03554  -0.03336
  19        1PY         0.00470  -0.00574  -0.00694   0.00530   0.00873
  20        1PZ        -0.00004   0.00272  -0.08191  -0.00068  -0.00463
  21 6   H  1S         -0.00677   0.05991  -0.00152   0.02289   0.02280
  22 7   H  1S          0.09792  -0.01838   0.00754  -0.04646  -0.02589
  23 8   H  1S         -0.49998  -0.54649   0.03143  -0.04955   0.07198
  24 9   H  1S         -0.01188  -0.07133   0.00918   0.01967  -0.06813
                          11        12        13        14        15
  11        1PY         1.35680
  12        1PZ        -0.01713   1.68048
  13 4   C  1S          0.34909   0.01594   1.25236
  14        1PX        -0.47445  -0.00222   0.10339   0.94723
  15        1PY        -0.50606  -0.02348   0.03885  -0.07872   0.83830
  16        1PZ        -0.02302   0.44239   0.01247  -0.00141  -0.01753
  17 5   C  1S         -0.07705  -0.01151   0.29352  -0.24895   0.37889
  18        1PX        -0.02298   0.00774   0.30311  -0.11762   0.40706
  19        1PY         0.07408   0.00124  -0.40289   0.31462  -0.37842
  20        1PZ         0.00184  -0.24048   0.01613   0.01964  -0.01922
  21 6   H  1S          0.08765   0.00810  -0.05722   0.05368  -0.03635
  22 7   H  1S         -0.07384  -0.00570   0.61842   0.71907  -0.14320
  23 8   H  1S         -0.04155  -0.00415   0.05570  -0.07482  -0.08191
  24 9   H  1S          0.05501  -0.00277   0.05114  -0.03137   0.04814
                          16        17        18        19        20
  16        1PZ         1.09152
  17 5   C  1S          0.02378   1.23194
  18        1PX        -0.00427   0.00816   0.92412
  19        1PY         0.00060   0.07182   0.03264   0.97953
  20        1PZ         0.79943   0.01071  -0.01161   0.00594   1.07060
  21 6   H  1S         -0.00915   0.58449   0.26105   0.73206  -0.01966
  22 7   H  1S         -0.04025  -0.05945  -0.05657   0.07923  -0.00972
  23 8   H  1S         -0.00773   0.04416  -0.05670  -0.01458  -0.00495
  24 9   H  1S         -0.00160  -0.04714   0.06046   0.02413   0.00562
                          21        22        23        24
  21 6   H  1S          0.84611
  22 7   H  1S          0.01242   0.80735
  23 8   H  1S         -0.01335  -0.02821   0.80857
  24 9   H  1S         -0.00153  -0.01420   0.01376   0.83582
    Full Mulliken population analysis:
                           1         2         3         4         5
   1 1   C  1S          1.23195
   2        1PX         0.00000   0.96516
   3        1PY         0.00000   0.00000   0.92499
   4        1PZ         0.00000   0.00000   0.00000   1.09005
   5 2   C  1S          0.00000   0.00000   0.00000   0.00000   1.25019
   6        1PX         0.00000   0.00000   0.00000   0.00000   0.00000
   7        1PY         0.00000   0.00000   0.00000   0.00000   0.00000
   8        1PZ         0.00000   0.00000   0.00000   0.00000   0.00000
   9 3   O  1S          0.00000   0.00000   0.00000   0.00000   0.00000
  10        1PX         0.00000   0.00000   0.00000   0.00000   0.00000
  11        1PY         0.00000   0.00000   0.00000   0.00000   0.00000
  12        1PZ         0.00000   0.00000   0.00000   0.00000   0.00000
  13 4   C  1S          0.00000   0.00000   0.00000   0.00000   0.00000
  14        1PX         0.00000   0.00000   0.00000   0.00000   0.00000
  15        1PY         0.00000   0.00000   0.00000   0.00000   0.00000
  16        1PZ         0.00000   0.00000   0.00000   0.00000   0.00000
  17 5   C  1S          0.00000   0.00000   0.00000   0.00000   0.00000
  18        1PX         0.00000   0.00000   0.00000   0.00000   0.00000
  19        1PY         0.00000   0.00000   0.00000   0.00000   0.00000
  20        1PZ         0.00000   0.00000   0.00000   0.00000   0.00000
  21 6   H  1S          0.00000   0.00000   0.00000   0.00000   0.00000
  22 7   H  1S          0.00000   0.00000   0.00000   0.00000   0.00000
  23 8   H  1S          0.00000   0.00000   0.00000   0.00000   0.00000
  24 9   H  1S          0.00000   0.00000   0.00000   0.00000   0.00000
                           6         7         8         9        10
   6        1PX         0.84346
   7        1PY         0.00000   0.95666
   8        1PZ         0.00000   0.00000   1.06233
   9 3   O  1S          0.00000   0.00000   0.00000   1.83764
  10        1PX         0.00000   0.00000   0.00000   0.00000   1.16685
  11        1PY         0.00000   0.00000   0.00000   0.00000   0.00000
  12        1PZ         0.00000   0.00000   0.00000   0.00000   0.00000
  13 4   C  1S          0.00000   0.00000   0.00000   0.00000   0.00000
  14        1PX         0.00000   0.00000   0.00000   0.00000   0.00000
  15        1PY         0.00000   0.00000   0.00000   0.00000   0.00000
  16        1PZ         0.00000   0.00000   0.00000   0.00000   0.00000
  17 5   C  1S          0.00000   0.00000   0.00000   0.00000   0.00000
  18        1PX         0.00000   0.00000   0.00000   0.00000   0.00000
  19        1PY         0.00000   0.00000   0.00000   0.00000   0.00000
  20        1PZ         0.00000   0.00000   0.00000   0.00000   0.00000
  21 6   H  1S          0.00000   0.00000   0.00000   0.00000   0.00000
  22 7   H  1S          0.00000   0.00000   0.00000   0.00000   0.00000
  23 8   H  1S          0.00000   0.00000   0.00000   0.00000   0.00000
  24 9   H  1S          0.00000   0.00000   0.00000   0.00000   0.00000
                          11        12        13        14        15
  11        1PY         1.35680
  12        1PZ         0.00000   1.68048
  13 4   C  1S          0.00000   0.00000   1.25236
  14        1PX         0.00000   0.00000   0.00000   0.94723
  15        1PY         0.00000   0.00000   0.00000   0.00000   0.83830
  16        1PZ         0.00000   0.00000   0.00000   0.00000   0.00000
  17 5   C  1S          0.00000   0.00000   0.00000   0.00000   0.00000
  18        1PX         0.00000   0.00000   0.00000   0.00000   0.00000
  19        1PY         0.00000   0.00000   0.00000   0.00000   0.00000
  20        1PZ         0.00000   0.00000   0.00000   0.00000   0.00000
  21 6   H  1S          0.00000   0.00000   0.00000   0.00000   0.00000
  22 7   H  1S          0.00000   0.00000   0.00000   0.00000   0.00000
  23 8   H  1S          0.00000   0.00000   0.00000   0.00000   0.00000
  24 9   H  1S          0.00000   0.00000   0.00000   0.00000   0.00000
                          16        17        18        19        20
  16        1PZ         1.09152
  17 5   C  1S          0.00000   1.23194
  18        1PX         0.00000   0.00000   0.92412
  19        1PY         0.00000   0.00000   0.00000   0.97953
  20        1PZ         0.00000   0.00000   0.00000   0.00000   1.07060
  21 6   H  1S          0.00000   0.00000   0.00000   0.00000   0.00000
  22 7   H  1S          0.00000   0.00000   0.00000   0.00000   0.00000
  23 8   H  1S          0.00000   0.00000   0.00000   0.00000   0.00000
  24 9   H  1S          0.00000   0.00000   0.00000   0.00000   0.00000
                          21        22        23        24
  21 6   H  1S          0.84611
  22 7   H  1S          0.00000   0.80735
  23 8   H  1S          0.00000   0.00000   0.80857
  24 9   H  1S          0.00000   0.00000   0.00000   0.83582
     Gross orbital populations:
                           1
   1 1   C  1S          1.23195
   2        1PX         0.96516
   3        1PY         0.92499
   4        1PZ         1.09005
   5 2   C  1S          1.25019
   6        1PX         0.84346
   7        1PY         0.95666
   8        1PZ         1.06233
   9 3   O  1S          1.83764
  10        1PX         1.16685
  11        1PY         1.35680
  12        1PZ         1.68048
  13 4   C  1S          1.25236
  14        1PX         0.94723
  15        1PY         0.83830
  16        1PZ         1.09152
  17 5   C  1S          1.23194
  18        1PX         0.92412
  19        1PY         0.97953
  20        1PZ         1.07060
  21 6   H  1S          0.84611
  22 7   H  1S          0.80735
  23 8   H  1S          0.80857
  24 9   H  1S          0.83582
          Condensed to atoms (all electrons):
               1          2          3          4          5          6
     1  C    4.212150   0.000000   0.000000   0.000000   0.000000   0.000000
     2  C    0.000000   4.112641   0.000000   0.000000   0.000000   0.000000
     3  O    0.000000   0.000000   6.041773   0.000000   0.000000   0.000000
     4  C    0.000000   0.000000   0.000000   4.129413   0.000000   0.000000
     5  C    0.000000   0.000000   0.000000   0.000000   4.206182   0.000000
     6  H    0.000000   0.000000   0.000000   0.000000   0.000000   0.846108
     7  H    0.000000   0.000000   0.000000   0.000000   0.000000   0.000000
     8  H    0.000000   0.000000   0.000000   0.000000   0.000000   0.000000
     9  H    0.000000   0.000000   0.000000   0.000000   0.000000   0.000000
               7          8          9
     1  C    0.000000   0.000000   0.000000
     2  C    0.000000   0.000000   0.000000
     3  O    0.000000   0.000000   0.000000
     4  C    0.000000   0.000000   0.000000
     5  C    0.000000   0.000000   0.000000
     6  H    0.000000   0.000000   0.000000
     7  H    0.807350   0.000000   0.000000
     8  H    0.000000   0.808569   0.000000
     9  H    0.000000   0.000000   0.835815
 Mulliken charges:
               1
     1  C   -0.212150
     2  C   -0.112641
     3  O   -0.041773
     4  C   -0.129413
     5  C   -0.206182
     6  H    0.153892
     7  H    0.192650
     8  H    0.191431
     9  H    0.164185
 Sum of Mulliken charges =   0.00000
 Mulliken charges with hydrogens summed into heavy atoms:
               1
     1  C   -0.047965
     2  C    0.078790
     3  O   -0.041773
     4  C    0.063237
     5  C   -0.052290
 Charge=              0.0000 electrons
 Dipole moment (field-independent basis, Debye):
    X=             -0.0840    Y=              0.1272    Z=             -0.0377  Tot=              0.1570
 N-N= 1.034099735062D+02 E-N=-1.708957016116D+02  KE=-1.656744203355D+01
 Orbital energies and kinetic energies (alpha):
                                 1                 2
   1         O                -1.580503         -1.311960
   2         O                -1.227401         -1.054046
   3         O                -1.096133         -0.955304
   4         O                -0.832993         -0.710834
   5         O                -0.811942         -0.726151
   6         O                -0.689739         -0.603698
   7         O                -0.615211         -0.492989
   8         O                -0.578998         -0.516878
   9         O                -0.511871         -0.433821
  10         O                -0.502195         -0.427491
  11         O                -0.487122         -0.401356
  12         O                -0.385712         -0.339978
  13         O                -0.339389         -0.309215
  14         V                 0.031256         -0.190316
  15         V                 0.057786         -0.196834
  16         V                 0.092443         -0.194315
  17         V                 0.141296         -0.248113
  18         V                 0.150089         -0.157754
  19         V                 0.155687         -0.173304
  20         V                 0.180092         -0.190703
  21         V                 0.183668         -0.175751
  22         V                 0.191899         -0.147760
  23         V                 0.208255         -0.133570
  24         V                 0.229742         -0.032069
 Total kinetic energy from orbitals=-1.656744203355D+01
 Leave Link  601 at Tue Dec 15 16:10:32 2015, MaxMem=    33554432 cpu:         0.0
 (Enter /home/Applications/g09/g09/l701.exe)
 Compute integral first derivatives.
 ... and contract with generalized density number  6.
 Leave Link  701 at Tue Dec 15 16:10:32 2015, MaxMem=    33554432 cpu:         0.0
 (Enter /home/Applications/g09/g09/l702.exe)
 L702 exits ... SP integral derivatives will be done elsewhere.
 Leave Link  702 at Tue Dec 15 16:10:32 2015, MaxMem=    33554432 cpu:         0.0
 (Enter /home/Applications/g09/g09/l703.exe)
 Compute integral first derivatives, UseDBF=F ICtDFT=           0.
 Integral derivatives from FoFJK, PRISM(SPDF).
 Calling FoFJK, ICntrl=  10005127 FMM=F ISym2X=0 I1Cent= 0 IOpClX= 0 NMat=1 NMatS=1 NMatT=0.
 FoFJK:  IHMeth= 8 ICntrl=10005127 DoSepK=F KAlg= 0 I1Cent=   0 FoldK=F
 IRaf=         0 NMat=   1 IRICut=       1 DoRegI=T DoRafI=F ISym2E= 0.
 FoFCou: FMM=F IPFlag=           0 FMFlag=      100000 FMFlg1=         800
         NFxFlg=           0 DoJE=F BraDBF=F KetDBF=F FulRan=T
         wScrn=  0.000000 ICntrl=10005127 IOpCl=  0 I1Cent=           0 NGrid=           0
         NMat0=    1 NMatS0=      1 NMatT0=    0 NMatD0=    1 NMtDS0=    0 NMtDT0=    0
 Symmetry not used in FoFCou.
 Leave Link  703 at Tue Dec 15 16:10:32 2015, MaxMem=    33554432 cpu:         0.0
 (Enter /home/Applications/g09/g09/l716.exe)
 Dipole        =-7.99108107D-02 1.53413185D-01-7.27966175D-04
 ***** Axes restored to original set *****
 -------------------------------------------------------------------
 Center     Atomic                   Forces (Hartrees/Bohr)
 Number     Number              X              Y              Z
 -------------------------------------------------------------------
      1        6           0.009665826    0.069622880   -0.009495522
      2        6           0.038950468   -0.098087587    0.001152056
      3        8          -0.140737339    0.007716588    0.004683683
      4        6           0.029847429    0.051214755   -0.001269746
      5        6           0.042337679   -0.038841529    0.007872941
      6        1           0.018202429    0.008280167   -0.002926427
      7        1          -0.010220358    0.013574635   -0.001698399
      8        1          -0.007579754    0.003927401   -0.000219468
      9        1           0.019533619   -0.017407309    0.001900881
 -------------------------------------------------------------------
 Cartesian Forces:  Max     0.140737339 RMS     0.040551202
 Z-matrix is all fixed cartesians, so copy forces.
 Force constants in Cartesian coordinates: 
                1             2             3             4             5 
      1  0.869586D+00
      2 -0.778916D-01  0.747957D+00
      3 -0.486393D-02 -0.176706D-01  0.181806D+00
      4 -0.427311D+00 -0.738935D-01 -0.558264D-03  0.869133D+00
      5 -0.515609D-01 -0.190403D+00  0.375200D-04 -0.651781D-01  0.935519D+00
      6 -0.469410D-02 -0.914271D-03 -0.864746D-01  0.371271D-02  0.104363D-01
      7 -0.731443D-02  0.297517D-01  0.287413D-03 -0.322750D+00  0.205402D+00
      8 -0.523620D-02  0.212870D-01  0.783961D-04  0.250735D+00 -0.447604D+00
      9 -0.290696D-03  0.281246D-03  0.936730D-02  0.139818D-02 -0.906761D-03
     10  0.960300D-02  0.200714D-03 -0.227023D-03  0.263029D-01  0.188310D-01
     11  0.330940D-01  0.676939D-03 -0.358300D-03 -0.182820D-01 -0.131025D-01
     12 -0.280151D-02  0.150374D-03 -0.174178D-02 -0.248597D-03 -0.341327D-03
     13 -0.161805D+00  0.142734D-01 -0.269361D-03  0.812873D-02 -0.331611D-01
     14 -0.571165D-02 -0.378773D+00  0.218049D-01  0.163936D-03 -0.705465D-03
     15  0.150978D-03  0.212044D-01 -0.736313D-01 -0.162148D-03 -0.271462D-03
     16  0.184315D-01  0.410853D-03  0.436165D-03  0.487960D-05 -0.157442D-04
     17 -0.222017D-01 -0.528175D-03 -0.107359D-02 -0.378493D-05  0.122122D-04
     18  0.290608D-02  0.109513D-02  0.170401D-01 -0.640190D-04  0.206560D-03
     19  0.000000D+00 -0.118499D-05 -0.192828D-04  0.281163D-04  0.168810D-04
     20 -0.143495D-04 -0.247917D-04 -0.403424D-03 -0.416516D-05 -0.250075D-05
     21  0.198310D-03  0.342622D-03  0.557533D-02  0.262139D-03  0.157388D-03
     22  0.637316D-02 -0.259292D-01 -0.106447D-02 -0.149366D+00 -0.912995D-01
     23 -0.281169D-02  0.114519D-01 -0.323992D-03 -0.876151D-01 -0.307817D+00
     24  0.443845D-04 -0.524322D-03  0.217622D-01 -0.419635D-02 -0.956703D-02
     25 -0.307562D+00  0.133079D+00  0.627876D-02 -0.417070D-02  0.169659D-01
     26  0.132334D+00 -0.211645D+00 -0.209091D-02 -0.592231D-02  0.241025D-01
     27  0.935048D-02 -0.396455D-02 -0.737029D-01 -0.143650D-03  0.248772D-03
                6             7             8             9            10 
      6  0.170524D+00
      7  0.349635D-02  0.584975D+00
      8 -0.310179D-02 -0.276369D-01  0.833254D+00
      9 -0.499466D-01 -0.210072D-01 -0.168444D-01  0.627375D-01
     10 -0.231442D-02 -0.292179D+00 -0.224541D+00  0.208909D-01  0.872282D+00
     11  0.148601D-02 -0.179576D+00 -0.411895D+00  0.193003D-01  0.332478D-02
     12 -0.106597D-02  0.170277D-01  0.190941D-01 -0.501313D-01 -0.342567D-01
     13  0.258183D-02 -0.853362D-02  0.595624D-02  0.567380D-03 -0.439766D+00
     14  0.115808D-03 -0.293811D-01  0.204661D-01  0.797559D-03  0.899866D-01
     15 -0.531022D-03  0.204504D-02 -0.666317D-03  0.922416D-02  0.287067D-02
     16 -0.261005D-03  0.000000D+00  0.125710D-05  0.326160D-04 -0.544367D-02
     17  0.202452D-03 -0.612513D-05 -0.817246D-05 -0.212038D-03  0.652018D-02
     18  0.342430D-02  0.154635D-03  0.206322D-03  0.535312D-02  0.286809D-03
     19  0.621253D-03  0.226167D-01 -0.158652D-01 -0.267651D-02 -0.170800D+00
     20 -0.920326D-04  0.116599D-01 -0.819466D-02 -0.164340D-02  0.105677D+00
     21  0.579219D-02 -0.176297D-02  0.145547D-02  0.394183D-02  0.123325D-01
     22 -0.400357D-02  0.231837D-01  0.165869D-01  0.106676D-02 -0.793941D-05
     23 -0.863967D-02 -0.102139D-01 -0.730690D-02 -0.606356D-03 -0.721624D-05
     24 -0.630042D-01 -0.228273D-03 -0.182841D-03  0.373053D-02  0.293975D-03
     25  0.860952D-03  0.000000D+00  0.000000D+00  0.186233D-04  0.831499D-05
     26  0.507152D-03  0.000000D+00  0.112991D-05 -0.166192D-03  0.766376D-05
     27  0.212821D-01 -0.126404D-04 -0.389128D-04  0.572344D-02  0.123376D-03
               11            12            13            14            15 
     11  0.924892D+00
     12 -0.147661D-02  0.181128D+00
     13  0.687785D-01  0.102070D-01  0.849658D+00
     14 -0.201363D+00 -0.162430D-02  0.504670D-01  0.772780D+00
     15  0.857107D-03 -0.887512D-01 -0.830267D-03 -0.167422D-01  0.179659D+00
     16 -0.186099D-01 -0.899482D-03 -0.271995D+00 -0.131606D+00 -0.614754D-02
     17  0.223316D-01  0.392223D-03 -0.134075D+00 -0.226014D+00 -0.273872D-02
     18 -0.302737D-03  0.212577D-01 -0.940993D-02 -0.490606D-02 -0.709694D-01
     19  0.111261D+00  0.109133D-01  0.755089D-02  0.257478D-01  0.233737D-02
     20 -0.321549D+00 -0.162504D-01  0.383503D-02  0.131791D-01 -0.498229D-03
     21 -0.198955D-01 -0.706599D-01  0.230081D-03 -0.659817D-03  0.239449D-01
     22 -0.476680D-05 -0.175428D-03  0.000000D+00  0.155204D-05  0.257294D-04
     23 -0.433262D-05 -0.159449D-03  0.329259D-05 -0.106237D-04 -0.176117D-03
     24  0.176502D-03  0.649562D-02 -0.845008D-04  0.272645D-03  0.451985D-02
     25  0.143659D-04  0.233770D-03  0.167625D-01  0.331970D-03 -0.289830D-03
     26  0.132408D-04  0.215461D-03  0.239225D-01  0.440085D-03 -0.968459D-03
     27  0.213159D-03  0.346863D-02 -0.299225D-02  0.941436D-03  0.165345D-01
               16            17            18            19            20 
     16  0.258973D+00
     17  0.149790D+00  0.204252D+00
     18  0.646993D-02  0.340966D-02  0.382276D-01
     19  0.000000D+00 -0.120361D-05  0.303865D-04  0.140605D+00
     20  0.387342D-05 -0.251813D-04  0.635728D-03 -0.121158D+00  0.316617D+00
     21 -0.535308D-04  0.348006D-03 -0.878577D-02 -0.112065D-01  0.182518D-01
     22  0.000000D+00  0.000000D+00  0.000000D+00  0.000000D+00  0.000000D+00
     23  0.000000D+00  0.000000D+00  0.000000D+00  0.000000D+00  0.000000D+00
     24  0.000000D+00  0.000000D+00  0.000000D+00  0.000000D+00  0.000000D+00
     25  0.284981D-04 -0.221050D-04 -0.373887D-03  0.000000D+00  0.000000D+00
     26  0.262662D-04 -0.203737D-04 -0.344605D-03  0.000000D+00  0.000000D+00
     27  0.422850D-03 -0.327989D-03 -0.554767D-02  0.000000D+00  0.000000D+00
               21            22            23            24            25 
     21  0.401914D-01
     22  0.000000D+00  0.119818D+00
     23  0.000000D+00  0.100644D+00  0.303696D+00
     24  0.000000D+00  0.419716D-02  0.958950D-02  0.346081D-01
     25  0.000000D+00  0.000000D+00  0.102850D-05 -0.263954D-04  0.294933D+00
     26  0.000000D+00  0.134087D-05 -0.917820D-05  0.235549D-03 -0.150370D+00
     27  0.000000D+00 -0.461780D-04  0.316086D-03 -0.811203D-02 -0.670199D-02
               26            27 
     26  0.187117D+00
     27  0.261200D-02  0.403539D-01
 Leave Link  716 at Tue Dec 15 16:10:32 2015, MaxMem=    33554432 cpu:         0.0
 (Enter /home/Applications/g09/g09/l103.exe)

 GradGradGradGradGradGradGradGradGradGradGradGradGradGradGradGradGradGrad
 Berny optimization.
 Search for a local minimum.
 Step number   1 out of a maximum of    2
 All quantities printed in internal units (Hartrees-Bohrs-Radians)
 Second derivative matrix not updated -- first step.
 ITU=  0
     Eigenvalues ---    0.01552   0.03160   0.07211   0.07488   0.07849
     Eigenvalues ---    0.08363   0.12826   0.13135   0.16421   0.24969
     Eigenvalues ---    0.26344   0.27841   0.34332   0.44117   0.63716
     Eigenvalues ---    0.86099   1.14258   1.34493   1.40091   1.43965
     Eigenvalues ---    1.67821
 Quadratic step=3.839D-01 exceeds max=3.000D-01 adjusted using Lamda=-5.781D-02.
 Angle between NR and scaled steps=  11.00 degrees.
 Angle between quadratic step and forces=  39.54 degrees.
 Linear search not attempted -- first point.
 TrRot= -0.015290 -0.001665  0.002452  1.653755 -0.001629 -1.652394
 Variable       Old X    -DE/DX   Delta X   Delta X   Delta X     New X
                                 (Linear)    (Quad)   (Total)
    X1        1.86787   0.00967   0.00000   0.04492   0.03139   1.89926
    Y1       -1.36005   0.06962   0.00000   0.06736   0.06823  -1.29183
    Z1        0.07211  -0.00950   0.00000  -0.02442  -0.02432   0.04779
    X2       -0.71637   0.03895   0.00000  -0.00509  -0.01757  -0.73394
    Y2       -1.99483  -0.09809   0.00000  -0.06812  -0.07086  -2.06569
    Z2        0.06209   0.00115   0.00000   0.00266   0.00186   0.06395
    X3       -2.16728  -0.14074   0.00000  -0.19211  -0.20741  -2.37469
    Y3        0.03244   0.00772   0.00000  -0.01964  -0.02464   0.00780
    Z3        0.07267   0.00468   0.00000   0.00368   0.00647   0.07913
    X4       -0.72036   0.02985   0.00000   0.00784  -0.01036  -0.73073
    Y4        2.11571   0.05121   0.00000   0.02083   0.01825   2.13396
    Z4       -0.04943  -0.00127   0.00000   0.01292   0.01893  -0.03049
    X5        1.81078   0.04234   0.00000   0.09271   0.07554   1.88632
    Y5        1.37747  -0.03884   0.00000  -0.00148  -0.00044   1.37703
    Z5       -0.09409   0.00787   0.00000   0.02566   0.03010  -0.06399
    X6        3.35032   0.01820   0.00000   0.13794   0.11901   3.46934
    Y6        2.66100   0.00828   0.00000   0.00071   0.00390   2.66491
    Z6       -0.05263  -0.00293   0.00000  -0.01769  -0.01138  -0.06401
    X7       -1.63231  -0.01022   0.00000  -0.00255  -0.02323  -1.65554
    Y7        3.90370   0.01357   0.00000   0.05825   0.05427   3.95797
    Z7        0.07680  -0.00170   0.00000  -0.02984  -0.02074   0.05606
    X8       -1.54673  -0.00758   0.00000  -0.01633  -0.02627  -1.57300
    Y8       -3.87806   0.00393   0.00000  -0.05106  -0.05484  -3.93290
    Z8       -0.00657  -0.00022   0.00000   0.00352  -0.00020  -0.00676
    X9        3.48793   0.01953   0.00000   0.07078   0.05889   3.54682
    Y9       -2.50002  -0.01741   0.00000   0.00301   0.00614  -2.49388
    Z9        0.03374   0.00190   0.00000   0.00136  -0.00071   0.03302
         Item               Value     Threshold  Converged?
 Maximum Force            0.140737     0.000450     NO 
 RMS     Force            0.040551     0.000300     NO 
 Maximum Displacement     0.207409     0.001800     NO 
 RMS     Displacement     0.057113     0.001200     NO 
 Predicted change in Energy=-2.707033D-02
 GradGradGradGradGradGradGradGradGradGradGradGradGradGradGradGradGradGrad

 Leave Link  103 at Tue Dec 15 16:10:32 2015, MaxMem=    33554432 cpu:         0.0
 (Enter /home/Applications/g09/g09/l9999.exe)
 1\1\GINC-DUSTIN-DESKTOP\Force\RAM1-FC\STO-3G\C4H4O1\DUSTIN\15-Dec-2015
 \0\\#P AM1(Input,print) CIS(Singlets,NStates=15) pop(full) force\\AM1-
 Reparam Input\\0,1\C,0.988436,-0.719709,0.038159\C,-0.379087,-1.055616
 ,0.032855\O,-1.146877,0.017168,0.038453\C,-0.381199,1.119586,-0.026155
 \C,0.958226,0.728928,-0.04979\H,1.772915,1.408143,-0.02785\H,-0.863781
 ,2.065747,0.040639\H,-0.818496,-2.052182,-0.003475\H,1.845733,-1.32295
 6,0.017853\\Version=ES64L-G09RevD.01\State=1-A\HF=0.0191929\RMSD=5.389
 e-09\RMSF=4.055e-02\Dipole=0.1709754,-0.0262218,-0.0013025\PG=C01 [X(C
 4H4O1)]\\@


 "I COULD HAVE DONE IT IN A MUCH MORE COMPLICATED WAY"
 SAID THE RED QUEEN, IMMENSELY PROUD.

                                      -- LEWIS CARROLL
 Job cpu time:       0 days  0 hours  0 minutes  0.7 seconds.
 File lengths (MBytes):  RWF=      7 Int=      0 D2E=      0 Chk=      2 Scr=      1
 Normal termination of Gaussian 09 at Tue Dec 15 16:10:32 2015.
