 Entering Gaussian System, Link 0=g09
 Input=FuranAM1_81.com
 Output=FuranAM1_81.log
 Initial command:
 /home/Applications/g09/g09/l1.exe "/home/Applications/g09/scratch/Gau-6288.inp" -scrdir="/home/Applications/g09/scratch/"
 Entering Link 1 = /home/Applications/g09/g09/l1.exe PID=      6290.
  
 Copyright (c) 1988,1990,1992,1993,1995,1998,2003,2009,2013,
            Gaussian, Inc.  All Rights Reserved.
  
 This is part of the Gaussian(R) 09 program.  It is based on
 the Gaussian(R) 03 system (copyright 2003, Gaussian, Inc.),
 the Gaussian(R) 98 system (copyright 1998, Gaussian, Inc.),
 the Gaussian(R) 94 system (copyright 1995, Gaussian, Inc.),
 the Gaussian 92(TM) system (copyright 1992, Gaussian, Inc.),
 the Gaussian 90(TM) system (copyright 1990, Gaussian, Inc.),
 the Gaussian 88(TM) system (copyright 1988, Gaussian, Inc.),
 the Gaussian 86(TM) system (copyright 1986, Carnegie Mellon
 University), and the Gaussian 82(TM) system (copyright 1983,
 Carnegie Mellon University). Gaussian is a federally registered
 trademark of Gaussian, Inc.
  
 This software contains proprietary and confidential information,
 including trade secrets, belonging to Gaussian, Inc.
  
 This software is provided under written license and may be
 used, copied, transmitted, or stored only in accord with that
 written license.
  
 The following legend is applicable only to US Government
 contracts under FAR:
  
                    RESTRICTED RIGHTS LEGEND
  
 Use, reproduction and disclosure by the US Government is
 subject to restrictions as set forth in subparagraphs (a)
 and (c) of the Commercial Computer Software - Restricted
 Rights clause in FAR 52.227-19.
  
 Gaussian, Inc.
 340 Quinnipiac St., Bldg. 40, Wallingford CT 06492
  
  
 ---------------------------------------------------------------
 Warning -- This program may not be used in any manner that
 competes with the business of Gaussian, Inc. or will provide
 assistance to any competitor of Gaussian, Inc.  The licensee
 of this program is prohibited from giving any competitor of
 Gaussian, Inc. access to this program.  By using this program,
 the user acknowledges that Gaussian, Inc. is engaged in the
 business of creating and licensing software in the field of
 computational chemistry and represents and warrants to the
 licensee that it is not a competitor of Gaussian, Inc. and that
 it will not use this program in any manner prohibited above.
 ---------------------------------------------------------------
  

 Cite this work as:
 Gaussian 09, Revision D.01,
 M. J. Frisch, G. W. Trucks, H. B. Schlegel, G. E. Scuseria, 
 M. A. Robb, J. R. Cheeseman, G. Scalmani, V. Barone, B. Mennucci, 
 G. A. Petersson, H. Nakatsuji, M. Caricato, X. Li, H. P. Hratchian, 
 A. F. Izmaylov, J. Bloino, G. Zheng, J. L. Sonnenberg, M. Hada, 
 M. Ehara, K. Toyota, R. Fukuda, J. Hasegawa, M. Ishida, T. Nakajima, 
 Y. Honda, O. Kitao, H. Nakai, T. Vreven, J. A. Montgomery, Jr., 
 J. E. Peralta, F. Ogliaro, M. Bearpark, J. J. Heyd, E. Brothers, 
 K. N. Kudin, V. N. Staroverov, T. Keith, R. Kobayashi, J. Normand, 
 K. Raghavachari, A. Rendell, J. C. Burant, S. S. Iyengar, J. Tomasi, 
 M. Cossi, N. Rega, J. M. Millam, M. Klene, J. E. Knox, J. B. Cross, 
 V. Bakken, C. Adamo, J. Jaramillo, R. Gomperts, R. E. Stratmann, 
 O. Yazyev, A. J. Austin, R. Cammi, C. Pomelli, J. W. Ochterski, 
 R. L. Martin, K. Morokuma, V. G. Zakrzewski, G. A. Voth, 
 P. Salvador, J. J. Dannenberg, S. Dapprich, A. D. Daniels, 
 O. Farkas, J. B. Foresman, J. V. Ortiz, J. Cioslowski, 
 and D. J. Fox, Gaussian, Inc., Wallingford CT, 2013.
 
 ******************************************
 Gaussian 09:  ES64L-G09RevD.01 24-Apr-2013
                15-Dec-2015 
 ******************************************
 ------------------------------------------------------------
 #P AM1(Input,print) CIS(Singlets,NStates=15) pop(full) force
 ------------------------------------------------------------
 1/10=7,30=1,38=1/1,3;
 2/12=2,17=6,18=5,40=1/2;
 3/5=2,16=1,25=1,41=700000,71=1,135=100,136=1/1,2,8,3;
 4/35=1/1;
 5/5=2,35=1,38=5/2;
 8/6=1,10=1,108=15/1;
 9/15=2,41=15,42=1,48=1,49=10/14;
 10/5=4/2;
 6/7=3,18=1/1;
 7/12=6,13=5,29=1/1,2,3,16;
 1/10=7,30=1/3;
 99//99;
 Leave Link    1 at Tue Dec 15 16:27:19 2015, MaxMem=           0 cpu:         0.0
 (Enter /home/Applications/g09/g09/l101.exe)
 -----------------
 AM1-Reparam Input
 -----------------
 Symbolic Z-matrix:
 Charge =  0 Multiplicity = 1
 6                     1.00534  -0.71251  -0.03036 
 6                    -0.34519  -1.12533   0.03179 
 8                    -1.18456  -0.00373  -0.02176 
 6                    -0.37885   1.09637   0.03808 
 6                     0.9079    0.74775   0.03385 
 1                     1.76825   1.41887   0.02152 
 1                    -0.8375    2.01921   0.03603 
 1                    -0.87111  -2.0264    0.04997 
 1                     1.84564  -1.34246   0.02855 
 
 NAtoms=      9 NQM=        9 NQMF=       0 NMMI=      0 NMMIF=      0
                NMic=       0 NMicF=      0.
                    Isotopes and Nuclear Properties:
 (Nuclear quadrupole moments (NQMom) in fm**2, nuclear magnetic moments (NMagM)
  in nuclear magnetons)

  Atom         1           2           3           4           5           6           7           8           9
 IAtWgt=          12          12          16          12          12           1           1           1           1
 AtmWgt=  12.0000000  12.0000000  15.9949146  12.0000000  12.0000000   1.0078250   1.0078250   1.0078250   1.0078250
 NucSpn=           0           0           0           0           0           1           1           1           1
 AtZEff=   0.0000000   0.0000000   0.0000000   0.0000000   0.0000000   0.0000000   0.0000000   0.0000000   0.0000000
 NQMom=    0.0000000   0.0000000   0.0000000   0.0000000   0.0000000   0.0000000   0.0000000   0.0000000   0.0000000
 NMagM=    0.0000000   0.0000000   0.0000000   0.0000000   0.0000000   2.7928460   2.7928460   2.7928460   2.7928460
 AtZNuc=   6.0000000   6.0000000   8.0000000   6.0000000   6.0000000   1.0000000   1.0000000   1.0000000   1.0000000
 Leave Link  101 at Tue Dec 15 16:27:19 2015, MaxMem=    33554432 cpu:         0.0
 (Enter /home/Applications/g09/g09/l103.exe)

 GradGradGradGradGradGradGradGradGradGradGradGradGradGradGradGradGradGrad
 Berny optimization.
 Initialization pass.
 Trust Radius=3.00D-01 FncErr=1.00D-07 GrdErr=1.00D-07
 Number of steps in this run=      2 maximum allowed number of steps=      2.
 GradGradGradGradGradGradGradGradGradGradGradGradGradGradGradGradGradGrad

 Leave Link  103 at Tue Dec 15 16:27:19 2015, MaxMem=    33554432 cpu:         0.0
 (Enter /home/Applications/g09/g09/l202.exe)
                          Input orientation:                          
 ---------------------------------------------------------------------
 Center     Atomic      Atomic             Coordinates (Angstroms)
 Number     Number       Type             X           Y           Z
 ---------------------------------------------------------------------
      1          6           0        1.005342   -0.712507   -0.030359
      2          6           0       -0.345189   -1.125330    0.031792
      3          8           0       -1.184558   -0.003728   -0.021757
      4          6           0       -0.378847    1.096368    0.038084
      5          6           0        0.907896    0.747746    0.033851
      6          1           0        1.768253    1.418867    0.021516
      7          1           0       -0.837496    2.019209    0.036030
      8          1           0       -0.871110   -2.026403    0.049971
      9          1           0        1.845638   -1.342458    0.028548
 ---------------------------------------------------------------------
                    Distance matrix (angstroms):
                    1          2          3          4          5
     1  C    0.000000
     2  C    1.413584   0.000000
     3  O    2.301761   1.401927   0.000000
     4  C    2.278748   2.221962   1.364904   0.000000
     5  C    1.464909   2.253584   2.223998   1.333140   0.000000
     6  H    2.264394   3.307519   3.277917   2.171248   1.091224
     7  H    3.295866   3.182846   2.053306   1.030533   2.159402
     8  H    2.292127   1.043483   2.048074   3.161355   3.295607
     9  H    1.051858   2.201563   3.313128   3.300954   2.290926
                    6          7          8          9
     6  H    0.000000
     7  H    2.674051   0.000000
     8  H    4.340153   4.045776   0.000000
     9  H    2.762418   4.301171   2.801599   0.000000
 Stoichiometry    C4H4O
 Framework group  C1[X(C4H4O)]
 Deg. of freedom    21
 Full point group                 C1      NOp   1
 Largest Abelian subgroup         C1      NOp   1
 Largest concise Abelian subgroup C1      NOp   1
                         Standard orientation:                         
 ---------------------------------------------------------------------
 Center     Atomic      Atomic             Coordinates (Angstroms)
 Number     Number       Type             X           Y           Z
 ---------------------------------------------------------------------
      1          6           0       -0.873396    0.885094    0.037995
      2          6           0       -1.056651   -0.514862   -0.031016
      3          8           0        0.187870   -1.157394    0.029963
      4          6           0        1.139993   -0.180627   -0.018536
      5          6           0        0.583327    1.030721   -0.014062
      6          1           0        1.102784    1.990162    0.006108
      7          1           0        2.125937   -0.480355   -0.009790
      8          1           0       -1.858154   -1.182478   -0.058149
      9          1           0       -1.633164    1.609865   -0.024166
 ---------------------------------------------------------------------
 Rotational constants (GHZ):      9.3057388      9.0439242      4.5909305
 Leave Link  202 at Tue Dec 15 16:27:19 2015, MaxMem=    33554432 cpu:         0.0
 (Enter /home/Applications/g09/g09/l301.exe)

 Semi-emprical parameters in input format:
 Method=8 CoreType=1 PeptideFC=0.0114510000 RIJScale=0.5291770000
 ****
 H       
 PQN=1 NValence=1 F0ss=0.4721550000 ZetaOverlap=1.1880780000 U=-0.4188110000
 Beta=-0.2268830000 CoreKO=1.0589200000 KON=0,0,0,1.0589200000 KON=1,0,1,1.0589200000
 KON=0,1,1,1.0589200000 KON=2,1,1,1.0589200000 EISol=-0.4188110042 EHeat=0.0830298228
 Alpha=1.5252600000
 GCore=0.0085280000,1.4001430000,2.2676710000
 GCore=0.0003530000,1.4001430000,3.4015070000
 GCore=-0.0012730000,0.5600570000,3.9684250000
 ****
 C       
 PQN=2,2 NValence=4 F0ss=0.4494440000 F0sp=0.4215150000 F0pp=0.3768030000 F2pp=0.1898720000
 G1sp=0.2679030000
 ZetaOverlap=1.8086650000,1.6851160000
 U=-1.9120180000,-1.4557970000
 Beta=-0.5775440000,-0.2836780000 DDN=0,1,0.8236740000 DDN=1,1,0.7268010000
 CoreKO=1.1124280000 KON=0,0,0,1.1124280000 KON=1,0,1,0.8219700000 KON=0,1,1,1.1124280000
 KON=2,1,1,0.7783930000 EISol=-4.4398989268 EHeat=0.2723305520 Alpha=1.4014060000
 DipHyp=1.6472532266
 GCore=0.0007890000,1.4001430000,3.0235620000
 GCore=0.0031890000,1.4001430000,3.4959930000
 GCore=-0.0013930000,1.4001430000,3.8739390000
 GCore=-0.0000880000,1.4001430000,5.0077740000
 ****
 O       
 PQN=2,2 NValence=6 F0ss=0.5666750000 F0sp=0.5321300000 F0pp=0.4958710000 F2pp=0.2358080000
 G1sp=0.4343770000
 ZetaOverlap=3.1080320000,2.5240390000
 U=-3.5951870000,-2.8760900000
 Beta=-1.0757550000,-1.0757550000 DDN=0,1,0.4988900000 DDN=1,1,0.4852320000
 CoreKO=0.8822960000 KON=0,0,0,0.8822960000 KON=1,0,1,0.5019540000 KON=0,1,1,0.8822960000
 KON=2,1,1,0.5515580000 EISol=-11.6164441184 EHeat=0.0949133088 Alpha=2.3576810000
 DipHyp=0.9977225968
 GCore=0.0195120000,1.4001430000,1.6023330000
 GCore=0.0056550000,1.9602000000,2.7307880000
 ****
 
 Standard basis: VSTO-6G (5D, 7F)
 Ernie: Thresh=  0.10000D-02 Tol=  0.10000D-05 Strict=F.
  NNHCO=     0 NNPyr=     0 NCTC=     0               EPep=         0.000000000
    EC=        68.316786217  ECS=         1.792523177   EG=         0.344354775
   EHC=         0.000000000  EAt=       -31.051283842  AtH=         1.516354808
 EPDDG=         0.000000000  ECC=        70.453664169 EAtT=        32.567638650
 There are    24 symmetry adapted cartesian basis functions of A   symmetry.
 There are    24 symmetry adapted basis functions of A   symmetry.
    24 basis functions,   144 primitive gaussians,    24 cartesian basis functions
    13 alpha electrons       13 beta electrons
       nuclear repulsion energy       103.0213028192 Hartrees.
 IExCor=    0 DFT=F Ex=HF Corr=None ExCW=0 ScaHFX=  1.000000
 ScaDFX=  1.000000  1.000000  1.000000  1.000000 ScalE2=  1.000000  1.000000
 IRadAn=      0 IRanWt=     -1 IRanGd=            0 ICorTp=0 IEmpDi=  4
 Integral buffers will be    131072 words long.
 Regular integral format.
 Two-electron integral symmetry is turned off.
 Leave Link  301 at Tue Dec 15 16:27:19 2015, MaxMem=    33554432 cpu:         0.0
 (Enter /home/Applications/g09/g09/l302.exe)
 Do NDO integrals.
 NPDir=0 NMtPBC=     1 NCelOv=     1 NCel=       1 NClECP=     1 NCelD=      1
         NCelK=      1 NCelE2=     1 NClLst=     1 CellRange=     0.0.
 One-electron integrals computed using PRISM.
 NBasis=    24 RedAO= F EigKep=  0.00D+00  NBF=    24
 NBsUse=    24 1.00D-04 EigRej=  0.00D+00 NBFU=    24
 Leave Link  302 at Tue Dec 15 16:27:19 2015, MaxMem=    33554432 cpu:         0.0
 (Enter /home/Applications/g09/g09/l308.exe)
 Leave Link  308 at Tue Dec 15 16:27:19 2015, MaxMem=    33554432 cpu:         0.0
 (Enter /home/Applications/g09/g09/l303.exe)
 DipDrv:  MaxL=1.
 Leave Link  303 at Tue Dec 15 16:27:19 2015, MaxMem=    33554432 cpu:         0.0
 (Enter /home/Applications/g09/g09/l401.exe)
 Simple Huckel Guess.
 JPrj=0 DoOrth=F DoCkMO=F.
 Leave Link  401 at Tue Dec 15 16:27:19 2015, MaxMem=    33554432 cpu:         0.0
 (Enter /home/Applications/g09/g09/l502.exe)
 Closed shell SCF:
 Using DIIS extrapolation, IDIIS=  1040.
 Overlap will be assumed to be unity.
 Two-electron integral symmetry not used.
 Keep J ints in memory in canonical form, NReq=888082.
 IVT=       79475 IEndB=       79475 NGot=    33554432 MDV=    33473473
 LenX=    33473473 LenY=    33472456
 Requested convergence on RMS density matrix=1.00D-08 within 128 cycles.
 Requested convergence on MAX density matrix=1.00D-06.
 Requested convergence on             energy=1.00D-06.
 No special actions if energy rises.
 FoFCou: FMM=F IPFlag=           0 FMFlag=           0 FMFlg1=           0
         NFxFlg=           0 DoJE=F BraDBF=F KetDBF=F FulRan=T
         wScrn=  0.000000 ICntrl=     600 IOpCl=  2 I1Cent=           0 NGrid=           0
         NMat0=    1 NMatS0=     54 NMatT0=    0 NMatD0=    1 NMtDS0=    0 NMtDT0=    0
 Symmetry not used in FoFCou.

 Cycle   1  Pass 1  IDiag  1:
 E= 0.330558696764769    
 DIIS: error= 6.13D-02 at cycle   1 NSaved=   1.
 NSaved= 1 IEnMin= 1 EnMin= 0.330558696764769     IErMin= 1 ErrMin= 6.13D-02
 ErrMax= 6.13D-02  0.00D+00 EMaxC= 1.00D-01 BMatC= 1.11D-01 BMatP= 1.11D-01
 IDIUse=3 WtCom= 3.87D-01 WtEn= 6.13D-01
 Coeff-Com:  0.100D+01
 Coeff-En:   0.100D+01
 Coeff:      0.100D+01
 GapD=    2.000 DampG=2.000 DampE=0.500 DampFc=1.0000 IDamp=-1.
 RMSDP=1.95D-02 MaxDP=1.62D-01              OVMax= 0.00D+00

 Cycle   2  Pass 1  IDiag  1:
 E= 0.501978148292466E-01 Delta-E=       -0.280360881936 Rises=F Damp=F
 DIIS: error= 2.03D-02 at cycle   2 NSaved=   2.
 NSaved= 2 IEnMin= 2 EnMin= 0.501978148292466E-01 IErMin= 2 ErrMin= 2.03D-02
 ErrMax= 2.03D-02  0.00D+00 EMaxC= 1.00D-01 BMatC= 9.66D-03 BMatP= 1.11D-01
 IDIUse=3 WtCom= 7.97D-01 WtEn= 2.03D-01
 Coeff-Com: -0.360D+00 0.136D+01
 Coeff-En:   0.000D+00 0.100D+01
 Coeff:     -0.287D+00 0.129D+01
 RMSDP=8.22D-03 MaxDP=7.65D-02 DE=-2.80D-01 OVMax= 0.00D+00

 Cycle   3  Pass 1  IDiag  1:
 E= 0.193988614545617E-01 Delta-E=       -0.030798953375 Rises=F Damp=F
 DIIS: error= 3.78D-03 at cycle   3 NSaved=   3.
 NSaved= 3 IEnMin= 3 EnMin= 0.193988614545617E-01 IErMin= 3 ErrMin= 3.78D-03
 ErrMax= 3.78D-03  0.00D+00 EMaxC= 1.00D-01 BMatC= 3.73D-04 BMatP= 9.66D-03
 IDIUse=3 WtCom= 9.62D-01 WtEn= 3.78D-02
 Coeff-Com:  0.132D+00-0.589D+00 0.146D+01
 Coeff-En:   0.000D+00 0.000D+00 0.100D+01
 Coeff:      0.127D+00-0.567D+00 0.144D+01
 RMSDP=2.51D-03 MaxDP=2.97D-02 DE=-3.08D-02 OVMax= 0.00D+00

 Cycle   4  Pass 1  IDiag  3:
 E= 0.173672303381380E-01 Delta-E=       -0.002031631116 Rises=F Damp=F
 DIIS: error= 1.21D-03 at cycle   4 NSaved=   4.
 NSaved= 4 IEnMin= 4 EnMin= 0.173672303381380E-01 IErMin= 4 ErrMin= 1.21D-03
 ErrMax= 1.21D-03  0.00D+00 EMaxC= 1.00D-01 BMatC= 2.94D-05 BMatP= 3.73D-04
 IDIUse=3 WtCom= 9.88D-01 WtEn= 1.21D-02
 Coeff-Com:  0.183D-01-0.660D-01-0.182D+00 0.123D+01
 Coeff-En:   0.000D+00 0.000D+00 0.000D+00 0.100D+01
 Coeff:      0.181D-01-0.652D-01-0.180D+00 0.123D+01
 Gap=     0.372 Goal=   None    Shift=    0.000
 RMSDP=8.42D-04 MaxDP=1.06D-02 DE=-2.03D-03 OVMax= 1.01D-02

 Cycle   5  Pass 1  IDiag  3:
 E= 0.171864043708467E-01 Delta-E=       -0.000180825967 Rises=F Damp=F
 DIIS: error= 2.17D-04 at cycle   5 NSaved=   5.
 NSaved= 5 IEnMin= 5 EnMin= 0.171864043708467E-01 IErMin= 5 ErrMin= 2.17D-04
 ErrMax= 2.17D-04  0.00D+00 EMaxC= 1.00D-01 BMatC= 1.88D-06 BMatP= 2.94D-05
 IDIUse=3 WtCom= 9.98D-01 WtEn= 2.17D-03
 Coeff-Com: -0.840D-02 0.337D-01 0.167D-01-0.462D+00 0.142D+01
 Coeff-En:   0.000D+00 0.000D+00 0.000D+00 0.000D+00 0.100D+01
 Coeff:     -0.838D-02 0.336D-01 0.167D-01-0.461D+00 0.142D+01
 Gap=     0.372 Goal=   None    Shift=    0.000
 RMSDP=2.49D-04 MaxDP=2.04D-03 DE=-1.81D-04 OVMax= 2.65D-03

 Cycle   6  Pass 1  IDiag  3:
 E= 0.171722838003774E-01 Delta-E=       -0.000014120570 Rises=F Damp=F
 DIIS: error= 9.89D-05 at cycle   6 NSaved=   6.
 NSaved= 6 IEnMin= 6 EnMin= 0.171722838003774E-01 IErMin= 6 ErrMin= 9.89D-05
 ErrMax= 9.89D-05  0.00D+00 EMaxC= 1.00D-01 BMatC= 2.07D-07 BMatP= 1.88D-06
 IDIUse=1 WtCom= 1.00D+00 WtEn= 0.00D+00
 Coeff-Com:  0.306D-02-0.121D-01 0.477D-02 0.141D+00-0.714D+00 0.158D+01
 Coeff:      0.306D-02-0.121D-01 0.477D-02 0.141D+00-0.714D+00 0.158D+01
 Gap=     0.372 Goal=   None    Shift=    0.000
 RMSDP=1.04D-04 MaxDP=8.78D-04 DE=-1.41D-05 OVMax= 1.36D-03

 Cycle   7  Pass 1  IDiag  3:
 E= 0.171703379527628E-01 Delta-E=       -0.000001945848 Rises=F Damp=F
 DIIS: error= 3.55D-05 at cycle   7 NSaved=   7.
 NSaved= 7 IEnMin= 7 EnMin= 0.171703379527628E-01 IErMin= 7 ErrMin= 3.55D-05
 ErrMax= 3.55D-05  0.00D+00 EMaxC= 1.00D-01 BMatC= 1.77D-08 BMatP= 2.07D-07
 IDIUse=1 WtCom= 1.00D+00 WtEn= 0.00D+00
 Coeff-Com: -0.537D-03 0.164D-02-0.137D-03-0.317D-01 0.195D+00-0.707D+00
 Coeff-Com:  0.154D+01
 Coeff:     -0.537D-03 0.164D-02-0.137D-03-0.317D-01 0.195D+00-0.707D+00
 Coeff:      0.154D+01
 Gap=     0.372 Goal=   None    Shift=    0.000
 RMSDP=3.65D-05 MaxDP=3.45D-04 DE=-1.95D-06 OVMax= 4.50D-04

 Cycle   8  Pass 1  IDiag  3:
 E= 0.171701579109964E-01 Delta-E=       -0.000000180042 Rises=F Damp=F
 DIIS: error= 6.95D-06 at cycle   8 NSaved=   8.
 NSaved= 8 IEnMin= 8 EnMin= 0.171701579109964E-01 IErMin= 8 ErrMin= 6.95D-06
 ErrMax= 6.95D-06  0.00D+00 EMaxC= 1.00D-01 BMatC= 7.94D-10 BMatP= 1.77D-08
 IDIUse=1 WtCom= 1.00D+00 WtEn= 0.00D+00
 Coeff-Com:  0.588D-04 0.752D-04-0.116D-02 0.110D-01-0.636D-01 0.263D+00
 Coeff-Com: -0.743D+00 0.153D+01
 Coeff:      0.588D-04 0.752D-04-0.116D-02 0.110D-01-0.636D-01 0.263D+00
 Coeff:     -0.743D+00 0.153D+01
 Gap=     0.372 Goal=   None    Shift=    0.000
 RMSDP=7.05D-06 MaxDP=6.85D-05 DE=-1.80D-07 OVMax= 8.60D-05

 Cycle   9  Pass 1  IDiag  3:
 E= 0.171701510652156E-01 Delta-E=       -0.000000006846 Rises=F Damp=F
 DIIS: error= 9.00D-07 at cycle   9 NSaved=   9.
 NSaved= 9 IEnMin= 9 EnMin= 0.171701510652156E-01 IErMin= 9 ErrMin= 9.00D-07
 ErrMax= 9.00D-07  0.00D+00 EMaxC= 1.00D-01 BMatC= 3.24D-11 BMatP= 7.94D-10
 IDIUse=1 WtCom= 1.00D+00 WtEn= 0.00D+00
 Coeff-Com:  0.180D-04-0.190D-03 0.478D-03-0.237D-02 0.150D-01-0.754D-01
 Coeff-Com:  0.244D+00-0.630D+00 0.145D+01
 Coeff:      0.180D-04-0.190D-03 0.478D-03-0.237D-02 0.150D-01-0.754D-01
 Coeff:      0.244D+00-0.630D+00 0.145D+01
 Gap=     0.372 Goal=   None    Shift=    0.000
 RMSDP=1.05D-06 MaxDP=8.57D-06 DE=-6.85D-09 OVMax= 1.42D-05

 Cycle  10  Pass 1  IDiag  3:
 E= 0.171701508605082E-01 Delta-E=       -0.000000000205 Rises=F Damp=F
 DIIS: error= 2.44D-07 at cycle  10 NSaved=  10.
 NSaved=10 IEnMin=10 EnMin= 0.171701508605082E-01 IErMin=10 ErrMin= 2.44D-07
 ErrMax= 2.44D-07  0.00D+00 EMaxC= 1.00D-01 BMatC= 1.58D-12 BMatP= 3.24D-11
 IDIUse=1 WtCom= 1.00D+00 WtEn= 0.00D+00
 Coeff-Com: -0.128D-04 0.104D-03-0.248D-03 0.996D-03-0.573D-02 0.300D-01
 Coeff-Com: -0.995D-01 0.265D+00-0.732D+00 0.154D+01
 Coeff:     -0.128D-04 0.104D-03-0.248D-03 0.996D-03-0.573D-02 0.300D-01
 Coeff:     -0.995D-01 0.265D+00-0.732D+00 0.154D+01
 Gap=     0.372 Goal=   None    Shift=    0.000
 RMSDP=2.19D-07 MaxDP=1.24D-06 DE=-2.05D-10 OVMax= 2.48D-06

 Cycle  11  Pass 1  IDiag  3:
 E= 0.171701508510154E-01 Delta-E=       -0.000000000009 Rises=F Damp=F
 DIIS: error= 3.48D-08 at cycle  11 NSaved=  11.
 NSaved=11 IEnMin=11 EnMin= 0.171701508510154E-01 IErMin=11 ErrMin= 3.48D-08
 ErrMax= 3.48D-08  0.00D+00 EMaxC= 1.00D-01 BMatC= 5.13D-14 BMatP= 1.58D-12
 IDIUse=1 WtCom= 1.00D+00 WtEn= 0.00D+00
 Coeff-Com:  0.465D-05-0.374D-04 0.867D-04-0.340D-03 0.192D-02-0.103D-01
 Coeff-Com:  0.344D-01-0.910D-01 0.256D+00-0.628D+00 0.144D+01
 Coeff:      0.465D-05-0.374D-04 0.867D-04-0.340D-03 0.192D-02-0.103D-01
 Coeff:      0.344D-01-0.910D-01 0.256D+00-0.628D+00 0.144D+01
 Gap=     0.372 Goal=   None    Shift=    0.000
 RMSDP=3.66D-08 MaxDP=1.95D-07 DE=-9.49D-12 OVMax= 2.56D-07

 Cycle  12  Pass 1  IDiag  3:
 E= 0.171701508507169E-01 Delta-E=        0.000000000000 Rises=F Damp=F
 DIIS: error= 8.69D-09 at cycle  12 NSaved=  12.
 NSaved=12 IEnMin=12 EnMin= 0.171701508507169E-01 IErMin=12 ErrMin= 8.69D-09
 ErrMax= 8.69D-09  0.00D+00 EMaxC= 1.00D-01 BMatC= 2.77D-15 BMatP= 5.13D-14
 IDIUse=1 WtCom= 1.00D+00 WtEn= 0.00D+00
 Coeff-Com: -0.859D-06 0.709D-05-0.157D-04 0.629D-04-0.347D-03 0.191D-02
 Coeff-Com: -0.635D-02 0.164D-01-0.461D-01 0.121D+00-0.446D+00 0.136D+01
 Coeff:     -0.859D-06 0.709D-05-0.157D-04 0.629D-04-0.347D-03 0.191D-02
 Coeff:     -0.635D-02 0.164D-01-0.461D-01 0.121D+00-0.446D+00 0.136D+01
 Gap=     0.372 Goal=   None    Shift=    0.000
 RMSDP=8.98D-09 MaxDP=5.06D-08 DE=-2.98D-13 OVMax= 5.50D-08

 Cycle  13  Pass 2  IDiag  1:
 SCF Done:  E(RAM1) =  0.171701508507E-01 A.U. after   13 cycles
            NFock= 12  Conv=0.90D-08     -V/T= 1.0010
 KE=-1.651517980528D+01 PE=-1.702837881435D+02 EE= 8.379483528048D+01
 Leave Link  502 at Tue Dec 15 16:27:19 2015, MaxMem=    33554432 cpu:         0.0
 (Enter /home/Applications/g09/g09/l801.exe)
 Range of M.O.s used for correlation:     1    24
 NBasis=    24 NAE=    13 NBE=    13 NFC=     0 NFV=     0
 NROrb=     24 NOA=    13 NOB=    13 NVA=    11 NVB=    11
 Leave Link  801 at Tue Dec 15 16:27:19 2015, MaxMem=    33554432 cpu:         0.0
 (Enter /home/Applications/g09/g09/l914.exe)
 RHF ground state
 MDV=    33554432 DFT=F DoStab=F Mixed=F DoRPA=F DoScal=F NonHer=F
 Making orbital integer symmetry assigments:
 Orbital symmetries:
       Occupied  (A) (A) (A) (A) (A) (A) (A) (A) (A) (A) (A) (A)
                 (A)
       Virtual   (A) (A) (A) (A) (A) (A) (A) (A) (A) (A) (A)
    60 initial guesses have been made.
 Convergence on wavefunction:    0.000001000000000
 Davidson Disk Diagonalization:  ConvIn= 1.00D-06 SkipCon=T Conv= 1.00D-06.
 Max sub-space:   240 roots to seek:    60 dimension of matrix:          286
 Iteration     1 Dimension    60 NMult     0 NNew     60
 CISAX will form    60 AO SS matrices at one time.
 NMat=    60 NSing=    60 JSym2X= 0.
 FoFJK:  IHMeth= 8 ICntrl=       0 DoSepK=F KAlg= 0 I1Cent=   0 FoldK=F
 IRaf=         1 NMat= 120 IRICut=       1 DoRegI=T DoRafI=F ISym2E= 0.
 FoFCou: FMM=F IPFlag=           0 FMFlag=      100000 FMFlg1=           0
         NFxFlg=           0 DoJE=F BraDBF=F KetDBF=F FulRan=T
         wScrn=  0.000000 ICntrl=       0 IOpCl=  0 I1Cent=           0 NGrid=           0
         NMat0=  120 NMatS0=     60 NMatT0=    0 NMatD0=  120 NMtDS0=    0 NMtDT0=    0
 Symmetry not used in FoFCou.
 New state      3 was old state      4
 New state      4 was old state      6
 New state      5 was old state      7
 New state      6 was old state      3
 New state      7 was old state      9
 New state      8 was old state      5
 New state      9 was old state      8
 New state     10 was old state     15
 New state     11 was old state     13
 New state     12 was old state     10
 New state     13 was old state     18
 New state     15 was old state     16
 Excitation Energies [eV] at current iteration:
 Root      1 :     4.451198948847365
 Root      2 :     4.997008575248790
 Root      3 :     5.042856667784700
 Root      4 :     5.806421358555061
 Root      5 :     5.961161969118471
 Root      6 :     6.195699173740000
 Root      7 :     6.296435952544305
 Root      8 :     6.371941095938564
 Root      9 :     6.507602605459168
 Root     10 :     7.052409013989791
 Root     11 :     7.106431775873753
 Root     12 :     7.399343927095019
 Root     13 :     7.461983335068163
 Root     14 :     7.553129878736284
 Root     15 :     7.740734545788614
 Root     16 :     7.805150810028874
 Root     17 :     7.951298500733897
 Root     18 :     8.000744904477028
 Root     19 :     8.194674429441642
 Root     20 :     8.278909774850522
 Root     21 :     8.722311019255894
 Root     22 :     8.782000590146410
 Root     23 :     8.830558486595290
 Root     24 :     9.129470141509747
 Root     25 :     9.314428214286863
 Root     26 :     9.430228442526371
 Root     27 :     9.624240797691044
 Root     28 :     9.628516836005600
 Root     29 :     9.817998018226625
 Root     30 :     9.903299794765378
 Root     31 :     9.916578248342402
 Root     32 :     9.966892566641921
 Root     33 :    10.021542788364280
 Root     34 :    10.108603164600760
 Root     35 :    10.263238826102470
 Root     36 :    10.379419699105740
 Root     37 :    10.507273577747970
 Root     38 :    10.735249312334830
 Root     39 :    10.855398356581380
 Root     40 :    10.911870859600540
 Root     41 :    11.044566473510410
 Root     42 :    11.066276319654620
 Root     43 :    11.294275663699550
 Root     44 :    11.495692822610980
 Root     45 :    11.577552101842290
 Root     46 :    11.637180920514820
 Root     47 :    11.683994630703880
 Root     48 :    11.874867250945480
 Root     49 :    11.937889138072160
 Root     50 :    11.975885317716050
 Root     51 :    12.342897973752640
 Root     52 :    12.630910427938760
 Root     53 :    12.827122130437430
 Root     54 :    12.942438781406680
 Root     55 :    13.170565377391220
 Root     56 :    13.284201931835310
 Root     57 :    13.484300870360170
 Root     58 :    13.578233541588370
 Root     59 :    13.744472828513180
 Root     60 :    13.762115568710440
 Iteration     2 Dimension   120 NMult    60 NNew     60
 CISAX will form    60 AO SS matrices at one time.
 NMat=    60 NSing=    60 JSym2X= 0.
 Root      1 not converged, maximum delta is    0.044285679208764
 Root      2 not converged, maximum delta is    0.058018291482809
 Root      3 not converged, maximum delta is    0.044551114547292
 Root      4 not converged, maximum delta is    0.049865572076596
 Root      5 not converged, maximum delta is    0.058130547610327
 Root      6 not converged, maximum delta is    0.196285275868924
 Root      7 not converged, maximum delta is    0.053854359024703
 Root      8 not converged, maximum delta is    0.157746142958554
 Root      9 not converged, maximum delta is    0.050901704498994
 Root     10 not converged, maximum delta is    0.061850659856537
 Root     11 not converged, maximum delta is    0.050670566572892
 Root     12 not converged, maximum delta is    0.097025599208224
 Root     13 not converged, maximum delta is    0.160892824494525
 Root     14 not converged, maximum delta is    0.165480920281463
 Root     15 not converged, maximum delta is    0.103833635740624
 Excitation Energies [eV] at current iteration:
 Root      1 :     4.365934883981032   Change is   -0.085264064866333
 Root      2 :     4.978441554817136   Change is   -0.018567020431653
 Root      3 :     5.016153248263714   Change is   -0.026703419520987
 Root      4 :     5.703249274779127   Change is   -0.103172083775935
 Root      5 :     5.889366626277895   Change is   -0.071795342840576
 Root      6 :     6.062554804197335   Change is   -0.133144369542664
 Root      7 :     6.161591393459619   Change is   -0.134844559084686
 Root      8 :     6.267760594359467   Change is   -0.104180501579097
 Root      9 :     6.459132195434136   Change is   -0.048470410025031
 Root     10 :     6.936296061566279   Change is   -0.116112952423513
 Root     11 :     7.031888221659216   Change is   -0.074543554214537
 Root     12 :     7.318660085950135   Change is   -0.080683841144883
 Root     13 :     7.344442829559211   Change is   -0.117540505508953
 Root     14 :     7.481694159419229   Change is   -0.071435719317055
 Root     15 :     7.634566913480375   Change is   -0.106167632308238
 Root     16 :     7.725650403902621   Change is   -0.079500406126253
 Root     17 :     7.843138868257050   Change is   -0.108159632476847
 Root     18 :     7.911343645377978   Change is   -0.089401259099049
 Root     19 :     8.015642236878426   Change is   -0.179032192563217
 Root     20 :     8.148997042872523   Change is   -0.129912731977999
 Root     21 :     8.508248163538823   Change is   -0.273752426607586
 Root     22 :     8.679065902091192   Change is   -0.043245117164702
 Root     23 :     8.766643267737734   Change is   -0.063915218857557
 Root     24 :     9.014703481192864   Change is   -0.114766660316882
 Root     25 :     9.029106654394832   Change is   -0.401121788131539
 Root     26 :     9.190880015047131   Change is   -0.123548199239733
 Root     27 :     9.286033174441744   Change is   -0.338207623249300
 Root     28 :     9.414713892676350   Change is   -0.213802943329251
 Root     29 :     9.470018318275134   Change is   -0.446559930067268
 Root     30 :     9.646131533929715   Change is   -0.617107292172760
 Root     31 :     9.704100940162883   Change is   -0.113897078063741
 Root     32 :     9.738014942977800   Change is   -0.370588221622958
 Root     33 :     9.775023567181751   Change is   -0.191868999460170
 Root     34 :     9.823816269178918   Change is   -0.079483525586461
 Root     35 :     9.905448055695331   Change is   -0.116094732668954
 Root     36 :     9.921837767023421   Change is   -0.585435810724552
 Root     37 :    10.188090042201410   Change is   -0.191329656904323
 Root     38 :    10.300268262259420   Change is   -0.434981050075406
 Root     39 :    10.353985710963330   Change is   -0.557885148637213
 Root     40 :    10.556550956541410   Change is   -0.509725363113207
 Root     41 :    10.597449844252450   Change is   -0.257948512328929
 Root     42 :    10.691696712472400   Change is   -0.602578951227145
 Root     43 :    10.929497903279050   Change is   -0.754496727424823
 Root     44 :    10.957386357038200   Change is   -0.087180116472211
 Root     45 :    11.045934846300250   Change is   -0.449757976310722
 Root     46 :    11.300722220332760   Change is   -0.336458700182059
 Root     47 :    11.357957303486750   Change is   -0.617928014229297
 Root     48 :    11.403703860390460   Change is   -0.173848241451827
 Root     49 :    11.655986983526980   Change is   -0.218880267418497
 Root     50 :    11.723680653688160   Change is   -0.214208484384009
 Root     51 :    11.867797166586910   Change is   -0.475100807165725
 Root     52 :    12.005830081450030   Change is   -0.625080346488725
 Root     53 :    12.412486198912620   Change is   -0.758079178478595
 Root     54 :    12.461068346339800   Change is   -0.366053784097633
 Root     55 :    12.496610146748870   Change is   -0.787591785086443
 Root     56 :    12.762740383599860   Change is   -0.721560486760304
 Root     57 :    12.886682228087640   Change is   -0.055756553319037
 Root     58 :    13.021348640712460   Change is   -0.556884900875907
 Root     59 :    13.193749119677570   Change is   -0.568366449032868
 Root     60 :    13.314191425438700   Change is   -0.430281403074481
 Iteration     3 Dimension   135 NMult   120 NNew     15
 CISAX will form    15 AO SS matrices at one time.
 NMat=    15 NSing=    15 JSym2X= 0.
 Root      1 not converged, maximum delta is    0.001869413368997
 Root      2 not converged, maximum delta is    0.000368626044928
 Root      3 not converged, maximum delta is    0.000266385025143
 Root      4 not converged, maximum delta is    0.000166316078336
 Root      5 not converged, maximum delta is    0.000104551634834
 Root      6 not converged, maximum delta is    0.001351830554518
 Root      7 not converged, maximum delta is    0.000250753355167
 Root      8 not converged, maximum delta is    0.001743233485814
 Root      9 not converged, maximum delta is    0.000417962814756
 Root     10 not converged, maximum delta is    0.000225378287146
 Root     11 not converged, maximum delta is    0.000274936317139
 Root     12 not converged, maximum delta is    0.000264534266037
 Root     13 not converged, maximum delta is    0.000310698954197
 Root     14 not converged, maximum delta is    0.000220965346571
 Root     15 not converged, maximum delta is    0.000326037915763
 Excitation Energies [eV] at current iteration:
 Root      1 :     4.365460945636981   Change is   -0.000473938344051
 Root      2 :     4.978406778538371   Change is   -0.000034776278765
 Root      3 :     5.016142828317458   Change is   -0.000010419946256
 Root      4 :     5.703243258063664   Change is   -0.000006016715462
 Root      5 :     5.889363627586499   Change is   -0.000002998691396
 Root      6 :     6.062181695718764   Change is   -0.000373108478571
 Root      7 :     6.161577108814209   Change is   -0.000014284645411
 Root      8 :     6.267217596047375   Change is   -0.000542998312093
 Root      9 :     6.459103569960075   Change is   -0.000028625474062
 Root     10 :     6.936287102755182   Change is   -0.000008958811097
 Root     11 :     7.031872190199870   Change is   -0.000016031459346
 Root     12 :     7.318638505881331   Change is   -0.000021580068805
 Root     13 :     7.344413473315211   Change is   -0.000029356243999
 Root     14 :     7.481684120179835   Change is   -0.000010039239394
 Root     15 :     7.634548790520697   Change is   -0.000018122959678
 Iteration     4 Dimension   143 NMult   135 NNew      8
 CISAX will form     8 AO SS matrices at one time.
 NMat=     8 NSing=     8 JSym2X= 0.
 Root      1 not converged, maximum delta is    0.000086756343173
 Root      2 not converged, maximum delta is    0.000016384892562
 Root      3 not converged, maximum delta is    0.000010987425430
 Root      4 not converged, maximum delta is    0.000007965048074
 Root      5 not converged, maximum delta is    0.000004885491390
 Root      6 not converged, maximum delta is    0.000056064137336
 Root      7 not converged, maximum delta is    0.000009337106256
 Root      8 not converged, maximum delta is    0.000098584393522
 Root      9 not converged, maximum delta is    0.000022798214088
 Root     10 not converged, maximum delta is    0.000016362891534
 Root     11 not converged, maximum delta is    0.000010954807903
 Root     12 not converged, maximum delta is    0.000018685741763
 Root     13 not converged, maximum delta is    0.000018172447563
 Root     14 not converged, maximum delta is    0.000008305331928
 Root     15 not converged, maximum delta is    0.000018066039355
 Excitation Energies [eV] at current iteration:
 Root      1 :     4.365459459168913   Change is   -0.000001486468068
 Root      2 :     4.978406704705421   Change is   -0.000000073832951
 Root      3 :     5.016142799873989   Change is   -0.000000028443469
 Root      4 :     5.703243240609847   Change is   -0.000000017453818
 Root      5 :     5.889363622404299   Change is   -0.000000005182199
 Root      6 :     6.062180906614597   Change is   -0.000000789104168
 Root      7 :     6.161577076869990   Change is   -0.000000031944219
 Root      8 :     6.267215837766441   Change is   -0.000001758280934
 Root      9 :     6.459103464392295   Change is   -0.000000105567780
 Root     10 :     6.936287050301519   Change is   -0.000000052453663
 Root     11 :     7.031872155241818   Change is   -0.000000034958051
 Root     12 :     7.318638425283678   Change is   -0.000000080597653
 Root     13 :     7.344413390649581   Change is   -0.000000082665630
 Root     14 :     7.481684103673739   Change is   -0.000000016506096
 Root     15 :     7.634548720081412   Change is   -0.000000070439286
 Convergence achieved on expansion vectors.
 ***********************************************************************
 Excited states from <AA,BB:AA,BB> singles matrix:
 ***********************************************************************
 
 1PDM for each excited state written to RWF  633
 Ground to excited state transition densities written to RWF  633
 Ground to excited state transition electric dipole moments (Au):
       state          X           Y           Z        Dip. S.      Osc.
         1         0.8229      0.3262      0.0850      0.7907      0.0846
         2        -0.0451      0.1544      0.0454      0.0279      0.0034
         3         0.0759     -0.0248      0.0134      0.0066      0.0008
         4         0.0191     -0.0491      0.0923      0.0113      0.0016
         5         0.0194     -0.0750      0.0665      0.0104      0.0015
         6        -0.6785      1.3330      0.0961      2.2464      0.3336
         7         0.0965     -0.1361      0.0292      0.0287      0.0043
         8        -0.6018     -0.8376      0.0050      1.0638      0.1633
         9         0.0941      0.2349     -0.1038      0.0748      0.0118
        10        -0.0878      0.0235      0.0038      0.0083      0.0014
        11        -0.0905      0.0520     -0.0502      0.0134      0.0023
        12         0.0433      0.0863     -0.0889      0.0172      0.0031
        13        -0.0104     -0.0421     -0.0812      0.0085      0.0015
        14        -0.0008     -0.0287      0.0222      0.0013      0.0002
        15        -0.0561     -0.0146     -0.1251      0.0190      0.0036
 Ground to excited state transition velocity dipole moments (Au):
       state          X           Y           Z        Dip. S.      Osc.
         1        -0.0409     -0.0309     -0.0195      0.0030      0.0125
         2         0.0046      0.0001     -0.0146      0.0002      0.0009
         3         0.0029     -0.0022     -0.0089      0.0001      0.0003
         4        -0.0030      0.0104     -0.0368      0.0015      0.0047
         5        -0.0002      0.0118     -0.0719      0.0053      0.0163
         6         0.1180     -0.2639     -0.0270      0.0843      0.2523
         7        -0.0156      0.0202     -0.0256      0.0013      0.0038
         8         0.1040      0.1671      0.0226      0.0392      0.1136
         9        -0.0114     -0.0493      0.1741      0.0329      0.0923
        10         0.0113     -0.0060     -0.0353      0.0014      0.0037
        11         0.0173     -0.0131     -0.0402      0.0021      0.0054
        12        -0.0089     -0.0251      0.0290      0.0015      0.0038
        13        -0.0001      0.0024     -0.0247      0.0006      0.0015
        14        -0.0019     -0.0030      0.0504      0.0026      0.0062
        15         0.0111     -0.0006      0.0190      0.0005      0.0011
 Ground to excited state transition magnetic dipole moments (Au):
       state          X           Y           Z
         1        -0.0359     -0.0040      0.6919
         2        -0.0272     -0.1775     -0.0657
         3         0.1020     -0.6415      0.0049
         4         0.3559      0.0362      0.0000
         5         0.0765      0.0441     -0.0049
         6         0.1469     -0.0350     -0.1117
         7         0.1288      0.1415      0.0119
         8        -0.0018     -0.0752      0.0254
         9         0.0893      0.1776      0.0099
        10        -0.1646      0.6813      0.0163
        11        -1.6714      0.1450     -0.0599
        12        -0.7032     -0.7806      0.0146
        13         0.1415      0.0661     -0.0251
        14         0.3712      0.2359     -0.0346
        15         0.4016     -0.3624     -0.0138
 Ground to excited state transition velocity quadrupole moments (Au):
       state          XX          YY          ZZ          XY          XZ          YZ
         1        -0.1089      0.0894      0.0090      0.4679      0.0301      0.0042
         2         0.0739     -0.1283      0.0684     -0.0223     -0.0527      0.0036
         3        -0.0345      0.0424     -0.0181      0.0344     -0.1420     -0.0042
         4        -0.0069     -0.0180      0.0285     -0.0433      0.0698      0.2435
         5        -0.0272      0.0539     -0.0263     -0.0011     -0.0405      0.0981
         6         0.3232     -0.1838     -0.0339      0.2984      0.0389      0.0160
         7        -0.0342      0.0242      0.0034     -0.0396     -0.1331      0.1973
         8        -0.3508      0.2321      0.0196      0.4157     -0.0137     -0.0142
         9         0.0941     -0.0490     -0.0022     -0.0152     -0.0542     -0.0263
        10        -0.0234      0.0335      0.0100      0.0477     -0.3001     -0.0894
        11         0.0131     -0.0197      0.0118      0.0117      0.0874      0.1073
        12         0.0525     -0.0186      0.0111     -0.0274     -0.1360     -0.0121
        13        -0.0151      0.0021      0.0277     -0.0036     -0.0366     -0.0385
        14         0.0136     -0.0243      0.0181     -0.0035     -0.1498      0.2582
        15        -0.0142     -0.0320      0.0167     -0.0054     -0.0546      0.3380
 <0|del|b> * <b|rxdel|0> + <0|del|b> * <b|delr+rdel|0>
 Rotatory Strengths (R) in cgs (10**-40 erg-esu-cm/Gauss)
       state          XX          YY          ZZ    R(velocity)    E-M Angle
         1       -47.5852     -6.7773      1.8309    -17.5105      108.28
         2         2.4541      1.0086     -0.3176      1.0484       73.83
         3         1.4150      1.0495      3.8662      2.1102       74.71
         4         2.0967     -5.7288      1.2996     -0.7775       92.88
         5         2.3286      0.4059      0.0748      0.9364       82.33
         6        22.9276     48.0913     22.8632     31.2940       57.15
         7         9.7571     -9.9946      1.9302      0.5643       85.51
         8        -0.4593    -16.1059    -20.8421    -12.4691      140.74
         9       -18.4108      5.4144    -11.0361     -8.0108      102.92
        10       -11.2858     -2.4503     -4.3475     -6.0279      104.34
        11         1.6200    -33.0069    -46.1857    -25.8575      111.69
        12        20.7400     10.0063     38.3061     23.0174       50.54
        13         1.2484      0.6843      0.0725      0.6684       78.73
        14        -3.9440     -3.5592     -0.6062     -2.7031       98.13
        15        -0.2426     10.1379      1.1838      3.6930       68.32
 1/2[<0|r|b>*<b|rxdel|0> + (<0|rxdel|b>*<b|r|0>)*]
 Rotatory Strengths (R) in cgs (10**-40 erg-esu-cm/Gauss)
       state          XX          YY          ZZ     R(length)
         1        20.8889      0.9191    -41.6058     -6.5993
         2        -0.8681     19.3796      2.1118      6.8744
         3        -5.4737    -11.2333     -0.0463     -5.5844
         4        -4.8114      1.2586     -0.0005     -1.1845
         5        -1.0504      2.3395      0.2300      0.5064
         6        70.4571     32.9662      7.5910     37.0048
         7        -8.7928     13.6170     -0.2450      1.5264
         8        -0.7519    -44.5709     -0.0905    -15.1377
         9        -5.9444    -29.5096      0.7235    -11.5768
        10       -10.2227    -11.3081     -0.0439     -7.1916
        11      -106.9343     -5.3314     -2.1250    -38.1302
        12        21.5198     47.6309      0.9189     23.3565
        13         1.0374      1.9679     -1.4421      0.5211
        14         0.2142      4.7801      0.5426      1.8456
        15        15.9257     -3.7528     -1.2216      3.6505
  1/2[<0|del|b>*<b|r|0> + (<0|r|b>*<b|del|0>)*] (Au)
       state          X           Y           Z        Dip. S.   Osc.(frdel)
         1        -0.0336     -0.0101     -0.0017      0.0454      0.0303
         2        -0.0002      0.0000     -0.0007      0.0009      0.0006
         3         0.0002      0.0001     -0.0001     -0.0002     -0.0001
         4        -0.0001     -0.0005     -0.0034      0.0040      0.0026
         5         0.0000     -0.0009     -0.0048      0.0057      0.0038
         6        -0.0800     -0.3518     -0.0026      0.4344      0.2896
         7        -0.0015     -0.0027     -0.0007      0.0050      0.0033
         8        -0.0626     -0.1400      0.0001      0.2024      0.1349
         9        -0.0011     -0.0116     -0.0181      0.0307      0.0205
        10        -0.0010     -0.0001     -0.0001      0.0013      0.0008
        11        -0.0016     -0.0007      0.0020      0.0002      0.0001
        12        -0.0004     -0.0022     -0.0026      0.0051      0.0034
        13         0.0000     -0.0001      0.0020     -0.0019     -0.0013
        14         0.0000      0.0001      0.0011     -0.0012     -0.0008
        15        -0.0006      0.0000     -0.0024      0.0030      0.0020

 Excitation energies and oscillator strengths:
 
 Excited State   1:      Singlet-A      4.3655 eV  284.01 nm  f=0.0846  <S**2>=0.000
      12 -> 15         0.20326
      13 -> 14         0.66813
 This state for optimization and/or second-order correction.
 Total Energy, E(CIS) =  0.177597841024    
 Copying the excited state density for this state as the 1-particle RhoCI density.
 
 Excited State   2:      Singlet-A      4.9784 eV  249.04 nm  f=0.0034  <S**2>=0.000
      12 -> 14        -0.42524
      13 -> 15         0.52168
      13 -> 16         0.19925
 
 Excited State   3:      Singlet-A      5.0161 eV  247.17 nm  f=0.0008  <S**2>=0.000
      12 -> 14         0.12913
      13 -> 15        -0.15568
      13 -> 16         0.66002
      13 -> 22         0.11094
 
 Excited State   4:      Singlet-A      5.7032 eV  217.39 nm  f=0.0016  <S**2>=0.000
      12 -> 16         0.14507
      12 -> 17         0.14431
      12 -> 18        -0.12880
      13 -> 17         0.41189
      13 -> 18        -0.33658
      13 -> 19        -0.12801
      13 -> 20        -0.17793
      13 -> 21        -0.11749
      13 -> 22         0.14337
      13 -> 23         0.15705
 
 Excited State   5:      Singlet-A      5.8894 eV  210.52 nm  f=0.0015  <S**2>=0.000
       7 -> 16        -0.19617
      12 -> 16         0.63922
      12 -> 22         0.11767
 
 Excited State   6:      Singlet-A      6.0622 eV  204.52 nm  f=0.3336  <S**2>=0.000
      12 -> 14         0.48887
      12 -> 15         0.18392
      13 -> 15         0.41225
 
 Excited State   7:      Singlet-A      6.1616 eV  201.22 nm  f=0.0043  <S**2>=0.000
      12 -> 17        -0.11856
      12 -> 19        -0.22805
      12 -> 21        -0.12934
      12 -> 22         0.10219
      12 -> 23        -0.13790
      13 -> 17         0.15768
      13 -> 19         0.44599
      13 -> 21         0.16584
      13 -> 22        -0.20579
      13 -> 23         0.19789
 
 Excited State   8:      Singlet-A      6.2672 eV  197.83 nm  f=0.1633  <S**2>=0.000
      12 -> 14        -0.13431
      12 -> 15         0.62910
      13 -> 14        -0.18636
 
 Excited State   9:      Singlet-A      6.4591 eV  191.95 nm  f=0.0118  <S**2>=0.000
      11 -> 14        -0.11338
      13 -> 17         0.36315
      13 -> 18         0.53880
      13 -> 19        -0.12239
 
 Excited State  10:      Singlet-A      6.9363 eV  178.75 nm  f=0.0014  <S**2>=0.000
      12 -> 17         0.26742
      12 -> 18         0.56058
      12 -> 20         0.13493
      12 -> 21        -0.11833
      12 -> 23         0.14737
      13 -> 18        -0.10346
      13 -> 19        -0.11492
 
 Excited State  11:      Singlet-A      7.0319 eV  176.32 nm  f=0.0023  <S**2>=0.000
       9 -> 14         0.28075
       9 -> 15         0.15929
      10 -> 14         0.40506
      11 -> 14        -0.36705
      11 -> 15        -0.24605
 
 Excited State  12:      Singlet-A      7.3186 eV  169.41 nm  f=0.0031  <S**2>=0.000
       8 -> 14        -0.10564
       9 -> 14        -0.12541
       9 -> 15         0.16317
      10 -> 14         0.40337
      10 -> 15        -0.24956
      11 -> 14         0.32575
      11 -> 15         0.16799
      12 -> 19         0.13703
      13 -> 19         0.10186
 
 Excited State  13:      Singlet-A      7.3444 eV  168.81 nm  f=0.0015  <S**2>=0.000
      10 -> 14        -0.17920
      10 -> 15         0.14069
      11 -> 14        -0.14623
      12 -> 17         0.27389
      12 -> 19         0.27604
      12 -> 23         0.10999
      13 -> 19         0.37031
      13 -> 21        -0.22121
 
 Excited State  14:      Singlet-A      7.4817 eV  165.72 nm  f=0.0002  <S**2>=0.000
       9 -> 14         0.11242
      12 -> 17         0.33402
      12 -> 18        -0.17989
      12 -> 19        -0.19464
      12 -> 22         0.20686
      12 -> 24        -0.10208
      13 -> 17        -0.24450
      13 -> 19        -0.10485
      13 -> 20        -0.18531
      13 -> 21         0.11247
      13 -> 22        -0.16863
      13 -> 24         0.24154
 
 Excited State  15:      Singlet-A      7.6345 eV  162.40 nm  f=0.0036  <S**2>=0.000
       9 -> 14        -0.17956
      11 -> 14        -0.19927
      12 -> 19        -0.15345
      12 -> 20         0.11543
      12 -> 22         0.15282
      13 -> 17        -0.20515
      13 -> 22         0.46119
      13 -> 23         0.22167
 SavETr:  write IOETrn=   770 NScale= 10 NData=  16 NLR=1 NState=   15 LETran=     280.
 The selected state is a singlet
 CISAX will form     1 AO SS matrices at one time.
 NMat=     1 NSing=     1 JSym2X= 0.
 Leave Link  914 at Tue Dec 15 16:27:19 2015, MaxMem=    33554432 cpu:         0.1
 (Enter /home/Applications/g09/g09/l1002.exe)
 Minotr:  Closed shell wavefunction.
          Computing CIS/TD-HF/TD-KS derivatives.
          Using Z-Vector for PSCF gradient.
          Skipping F1 and S1 gradient terms here.
          IDoAtm=111111111
          Direct CPHF calculation.
          Differentiating once with respect to electric field.
                with respect to dipole field.
          Differentiating once with respect to nuclear coordinates.
          Electric field/nuclear overlap derivatives assumed to be zero.
          Requested convergence is 1.0D-10 RMS, and 1.0D-09 maximum.
          NewPWx=T KeepS1=F KeepF1=F KeepIn=T MapXYZ=F SortEE=F KeepMc=T.
          MDV=      33495423 using IRadAn=       0.
 Keep J ints in memory in canonical form, NReq=871704.
 FoFCou: FMM=F IPFlag=           0 FMFlag=           0 FMFlg1=           0
         NFxFlg=           0 DoJE=F BraDBF=F KetDBF=F FulRan=T
         wScrn=  0.000000 ICntrl=     600 IOpCl=  2 I1Cent=           0 NGrid=           0
         NMat0=    1 NMatS0=     54 NMatT0=    0 NMatD0=    1 NMtDS0=    0 NMtDT0=    0
 Symmetry not used in FoFCou.
          Solving linear equations separately, MaxMat=       0.
          There are     1 degrees of freedom in the 1st order CPHF.  IDoFFX=0 NUNeed=     1.
 LinEq1:  Iter=  0 NonCon=     1 RMS=1.09D-02 Max=6.87D-02 NDo=     1
 AX will form     1 AO Fock derivatives at one time.
 LinEq1:  Iter=  1 NonCon=     1 RMS=2.07D-03 Max=1.48D-02 NDo=     1
 LinEq1:  Iter=  2 NonCon=     1 RMS=3.45D-04 Max=2.98D-03 NDo=     1
 LinEq1:  Iter=  3 NonCon=     1 RMS=5.21D-05 Max=3.05D-04 NDo=     1
 LinEq1:  Iter=  4 NonCon=     1 RMS=6.44D-06 Max=2.83D-05 NDo=     1
 LinEq1:  Iter=  5 NonCon=     1 RMS=1.06D-06 Max=5.04D-06 NDo=     1
 LinEq1:  Iter=  6 NonCon=     1 RMS=1.23D-07 Max=4.51D-07 NDo=     1
 LinEq1:  Iter=  7 NonCon=     1 RMS=1.35D-08 Max=5.21D-08 NDo=     1
 LinEq1:  Iter=  8 NonCon=     1 RMS=1.47D-09 Max=6.00D-09 NDo=     1
 LinEq1:  Iter=  9 NonCon=     1 RMS=2.00D-10 Max=6.57D-10 NDo=     1
 LinEq1:  Iter= 10 NonCon=     0 RMS=2.27D-11 Max=7.32D-11 NDo=     1
 Linear equations converged to 1.000D-10 1.000D-09 after    10 iterations.
 End of Minotr F.D. properties file   721 does not exist.
 End of Minotr F.D. properties file   722 does not exist.
 End of Minotr F.D. properties file   788 does not exist.
 Leave Link 1002 at Tue Dec 15 16:27:19 2015, MaxMem=    33554432 cpu:         0.0
 (Enter /home/Applications/g09/g09/l601.exe)
 Copying SCF densities to generalized density rwf, IOpCl= 0 IROHF=0.

 **********************************************************************

            Population analysis using the SCF density.

 **********************************************************************

 Orbital symmetries:
       Occupied  (A) (A) (A) (A) (A) (A) (A) (A) (A) (A) (A) (A)
                 (A)
       Virtual   (A) (A) (A) (A) (A) (A) (A) (A) (A) (A) (A)
 The electronic state is 1-A.
 Alpha  occ. eigenvalues --   -1.54270  -1.22469  -1.10040  -0.82788  -0.81131
 Alpha  occ. eigenvalues --   -0.68402  -0.59269  -0.56983  -0.51398  -0.50537
 Alpha  occ. eigenvalues --   -0.49455  -0.39113  -0.34610
 Alpha virt. eigenvalues --    0.02591   0.06012   0.09859   0.14017   0.14491
 Alpha virt. eigenvalues --    0.15689   0.17777   0.18245   0.19168   0.20722
 Alpha virt. eigenvalues --    0.21948
     Molecular Orbital Coefficients:
                           1         2         3         4         5
                           O         O         O         O         O
     Eigenvalues --    -1.54270  -1.22469  -1.10040  -0.82788  -0.81131
   1 1   C  1S          0.26189  -0.45075   0.33460   0.43810  -0.04739
   2        1PX         0.07842  -0.09687  -0.11158  -0.04722   0.24619
   3        1PY        -0.09220   0.02091  -0.13144   0.18521   0.21095
   4        1PZ        -0.00615   0.01060  -0.00806  -0.00538   0.00579
   5 2   C  1S          0.34366  -0.10624   0.52467  -0.36388  -0.24229
   6        1PX         0.17333   0.07875  -0.00809  -0.00639   0.19261
   7        1PY         0.01231  -0.20769   0.03247   0.28519  -0.18359
   8        1PZ         0.00853   0.00107   0.00929   0.00283   0.00683
   9 3   O  1S          0.64835   0.58707   0.00637   0.18008   0.23256
  10        1PX        -0.01647  -0.00070  -0.31512   0.39012  -0.29420
  11        1PY         0.19534  -0.02744  -0.04607  -0.04305  -0.17862
  12        1PZ        -0.01009  -0.00356  -0.00097   0.01485   0.01045
  13 4   C  1S          0.38875  -0.15399  -0.50319  -0.14452  -0.36383
  14        1PX        -0.17819  -0.01780  -0.02230  -0.10190  -0.10380
  15        1PY        -0.04032  -0.25038  -0.02451  -0.28111   0.24120
  16        1PZ         0.00609   0.00328  -0.00490   0.01292  -0.00125
  17 5   C  1S          0.29203  -0.48881  -0.25165  -0.09670   0.41790
  18        1PX        -0.04101   0.06785  -0.18524  -0.27737  -0.04724
  19        1PY        -0.12421   0.05022   0.10454   0.11734   0.21677
  20        1PZ         0.00232  -0.00323   0.00027   0.00826   0.00630
  21 6   H  1S          0.06314  -0.15625  -0.09675  -0.05459   0.27386
  22 7   H  1S          0.09272  -0.04300  -0.21433  -0.07690  -0.26641
  23 8   H  1S          0.08058  -0.01818   0.21082  -0.26426  -0.13359
  24 9   H  1S          0.05868  -0.14647   0.13289   0.28586  -0.03692
                           6         7         8         9        10
                           O         O         O         O         O
     Eigenvalues --    -0.68402  -0.59269  -0.56983  -0.51398  -0.50537
   1 1   C  1S         -0.09403   0.00979  -0.16330  -0.01029  -0.03283
   2        1PX         0.21152  -0.01011   0.13340  -0.34357   0.03754
   3        1PY        -0.20970  -0.03808  -0.12291   0.40765   0.24471
   4        1PZ         0.00274   0.20498   0.00313   0.00462   0.02285
   5 2   C  1S         -0.06614  -0.00614   0.14397  -0.07689   0.06241
   6        1PX         0.31601  -0.00636  -0.42437  -0.13507   0.19628
   7        1PY         0.15904   0.02771  -0.00471  -0.29666  -0.22977
   8        1PZ         0.01123   0.35756  -0.01500  -0.00132   0.01629
   9 3   O  1S         -0.19035   0.01660  -0.00771  -0.03849  -0.20116
  10        1PX        -0.05225  -0.02339   0.47624  -0.01132  -0.10831
  11        1PY         0.47320   0.00345   0.04389   0.21379   0.55583
  12        1PZ        -0.00865   0.77936   0.03288   0.02858   0.00428
  13 4   C  1S         -0.07471  -0.00070  -0.12603   0.07156   0.03002
  14        1PX        -0.40150   0.03450  -0.33629  -0.35528   0.07850
  15        1PY         0.03123   0.03331  -0.17926   0.19804  -0.39095
  16        1PZ         0.00430   0.40058   0.03480   0.01774   0.03472
  17 5   C  1S         -0.07374  -0.01072   0.18015  -0.02365  -0.03286
  18        1PX        -0.16190   0.02363  -0.01087   0.19649  -0.07792
  19        1PY        -0.25769  -0.01491   0.18846  -0.23327   0.44034
  20        1PZ         0.00218   0.23422   0.01697  -0.00156   0.03398
  21 6   H  1S         -0.22170  -0.00544   0.21841  -0.10340   0.26705
  22 7   H  1S         -0.28176   0.01694  -0.26957  -0.27523   0.18722
  23 8   H  1S         -0.24808  -0.01885   0.32684   0.17982   0.03961
  24 9   H  1S         -0.23219  -0.01443  -0.22713   0.41487   0.09597
                          11        12        13        14        15
                           O         O         O         V         V
     Eigenvalues --    -0.49455  -0.39113  -0.34610   0.02591   0.06012
   1 1   C  1S         -0.04997   0.02729   0.01979  -0.02116  -0.02891
   2        1PX        -0.44895  -0.01418  -0.00140  -0.00765   0.01233
   3        1PY        -0.27135  -0.01720  -0.00807  -0.01487  -0.00056
   4        1PZ        -0.01885   0.54077   0.44556  -0.43960  -0.51832
   5 2   C  1S          0.04227  -0.00563  -0.01853  -0.01135  -0.00362
   6        1PX         0.12899  -0.00171  -0.03373  -0.01976  -0.02166
   7        1PY         0.36815  -0.00337  -0.02489  -0.01824   0.00986
   8        1PZ         0.00694   0.12949   0.61869   0.62569   0.27779
   9 3   O  1S          0.05103  -0.00190  -0.00436  -0.00731   0.00005
  10        1PX         0.01491   0.00863   0.00355  -0.00049  -0.01432
  11        1PY         0.11665  -0.03209   0.00491  -0.01517  -0.00240
  12        1PZ        -0.01931  -0.50731  -0.01519  -0.35436   0.06753
  13 4   C  1S         -0.06824  -0.00082   0.01175  -0.00291   0.01544
  14        1PX        -0.05920  -0.00852  -0.01940  -0.00207  -0.01127
  15        1PY         0.07835   0.01323  -0.02290  -0.00485  -0.01590
  16        1PZ        -0.02359   0.23182  -0.55407   0.48772  -0.48609
  17 5   C  1S         -0.00384  -0.00916   0.00560   0.01738  -0.00868
  18        1PX         0.52392   0.03635  -0.01205  -0.01907  -0.00100
  19        1PY         0.21837  -0.01516   0.00888   0.00003  -0.00609
  20        1PZ        -0.03467   0.61247  -0.32731  -0.22125   0.64030
  21 6   H  1S          0.35672   0.00494   0.00360  -0.00820   0.01255
  22 7   H  1S         -0.12026  -0.01450  -0.00562   0.00380  -0.00932
  23 8   H  1S         -0.25674  -0.00573   0.01444  -0.00055  -0.00062
  24 9   H  1S          0.07265  -0.00550  -0.01306   0.01471   0.02446
                          16        17        18        19        20
                           V         V         V         V         V
     Eigenvalues --     0.09859   0.14017   0.14491   0.15689   0.17777
   1 1   C  1S          0.06849   0.41712   0.03513   0.07999  -0.03987
   2        1PX        -0.01666   0.09224   0.40326  -0.09922   0.34317
   3        1PY         0.01941  -0.14390   0.33518   0.31081   0.23384
   4        1PZ        -0.00780  -0.03885  -0.00635  -0.00607   0.00681
   5 2   C  1S         -0.28761  -0.38661   0.23067   0.17222   0.18272
   6        1PX        -0.35005   0.16747   0.20324  -0.34876  -0.08554
   7        1PY         0.27016  -0.09940   0.16966   0.08305   0.10986
   8        1PZ        -0.00637  -0.00560   0.03926  -0.00229   0.01692
   9 3   O  1S          0.23590  -0.01808   0.02578   0.03549   0.02613
  10        1PX        -0.11023  -0.09809   0.28735  -0.19074   0.08754
  11        1PY         0.49729  -0.03122   0.08113   0.00247   0.01175
  12        1PZ        -0.04074   0.00159  -0.00791  -0.00920  -0.00882
  13 4   C  1S         -0.25537   0.23042  -0.01807   0.40096  -0.14704
  14        1PX         0.17013   0.06189   0.34275  -0.01784  -0.11992
  15        1PY         0.35230  -0.01247   0.10015   0.19327   0.19101
  16        1PZ        -0.01213   0.00996  -0.00773   0.01217   0.00442
  17 5   C  1S          0.03785  -0.34289  -0.03572  -0.21016  -0.39908
  18        1PX        -0.00634   0.14608   0.43627  -0.19783   0.01399
  19        1PY         0.06119  -0.04287   0.12236   0.29084  -0.35688
  20        1PZ         0.00787  -0.01190  -0.00969  -0.00058  -0.02124
  21 6   H  1S         -0.13087   0.29274  -0.29634   0.01812   0.55942
  22 7   H  1S          0.27142  -0.27727  -0.28712  -0.26542   0.25224
  23 8   H  1S          0.25518   0.42436   0.06058  -0.35075  -0.13199
  24 9   H  1S         -0.14124  -0.23707   0.02355  -0.36182   0.10251
                          21        22        23        24
                           V         V         V         V
     Eigenvalues --     0.18245   0.19168   0.20722   0.21948
   1 1   C  1S         -0.41248   0.09291   0.10671   0.04840
   2        1PX         0.11788   0.11319   0.39138  -0.21500
   3        1PY        -0.16428  -0.27312  -0.34708  -0.16559
   4        1PZ         0.04470  -0.00282  -0.00370  -0.01472
   5 2   C  1S         -0.06672  -0.01918  -0.07732   0.08794
   6        1PX         0.02396  -0.38203  -0.18358   0.26474
   7        1PY         0.31905  -0.32579  -0.22398  -0.38525
   8        1PZ        -0.00419  -0.02549  -0.01860   0.01168
   9 3   O  1S          0.04269   0.07998  -0.00947   0.01875
  10        1PX        -0.08688  -0.03320  -0.05852   0.50869
  11        1PY         0.01687   0.24894  -0.04008   0.10457
  12        1PZ        -0.00866  -0.00918   0.00280   0.00253
  13 4   C  1S          0.25602  -0.06369   0.11388  -0.05067
  14        1PX         0.19120   0.44248  -0.32484   0.17751
  15        1PY         0.12849  -0.18049   0.19532   0.51877
  16        1PZ         0.00921  -0.00261   0.00292  -0.02279
  17 5   C  1S         -0.07840   0.08325  -0.20611  -0.09503
  18        1PX        -0.37290   0.07131   0.22604  -0.29337
  19        1PY         0.10641  -0.28029   0.41580   0.12884
  20        1PZ        -0.00705  -0.00747  -0.00812   0.01628
  21 6   H  1S          0.12293   0.10849  -0.20549   0.06943
  22 7   H  1S         -0.29871  -0.31285   0.18570   0.01110
  23 8   H  1S          0.22234  -0.35676  -0.14953  -0.06223
  24 9   H  1S          0.49128   0.14597   0.31206  -0.05361
     Density Matrix:
                           1         2         3         4         5
   1 1   C  1S          1.23662
   2        1PX        -0.04588   0.94933
   3        1PY         0.06742  -0.04113   0.93120
   4        1PZ         0.02648  -0.00113  -0.01398   1.06834
   5 2   C  1S          0.28855  -0.09721  -0.50453  -0.03785   1.26579
   6        1PX         0.04515   0.12163  -0.05883  -0.03062  -0.10125
   7        1PY         0.43810  -0.16074  -0.61256  -0.05102  -0.00562
   8        1PZ         0.05116  -0.01384  -0.03960   0.83822  -0.02175
   9 3   O  1S         -0.00238  -0.03330  -0.00879  -0.00658   0.09188
  10        1PX         0.01113  -0.02238  -0.05782  -0.00236  -0.34961
  11        1PY        -0.08192  -0.03485   0.05818  -0.00691   0.20618
  12        1PZ        -0.01179   0.00488   0.00164  -0.24134  -0.02125
  13 4   C  1S         -0.02744  -0.01326   0.01939   0.01012   0.01353
  14        1PX         0.02120  -0.01781  -0.01364  -0.01205  -0.00154
  15        1PY        -0.01407  -0.07843  -0.04301  -0.01098  -0.04061
  16        1PZ        -0.00550   0.00916   0.00892  -0.07600   0.01162
  17 5   C  1S          0.25845   0.44612   0.08675  -0.01418  -0.03075
  18        1PX        -0.46048  -0.65946  -0.15812   0.02317   0.01015
  19        1PY        -0.01790  -0.01764   0.10253  -0.00293   0.02089
  20        1PZ         0.03132   0.02227   0.00055   0.46960   0.00202
  21 6   H  1S         -0.04499  -0.06299  -0.00515   0.00549   0.05359
  22 7   H  1S          0.04750   0.06692   0.01280  -0.00728   0.04835
  23 8   H  1S         -0.06005   0.02098   0.10514   0.00931   0.61979
  24 9   H  1S          0.60031  -0.53869   0.53893  -0.03019  -0.05889
                           6         7         8         9        10
   6        1PX         0.85598
   7        1PY         0.08743   0.92486
   8        1PZ        -0.01278  -0.01025   1.05656
   9 3   O  1S          0.23533  -0.11663   0.01283   1.86541
  10        1PX        -0.59185   0.35480  -0.03681   0.03514   1.16114
  11        1PY         0.44798  -0.09187   0.02845  -0.28689  -0.03593
  12        1PZ        -0.05175   0.01697   0.40580   0.01778  -0.00887
  13 4   C  1S          0.01417  -0.03767   0.00694   0.10132   0.28357
  14        1PX         0.04120  -0.00891  -0.00329  -0.18811  -0.28946
  15        1PY         0.02969  -0.01313  -0.00716  -0.19346  -0.43709
  16        1PZ         0.00948   0.01170  -0.33921   0.01311   0.01910
  17 5   C  1S         -0.01668  -0.01437  -0.00681   0.00065   0.01554
  18        1PX        -0.05640   0.07316   0.00610   0.03452  -0.03656
  19        1PY         0.01419  -0.01787   0.00650   0.00007   0.02548
  20        1PZ         0.01141  -0.01072  -0.07856  -0.00475   0.00735
  21 6   H  1S          0.00414   0.05668   0.00662   0.02262   0.04208
  22 7   H  1S          0.09495  -0.03686   0.00176  -0.03892  -0.03747
  23 8   H  1S         -0.56060  -0.47609  -0.01329  -0.03880   0.05474
  24 9   H  1S         -0.03130  -0.06107  -0.01900   0.02001  -0.06031
                          11        12        13        14        15
  11        1PY         1.33994
  12        1PZ         0.03629   1.73562
  13 4   C  1S          0.31556  -0.01830   1.22718
  14        1PX        -0.50808   0.02905   0.10057   0.93109
  15        1PY        -0.38039   0.03115   0.01026  -0.08134   0.87046
  16        1PZ         0.03223   0.41068  -0.00970   0.00952   0.01242
  17 5   C  1S         -0.07781   0.00800   0.31566  -0.19315   0.43484
  18        1PX         0.00125  -0.01578   0.22669   0.01171   0.32928
  19        1PY         0.06588   0.00067  -0.45440   0.25700  -0.46960
  20        1PZ        -0.01023  -0.24343  -0.01153   0.01209   0.00805
  21 6   H  1S          0.09395  -0.00866  -0.05820   0.04533  -0.04572
  22 7   H  1S         -0.06682   0.00996   0.61529   0.69742  -0.25491
  23 8   H  1S         -0.06116   0.00977   0.04789  -0.06943  -0.05832
  24 9   H  1S          0.06876   0.00160   0.04812  -0.02172   0.05066
                          16        17        18        19        20
  16        1PZ         1.04950
  17 5   C  1S         -0.01079   1.22262
  18        1PX         0.01855   0.02756   0.93458
  19        1PY        -0.00563   0.07124   0.03854   0.97618
  20        1PZ         0.83966  -0.00796   0.01426  -0.00675   1.07976
  21 6   H  1S          0.00389   0.57383   0.37246   0.69019   0.00513
  22 7   H  1S          0.00243  -0.05782  -0.03257   0.07849   0.00135
  23 8   H  1S          0.00040   0.04406  -0.06092  -0.00679  -0.00080
  24 9   H  1S          0.00645  -0.04937   0.07455   0.00670  -0.00793
                          21        22        23        24
  21 6   H  1S          0.84384
  22 7   H  1S          0.00702   0.82224
  23 8   H  1S         -0.01543  -0.02149   0.81547
  24 9   H  1S         -0.00292  -0.01458   0.01606   0.83628
    Full Mulliken population analysis:
                           1         2         3         4         5
   1 1   C  1S          1.23662
   2        1PX         0.00000   0.94933
   3        1PY         0.00000   0.00000   0.93120
   4        1PZ         0.00000   0.00000   0.00000   1.06834
   5 2   C  1S          0.00000   0.00000   0.00000   0.00000   1.26579
   6        1PX         0.00000   0.00000   0.00000   0.00000   0.00000
   7        1PY         0.00000   0.00000   0.00000   0.00000   0.00000
   8        1PZ         0.00000   0.00000   0.00000   0.00000   0.00000
   9 3   O  1S          0.00000   0.00000   0.00000   0.00000   0.00000
  10        1PX         0.00000   0.00000   0.00000   0.00000   0.00000
  11        1PY         0.00000   0.00000   0.00000   0.00000   0.00000
  12        1PZ         0.00000   0.00000   0.00000   0.00000   0.00000
  13 4   C  1S          0.00000   0.00000   0.00000   0.00000   0.00000
  14        1PX         0.00000   0.00000   0.00000   0.00000   0.00000
  15        1PY         0.00000   0.00000   0.00000   0.00000   0.00000
  16        1PZ         0.00000   0.00000   0.00000   0.00000   0.00000
  17 5   C  1S          0.00000   0.00000   0.00000   0.00000   0.00000
  18        1PX         0.00000   0.00000   0.00000   0.00000   0.00000
  19        1PY         0.00000   0.00000   0.00000   0.00000   0.00000
  20        1PZ         0.00000   0.00000   0.00000   0.00000   0.00000
  21 6   H  1S          0.00000   0.00000   0.00000   0.00000   0.00000
  22 7   H  1S          0.00000   0.00000   0.00000   0.00000   0.00000
  23 8   H  1S          0.00000   0.00000   0.00000   0.00000   0.00000
  24 9   H  1S          0.00000   0.00000   0.00000   0.00000   0.00000
                           6         7         8         9        10
   6        1PX         0.85598
   7        1PY         0.00000   0.92486
   8        1PZ         0.00000   0.00000   1.05656
   9 3   O  1S          0.00000   0.00000   0.00000   1.86541
  10        1PX         0.00000   0.00000   0.00000   0.00000   1.16114
  11        1PY         0.00000   0.00000   0.00000   0.00000   0.00000
  12        1PZ         0.00000   0.00000   0.00000   0.00000   0.00000
  13 4   C  1S          0.00000   0.00000   0.00000   0.00000   0.00000
  14        1PX         0.00000   0.00000   0.00000   0.00000   0.00000
  15        1PY         0.00000   0.00000   0.00000   0.00000   0.00000
  16        1PZ         0.00000   0.00000   0.00000   0.00000   0.00000
  17 5   C  1S          0.00000   0.00000   0.00000   0.00000   0.00000
  18        1PX         0.00000   0.00000   0.00000   0.00000   0.00000
  19        1PY         0.00000   0.00000   0.00000   0.00000   0.00000
  20        1PZ         0.00000   0.00000   0.00000   0.00000   0.00000
  21 6   H  1S          0.00000   0.00000   0.00000   0.00000   0.00000
  22 7   H  1S          0.00000   0.00000   0.00000   0.00000   0.00000
  23 8   H  1S          0.00000   0.00000   0.00000   0.00000   0.00000
  24 9   H  1S          0.00000   0.00000   0.00000   0.00000   0.00000
                          11        12        13        14        15
  11        1PY         1.33994
  12        1PZ         0.00000   1.73562
  13 4   C  1S          0.00000   0.00000   1.22718
  14        1PX         0.00000   0.00000   0.00000   0.93109
  15        1PY         0.00000   0.00000   0.00000   0.00000   0.87046
  16        1PZ         0.00000   0.00000   0.00000   0.00000   0.00000
  17 5   C  1S          0.00000   0.00000   0.00000   0.00000   0.00000
  18        1PX         0.00000   0.00000   0.00000   0.00000   0.00000
  19        1PY         0.00000   0.00000   0.00000   0.00000   0.00000
  20        1PZ         0.00000   0.00000   0.00000   0.00000   0.00000
  21 6   H  1S          0.00000   0.00000   0.00000   0.00000   0.00000
  22 7   H  1S          0.00000   0.00000   0.00000   0.00000   0.00000
  23 8   H  1S          0.00000   0.00000   0.00000   0.00000   0.00000
  24 9   H  1S          0.00000   0.00000   0.00000   0.00000   0.00000
                          16        17        18        19        20
  16        1PZ         1.04950
  17 5   C  1S          0.00000   1.22262
  18        1PX         0.00000   0.00000   0.93458
  19        1PY         0.00000   0.00000   0.00000   0.97618
  20        1PZ         0.00000   0.00000   0.00000   0.00000   1.07976
  21 6   H  1S          0.00000   0.00000   0.00000   0.00000   0.00000
  22 7   H  1S          0.00000   0.00000   0.00000   0.00000   0.00000
  23 8   H  1S          0.00000   0.00000   0.00000   0.00000   0.00000
  24 9   H  1S          0.00000   0.00000   0.00000   0.00000   0.00000
                          21        22        23        24
  21 6   H  1S          0.84384
  22 7   H  1S          0.00000   0.82224
  23 8   H  1S          0.00000   0.00000   0.81547
  24 9   H  1S          0.00000   0.00000   0.00000   0.83628
     Gross orbital populations:
                           1
   1 1   C  1S          1.23662
   2        1PX         0.94933
   3        1PY         0.93120
   4        1PZ         1.06834
   5 2   C  1S          1.26579
   6        1PX         0.85598
   7        1PY         0.92486
   8        1PZ         1.05656
   9 3   O  1S          1.86541
  10        1PX         1.16114
  11        1PY         1.33994
  12        1PZ         1.73562
  13 4   C  1S          1.22718
  14        1PX         0.93109
  15        1PY         0.87046
  16        1PZ         1.04950
  17 5   C  1S          1.22262
  18        1PX         0.93458
  19        1PY         0.97618
  20        1PZ         1.07976
  21 6   H  1S          0.84384
  22 7   H  1S          0.82224
  23 8   H  1S          0.81547
  24 9   H  1S          0.83628
          Condensed to atoms (all electrons):
               1          2          3          4          5          6
     1  C    4.185488   0.000000   0.000000   0.000000   0.000000   0.000000
     2  C    0.000000   4.103196   0.000000   0.000000   0.000000   0.000000
     3  O    0.000000   0.000000   6.102110   0.000000   0.000000   0.000000
     4  C    0.000000   0.000000   0.000000   4.078232   0.000000   0.000000
     5  C    0.000000   0.000000   0.000000   0.000000   4.213146   0.000000
     6  H    0.000000   0.000000   0.000000   0.000000   0.000000   0.843839
     7  H    0.000000   0.000000   0.000000   0.000000   0.000000   0.000000
     8  H    0.000000   0.000000   0.000000   0.000000   0.000000   0.000000
     9  H    0.000000   0.000000   0.000000   0.000000   0.000000   0.000000
               7          8          9
     1  C    0.000000   0.000000   0.000000
     2  C    0.000000   0.000000   0.000000
     3  O    0.000000   0.000000   0.000000
     4  C    0.000000   0.000000   0.000000
     5  C    0.000000   0.000000   0.000000
     6  H    0.000000   0.000000   0.000000
     7  H    0.822239   0.000000   0.000000
     8  H    0.000000   0.815469   0.000000
     9  H    0.000000   0.000000   0.836281
 Mulliken charges:
               1
     1  C   -0.185488
     2  C   -0.103196
     3  O   -0.102110
     4  C   -0.078232
     5  C   -0.213146
     6  H    0.156161
     7  H    0.177761
     8  H    0.184531
     9  H    0.163719
 Sum of Mulliken charges =   0.00000
 Mulliken charges with hydrogens summed into heavy atoms:
               1
     1  C   -0.021769
     2  C    0.081335
     3  O   -0.102110
     4  C    0.099529
     5  C   -0.056985
 Charge=              0.0000 electrons
 Dipole moment (field-independent basis, Debye):
    X=             -0.1143    Y=              0.4750    Z=             -0.0771  Tot=              0.4946
 N-N= 1.030213028192D+02 E-N=-1.702837880333D+02  KE=-1.651517980528D+01
 Orbital energies and kinetic energies (alpha):
                                 1                 2
   1         O                -1.542703         -1.295952
   2         O                -1.224694         -1.042841
   3         O                -1.100399         -0.964413
   4         O                -0.827877         -0.723897
   5         O                -0.811310         -0.715458
   6         O                -0.684017         -0.601750
   7         O                -0.592690         -0.480573
   8         O                -0.569828         -0.504832
   9         O                -0.513980         -0.441889
  10         O                -0.505370         -0.408882
  11         O                -0.494552         -0.423512
  12         O                -0.391134         -0.340072
  13         O                -0.346095         -0.313518
  14         V                 0.025914         -0.199541
  15         V                 0.060120         -0.192550
  16         V                 0.098592         -0.182154
  17         V                 0.140170         -0.244292
  18         V                 0.144910         -0.152479
  19         V                 0.156886         -0.187416
  20         V                 0.177773         -0.198215
  21         V                 0.182445         -0.191700
  22         V                 0.191679         -0.134648
  23         V                 0.207218         -0.127981
  24         V                 0.219478         -0.050349
 Total kinetic energy from orbitals=-1.651517980528D+01
 Leave Link  601 at Tue Dec 15 16:27:19 2015, MaxMem=    33554432 cpu:         0.0
 (Enter /home/Applications/g09/g09/l701.exe)
 Compute integral first derivatives.
 ... and contract with generalized density number  6.
 Leave Link  701 at Tue Dec 15 16:27:19 2015, MaxMem=    33554432 cpu:         0.0
 (Enter /home/Applications/g09/g09/l702.exe)
 L702 exits ... SP integral derivatives will be done elsewhere.
 Leave Link  702 at Tue Dec 15 16:27:19 2015, MaxMem=    33554432 cpu:         0.0
 (Enter /home/Applications/g09/g09/l703.exe)
 Compute integral first derivatives, UseDBF=F ICtDFT=           0.
 Integral derivatives from FoFJK, PRISM(SPDF).
 Calling FoFJK, ICntrl=  10005127 FMM=F ISym2X=0 I1Cent= 0 IOpClX= 0 NMat=1 NMatS=1 NMatT=0.
 FoFJK:  IHMeth= 8 ICntrl=10005127 DoSepK=F KAlg= 0 I1Cent=   0 FoldK=F
 IRaf=         0 NMat=   1 IRICut=       1 DoRegI=T DoRafI=F ISym2E= 0.
 FoFCou: FMM=F IPFlag=           0 FMFlag=      100000 FMFlg1=         800
         NFxFlg=           0 DoJE=F BraDBF=F KetDBF=F FulRan=T
         wScrn=  0.000000 ICntrl=10005127 IOpCl=  0 I1Cent=           0 NGrid=           0
         NMat0=    1 NMatS0=      1 NMatT0=    0 NMatD0=    1 NMtDS0=    0 NMtDT0=    0
 Symmetry not used in FoFCou.
 Leave Link  703 at Tue Dec 15 16:27:19 2015, MaxMem=    33554432 cpu:         0.0
 (Enter /home/Applications/g09/g09/l716.exe)
 Dipole        = 3.53284808D-02 2.85811487D-01-5.68172559D-02
 ***** Axes restored to original set *****
 -------------------------------------------------------------------
 Center     Atomic                   Forces (Hartrees/Bohr)
 Number     Number              X              Y              Z
 -------------------------------------------------------------------
      1        6          -0.006987691    0.061234134    0.014253421
      2        6           0.000179501    0.008619096   -0.009047581
      3        8          -0.057375596   -0.024320102   -0.000781704
      4        6          -0.047903973    0.016682291    0.000910717
      5        6           0.129159819   -0.062166011   -0.009184296
      6        1           0.000574212   -0.001795569    0.001602905
      7        1          -0.026253023    0.041584961    0.001776206
      8        1          -0.012764838   -0.029787685    0.003260305
      9        1           0.021371590   -0.010051115   -0.002789974
 -------------------------------------------------------------------
 Cartesian Forces:  Max     0.129159819 RMS     0.036158706
 Z-matrix is all fixed cartesians, so copy forces.
 Force constants in Cartesian coordinates: 
                1             2             3             4             5 
      1  0.839012D+00
      2 -0.760118D-01  0.741151D+00
      3 -0.298892D-03 -0.305418D-02  0.174688D+00
      4 -0.410119D+00 -0.848056D-01  0.167217D-01  0.834936D+00
      5 -0.635768D-01 -0.196985D+00  0.725678D-02  0.537309D-01  0.841555D+00
      6  0.192525D-01  0.712276D-02 -0.875951D-01 -0.882550D-02 -0.241561D-01
      7 -0.832110D-02  0.269477D-01 -0.175600D-02 -0.258894D+00  0.139714D+00
      8 -0.617565D-02  0.200522D-01 -0.672577D-03  0.179616D+00 -0.321567D+00
      9  0.115650D-02 -0.201287D-02  0.476237D-02 -0.123634D-01  0.135093D-01
     10  0.934834D-02  0.637697D-03  0.141972D-03  0.234670D-01  0.176457D-01
     11  0.344580D-01  0.230853D-02 -0.180569D-03 -0.172695D-01 -0.129955D-01
     12  0.231985D-02 -0.146381D-03  0.221464D-03  0.150403D-02  0.132457D-02
     13 -0.161086D+00  0.243562D-01  0.376191D-03  0.972702D-02 -0.321568D-01
     14  0.277379D-02 -0.361796D+00 -0.143553D-01  0.661933D-03 -0.224058D-02
     15  0.371225D-03 -0.180297D-01 -0.714175D-01 -0.307483D-03  0.215241D-02
     16  0.171024D-01  0.115027D-02 -0.204349D-03  0.742170D-05 -0.510511D-05
     17 -0.219684D-01 -0.148959D-02  0.536542D-03 -0.656379D-05  0.451499D-05
     18 -0.237263D-02 -0.815222D-03  0.149389D-01  0.160536D-03 -0.110427D-03
     19  0.000000D+00 -0.156116D-05  0.350366D-04  0.155554D-04  0.000000D+00
     20  0.000000D+00 -0.154832D-05  0.347484D-04  0.697927D-05  0.000000D+00
     21 -0.684035D-04 -0.347043D-03  0.778858D-02 -0.337746D-03 -0.189839D-04
     22  0.764851D-02 -0.249737D-01  0.319075D-03 -0.193785D+00 -0.132569D+00
     23 -0.445994D-02  0.146418D-01  0.340905D-03 -0.124955D+00 -0.330506D+00
     24  0.207748D-03  0.325403D-02  0.261284D-01  0.169002D-02  0.250293D-02
     25 -0.293585D+00  0.132701D+00 -0.153348D-01 -0.535546D-02  0.172160D-01
     26  0.134961D+00 -0.217882D+00  0.100937D-01 -0.697931D-02  0.227344D-01
     27 -0.205679D-01  0.140286D-01 -0.695153D-01  0.175784D-02 -0.246052D-02
                6             7             8             9            10 
      6  0.171105D+00
      7 -0.108897D-01  0.515066D+00
      8  0.141012D-01  0.283917D-01  0.669990D+00
      9 -0.406944D-01  0.270721D-01  0.319331D-02  0.523439D-01
     10  0.180270D-02 -0.283854D+00 -0.206766D+00 -0.164556D-01  0.999015D+00
     11 -0.125769D-02 -0.164236D+00 -0.372839D+00 -0.155130D-01 -0.497365D-01
     12 -0.127463D-02 -0.149848D-01 -0.170422D-01 -0.480243D-01  0.142939D-01
     13 -0.214045D-02 -0.811438D-02  0.593139D-02 -0.210500D-03 -0.560256D+00
     14 -0.676420D-04 -0.299070D-01  0.219308D-01 -0.201621D-03  0.110505D+00
     15 -0.148141D-02 -0.206693D-02  0.622081D-03  0.912637D-02  0.296146D-02
     16  0.127363D-03  0.000000D+00 -0.217556D-05  0.458981D-04 -0.495220D-02
     17 -0.112640D-03  0.000000D+00 -0.372594D-05  0.786064D-04  0.635193D-02
     18  0.275494D-02 -0.714353D-04 -0.354464D-03  0.747816D-02  0.182757D-03
     19 -0.225515D-03  0.229476D-01 -0.168430D-01  0.664389D-03 -0.182777D+00
     20 -0.101182D-03  0.114080D-01 -0.837380D-02  0.341489D-03  0.121368D+00
     21  0.489647D-02  0.139387D-02 -0.129680D-02  0.507250D-02 -0.264192D-02
     22  0.291902D-02  0.211686D-01  0.158434D-01  0.323041D-04  0.528978D-05
     23  0.512277D-02 -0.123314D-01 -0.922427D-02  0.865686D-04 -0.824385D-05
     24 -0.695653D-01  0.118250D-02  0.113442D-02  0.522548D-02 -0.255586D-03
     25 -0.202043D-02  0.149194D-05  0.390164D-05  0.583353D-04  0.322210D-05
     26 -0.651478D-03  0.132540D-04  0.346612D-04  0.518237D-03  0.152090D-05
     27  0.218541D-01  0.120456D-03  0.315011D-03  0.470988D-02 -0.296981D-04
               11            12            13            14            15 
     11  0.946927D+00
     12  0.188049D-01  0.207601D+00
     13  0.898259D-01 -0.158243D-02  0.951115D+00
     14 -0.222104D+00 -0.258826D-02  0.122249D-02  0.748596D+00
     15 -0.361713D-02 -0.109566D+00 -0.502396D-02  0.158304D-01  0.198306D+00
     16 -0.182853D-01  0.575632D-03 -0.256127D+00 -0.114550D+00  0.332296D-02
     17  0.234473D-01 -0.226493D-03 -0.116036D+00 -0.199833D+00  0.700251D-03
     18  0.336668D-03  0.278270D-01  0.521893D-02  0.179619D-02 -0.768425D-01
     19  0.125226D+00 -0.168260D-02  0.763872D-02  0.281975D-01 -0.288055D-03
     20 -0.364751D+00 -0.725487D-04  0.379681D-02  0.140147D-01 -0.733246D-04
     21  0.159184D-02 -0.838706D-01  0.177737D-03  0.275029D-03  0.313773D-01
     22  0.000000D+00 -0.766886D-04  0.148968D-04 -0.102469D-04  0.255641D-03
     23  0.000000D+00  0.119515D-03 -0.249884D-05  0.171886D-05 -0.428822D-04
     24 -0.143659D-04  0.370536D-02  0.307106D-03 -0.211247D-03  0.527021D-02
     25  0.163472D-04 -0.366876D-03  0.170878D-01  0.110622D-02  0.775140D-03
     26  0.771622D-05 -0.173173D-03  0.230625D-01  0.143094D-02  0.245788D-02
     27 -0.150672D-03  0.338149D-02  0.287738D-02 -0.477562D-03  0.152274D-01
               16            17            18            19            20 
     16  0.243947D+00
     17  0.131681D+00  0.177885D+00
     18 -0.357372D-02 -0.103885D-02  0.409297D-01
     19  0.000000D+00  0.000000D+00 -0.556650D-04  0.152175D+00
     20  0.000000D+00  0.000000D+00 -0.552071D-04 -0.136579D+00  0.359112D+00
     21 -0.759483D-04 -0.130071D-03 -0.123742D-01  0.155241D-02 -0.739751D-04
     22  0.000000D+00  0.000000D+00  0.000000D+00  0.000000D+00  0.000000D+00
     23  0.000000D+00  0.000000D+00  0.000000D+00  0.000000D+00  0.000000D+00
     24  0.000000D+00  0.000000D+00  0.000000D+00  0.000000D+00  0.000000D+00
     25  0.236344D-04 -0.209024D-04  0.511227D-03  0.000000D+00  0.000000D+00
     26  0.111559D-04 -0.986636D-05  0.241310D-03  0.000000D+00  0.000000D+00
     27 -0.217838D-03  0.192657D-03 -0.471198D-02  0.000000D+00  0.000000D+00
               21            22            23            24            25 
     21  0.471100D-01
     22  0.000000D+00  0.164953D+00
     23  0.000000D+00  0.141756D+00  0.325079D+00
     24  0.000000D+00 -0.302290D-02 -0.569841D-02  0.380275D-01
     25  0.000000D+00 -0.528197D-05  0.000000D+00 -0.108891D-03  0.281830D+00
     26  0.000000D+00 -0.469238D-04  0.787116D-05 -0.967363D-03 -0.151023D+00
     27  0.000000D+00 -0.426456D-03  0.715353D-04 -0.879166D-02  0.164863D-01
               26            27 
     26  0.193676D+00
     27 -0.115191D-01  0.378461D-01
 Leave Link  716 at Tue Dec 15 16:27:19 2015, MaxMem=    33554432 cpu:         0.0
 (Enter /home/Applications/g09/g09/l103.exe)

 GradGradGradGradGradGradGradGradGradGradGradGradGradGradGradGradGradGrad
 Berny optimization.
 Search for a local minimum.
 Step number   1 out of a maximum of    2
 All quantities printed in internal units (Hartrees-Bohrs-Radians)
 Second derivative matrix not updated -- first step.
 ITU=  0
     Eigenvalues ---    0.01577   0.02971   0.07124   0.07575   0.08124
     Eigenvalues ---    0.08219   0.12795   0.13452   0.16379   0.24277
     Eigenvalues ---    0.25753   0.29420   0.37413   0.46221   0.65615
     Eigenvalues ---    0.84996   1.05284   1.29120   1.38987   1.45918
     Eigenvalues ---    1.68491
 Quadratic step=4.138D-01 exceeds max=3.000D-01 adjusted using Lamda=-5.919D-02.
 Angle between NR and scaled steps=  16.38 degrees.
 Angle between quadratic step and forces=  38.48 degrees.
 Linear search not attempted -- first point.
 TrRot= -0.008801  0.000072 -0.000337 -0.880787 -0.000991  0.880301
 Variable       Old X    -DE/DX   Delta X   Delta X   Delta X     New X
                                 (Linear)    (Quad)   (Total)
    X1        1.89982  -0.00699   0.00000   0.02475   0.01533   1.91515
    Y1       -1.34644   0.06123   0.00000   0.05708   0.05620  -1.29024
    Z1       -0.05737   0.01425   0.00000   0.04409   0.04595  -0.01142
    X2       -0.65231   0.00018   0.00000  -0.02748  -0.03734  -0.68965
    Y2       -2.12657   0.00862   0.00000   0.00688   0.00731  -2.11926
    Z2        0.06008  -0.00905   0.00000  -0.02730  -0.02645   0.03363
    X3       -2.23849  -0.05738   0.00000  -0.12712  -0.13592  -2.37441
    Y3       -0.00704  -0.02432   0.00000  -0.02506  -0.02387  -0.03091
    Z3       -0.04111  -0.00078   0.00000   0.00780   0.00599  -0.03512
    X4       -0.71592  -0.04790   0.00000  -0.03004  -0.03787  -0.75379
    Y4        2.07184   0.01668   0.00000   0.00985   0.01033   2.08217
    Z4        0.07197   0.00091   0.00000  -0.00534  -0.00774   0.06423
    X5        1.71567   0.12916   0.00000   0.13767   0.12951   1.84519
    Y5        1.41304  -0.06217   0.00000  -0.03835  -0.03914   1.37389
    Z5        0.06397  -0.00918   0.00000  -0.02357  -0.02378   0.04018
    X6        3.34151   0.00057   0.00000   0.11887   0.11133   3.45285
    Y6        2.68127  -0.00180   0.00000  -0.03580  -0.03739   2.64388
    Z6        0.04066   0.00160   0.00000  -0.00665  -0.00682   0.03384
    X7       -1.58264  -0.02625   0.00000  -0.08355  -0.09051  -1.67315
    Y7        3.81575   0.04158   0.00000   0.09233   0.09328   3.90903
    Z7        0.06809   0.00178   0.00000   0.01983   0.01545   0.08354
    X8       -1.64616  -0.01276   0.00000  -0.00035  -0.01111  -1.65727
    Y8       -3.82935  -0.02979   0.00000  -0.08681  -0.08587  -3.91521
    Z8        0.09443   0.00326   0.00000  -0.00334  -0.00173   0.09271
    X9        3.48775   0.02137   0.00000   0.06663   0.05657   3.54432
    Y9       -2.53688  -0.01005   0.00000   0.02077   0.01915  -2.51773
    Z9        0.05395  -0.00279   0.00000  -0.00471  -0.00088   0.05307
         Item               Value     Threshold  Converged?
 Maximum Force            0.129160     0.000450     NO 
 RMS     Force            0.036159     0.000300     NO 
 Maximum Displacement     0.135918     0.001800     NO 
 RMS     Displacement     0.057491     0.001200     NO 
 Predicted change in Energy=-2.472744D-02
 GradGradGradGradGradGradGradGradGradGradGradGradGradGradGradGradGradGrad

 Leave Link  103 at Tue Dec 15 16:27:19 2015, MaxMem=    33554432 cpu:         0.0
 (Enter /home/Applications/g09/g09/l9999.exe)
 1\1\GINC-DUSTIN-DESKTOP\Force\RAM1-FC\STO-3G\C4H4O1\DUSTIN\15-Dec-2015
 \0\\#P AM1(Input,print) CIS(Singlets,NStates=15) pop(full) force\\AM1-
 Reparam Input\\0,1\C,1.005342,-0.712507,-0.030359\C,-0.345189,-1.12533
 ,0.031792\O,-1.184558,-0.003728,-0.021757\C,-0.378847,1.096368,0.03808
 4\C,0.907896,0.747746,0.033851\H,1.768253,1.418867,0.021516\H,-0.83749
 6,2.019209,0.03603\H,-0.87111,-2.026403,0.049971\H,1.845638,-1.342458,
 0.028548\\Version=ES64L-G09RevD.01\State=1-A\HF=0.0171702\RMSD=8.984e-
 09\RMSF=3.616e-02\Dipole=0.2758896,0.0816235,0.0581984\PG=C01 [X(C4H4O
 1)]\\@


 ACCORDING TO HEN3RY, LIFE IS MUCH LIKE A SEWER........
 YOU GET OUT OF IT JUST WHAT YOU PUT INTO IT...........
                         TOM LEHRER - (THE 3 IS SILENT)
 Job cpu time:       0 days  0 hours  0 minutes  0.4 seconds.
 File lengths (MBytes):  RWF=      7 Int=      0 D2E=      0 Chk=      2 Scr=      1
 Normal termination of Gaussian 09 at Tue Dec 15 16:27:19 2015.
