 Entering Gaussian System, Link 0=g09
 Input=FuranDFT_74.com
 Output=FuranDFT_74.log
 Initial command:
 /home/Applications/g09/g09/l1.exe "/home/Applications/g09/scratch/Gau-6221.inp" -scrdir="/home/Applications/g09/scratch/"
 Entering Link 1 = /home/Applications/g09/g09/l1.exe PID=      6223.
  
 Copyright (c) 1988,1990,1992,1993,1995,1998,2003,2009,2013,
            Gaussian, Inc.  All Rights Reserved.
  
 This is part of the Gaussian(R) 09 program.  It is based on
 the Gaussian(R) 03 system (copyright 2003, Gaussian, Inc.),
 the Gaussian(R) 98 system (copyright 1998, Gaussian, Inc.),
 the Gaussian(R) 94 system (copyright 1995, Gaussian, Inc.),
 the Gaussian 92(TM) system (copyright 1992, Gaussian, Inc.),
 the Gaussian 90(TM) system (copyright 1990, Gaussian, Inc.),
 the Gaussian 88(TM) system (copyright 1988, Gaussian, Inc.),
 the Gaussian 86(TM) system (copyright 1986, Carnegie Mellon
 University), and the Gaussian 82(TM) system (copyright 1983,
 Carnegie Mellon University). Gaussian is a federally registered
 trademark of Gaussian, Inc.
  
 This software contains proprietary and confidential information,
 including trade secrets, belonging to Gaussian, Inc.
  
 This software is provided under written license and may be
 used, copied, transmitted, or stored only in accord with that
 written license.
  
 The following legend is applicable only to US Government
 contracts under FAR:
  
                    RESTRICTED RIGHTS LEGEND
  
 Use, reproduction and disclosure by the US Government is
 subject to restrictions as set forth in subparagraphs (a)
 and (c) of the Commercial Computer Software - Restricted
 Rights clause in FAR 52.227-19.
  
 Gaussian, Inc.
 340 Quinnipiac St., Bldg. 40, Wallingford CT 06492
  
  
 ---------------------------------------------------------------
 Warning -- This program may not be used in any manner that
 competes with the business of Gaussian, Inc. or will provide
 assistance to any competitor of Gaussian, Inc.  The licensee
 of this program is prohibited from giving any competitor of
 Gaussian, Inc. access to this program.  By using this program,
 the user acknowledges that Gaussian, Inc. is engaged in the
 business of creating and licensing software in the field of
 computational chemistry and represents and warrants to the
 licensee that it is not a competitor of Gaussian, Inc. and that
 it will not use this program in any manner prohibited above.
 ---------------------------------------------------------------
  

 Cite this work as:
 Gaussian 09, Revision D.01,
 M. J. Frisch, G. W. Trucks, H. B. Schlegel, G. E. Scuseria, 
 M. A. Robb, J. R. Cheeseman, G. Scalmani, V. Barone, B. Mennucci, 
 G. A. Petersson, H. Nakatsuji, M. Caricato, X. Li, H. P. Hratchian, 
 A. F. Izmaylov, J. Bloino, G. Zheng, J. L. Sonnenberg, M. Hada, 
 M. Ehara, K. Toyota, R. Fukuda, J. Hasegawa, M. Ishida, T. Nakajima, 
 Y. Honda, O. Kitao, H. Nakai, T. Vreven, J. A. Montgomery, Jr., 
 J. E. Peralta, F. Ogliaro, M. Bearpark, J. J. Heyd, E. Brothers, 
 K. N. Kudin, V. N. Staroverov, T. Keith, R. Kobayashi, J. Normand, 
 K. Raghavachari, A. Rendell, J. C. Burant, S. S. Iyengar, J. Tomasi, 
 M. Cossi, N. Rega, J. M. Millam, M. Klene, J. E. Knox, J. B. Cross, 
 V. Bakken, C. Adamo, J. Jaramillo, R. Gomperts, R. E. Stratmann, 
 O. Yazyev, A. J. Austin, R. Cammi, C. Pomelli, J. W. Ochterski, 
 R. L. Martin, K. Morokuma, V. G. Zakrzewski, G. A. Voth, 
 P. Salvador, J. J. Dannenberg, S. Dapprich, A. D. Daniels, 
 O. Farkas, J. B. Foresman, J. V. Ortiz, J. Cioslowski, 
 and D. J. Fox, Gaussian, Inc., Wallingford CT, 2013.
 
 ******************************************
 Gaussian 09:  ES64L-G09RevD.01 24-Apr-2013
                15-Dec-2015 
 ******************************************
 -------------------------------------------------------
 #P B3LYP/3-21G CIS(Singlets,NStates=15) pop(full) force
 -------------------------------------------------------
 1/10=7,30=1,38=1/1,3;
 2/12=2,17=6,18=5,40=1/2;
 3/5=5,11=9,16=1,25=1,30=1,71=1,74=-5/1,2,8,3;
 4//1;
 5/5=2,38=5/2;
 8/6=1,10=1,108=15/1;
 9/15=2,41=15,42=1,48=1/14;
 10/5=4/2;
 6/7=3,18=1/1;
 7/12=6,13=5,29=1/1,2,3,16;
 1/10=7,30=1/3;
 99//99;
 Leave Link    1 at Tue Dec 15 16:25:41 2015, MaxMem=           0 cpu:         0.0
 (Enter /home/Applications/g09/g09/l101.exe)
 --------
 FuranDFT
 --------
 Symbolic Z-matrix:
 Charge =  0 Multiplicity = 1
 6                     0.95099  -0.70373  -0.03953 
 6                    -0.39206  -1.07117  -0.03814 
 8                    -1.17825  -0.03723  -0.00474 
 6                    -0.31222   1.09285   0.00305 
 6                     0.996     0.70052   0.04937 
 1                     1.83788   1.34498  -0.01978 
 1                    -0.87133   2.05059   0.04889 
 1                    -0.82193  -2.0309    0.00302 
 1                     1.84511  -1.3596    0.04577 
 
 NAtoms=      9 NQM=        9 NQMF=       0 NMMI=      0 NMMIF=      0
                NMic=       0 NMicF=      0.
                    Isotopes and Nuclear Properties:
 (Nuclear quadrupole moments (NQMom) in fm**2, nuclear magnetic moments (NMagM)
  in nuclear magnetons)

  Atom         1           2           3           4           5           6           7           8           9
 IAtWgt=          12          12          16          12          12           1           1           1           1
 AtmWgt=  12.0000000  12.0000000  15.9949146  12.0000000  12.0000000   1.0078250   1.0078250   1.0078250   1.0078250
 NucSpn=           0           0           0           0           0           1           1           1           1
 AtZEff=   0.0000000   0.0000000   0.0000000   0.0000000   0.0000000   0.0000000   0.0000000   0.0000000   0.0000000
 NQMom=    0.0000000   0.0000000   0.0000000   0.0000000   0.0000000   0.0000000   0.0000000   0.0000000   0.0000000
 NMagM=    0.0000000   0.0000000   0.0000000   0.0000000   0.0000000   2.7928460   2.7928460   2.7928460   2.7928460
 AtZNuc=   6.0000000   6.0000000   8.0000000   6.0000000   6.0000000   1.0000000   1.0000000   1.0000000   1.0000000
 Leave Link  101 at Tue Dec 15 16:25:41 2015, MaxMem=    33554432 cpu:         0.0
 (Enter /home/Applications/g09/g09/l103.exe)

 GradGradGradGradGradGradGradGradGradGradGradGradGradGradGradGradGradGrad
 Berny optimization.
 Initialization pass.
 Trust Radius=3.00D-01 FncErr=1.00D-07 GrdErr=1.00D-07
 Number of steps in this run=      2 maximum allowed number of steps=      2.
 GradGradGradGradGradGradGradGradGradGradGradGradGradGradGradGradGradGrad

 Leave Link  103 at Tue Dec 15 16:25:41 2015, MaxMem=    33554432 cpu:         0.0
 (Enter /home/Applications/g09/g09/l202.exe)
                          Input orientation:                          
 ---------------------------------------------------------------------
 Center     Atomic      Atomic             Coordinates (Angstroms)
 Number     Number       Type             X           Y           Z
 ---------------------------------------------------------------------
      1          6           0        0.950990   -0.703729   -0.039530
      2          6           0       -0.392062   -1.071166   -0.038143
      3          8           0       -1.178249   -0.037227   -0.004738
      4          6           0       -0.312223    1.092854    0.003046
      5          6           0        0.996000    0.700521    0.049368
      6          1           0        1.837880    1.344979   -0.019777
      7          1           0       -0.871334    2.050590    0.048894
      8          1           0       -0.821929   -2.030903    0.003024
      9          1           0        1.845109   -1.359603    0.045773
 ---------------------------------------------------------------------
                    Distance matrix (angstroms):
                    1          2          3          4          5
     1  C    0.000000
     2  C    1.392408   0.000000
     3  O    2.231388   1.299321   0.000000
     4  C    2.196641   2.165884   1.423778   0.000000
     5  C    1.407781   2.252387   2.296641   1.366572   0.000000
     6  H    2.232525   3.287968   3.317794   2.164955   1.062483
     7  H    3.303779   3.159531   2.110937   1.109939   2.304262
     8  H    2.215049   1.052414   2.025282   3.165068   3.281416
     9  H    1.112158   2.257249   3.300291   3.266566   2.228253
                    6          7          8          9
     6  H    0.000000
     7  H    2.800436   0.000000
     8  H    4.297870   4.082050   0.000000
     9  H    2.705386   4.359873   2.750557   0.000000
 Stoichiometry    C4H4O
 Framework group  C1[X(C4H4O)]
 Deg. of freedom    21
 Full point group                 C1      NOp   1
 Largest Abelian subgroup         C1      NOp   1
 Largest concise Abelian subgroup C1      NOp   1
                         Standard orientation:                         
 ---------------------------------------------------------------------
 Center     Atomic      Atomic             Coordinates (Angstroms)
 Number     Number       Type             X           Y           Z
 ---------------------------------------------------------------------
      1          6           0       -0.257164    1.151475   -0.027852
      2          6           0        0.996723    0.546250   -0.011402
      3          8           0        0.909943   -0.750057    0.005757
      4          6           0       -0.485246   -1.033249   -0.014089
      5          6           0       -1.214787    0.121354    0.032600
      6          1           0       -2.271530    0.189291   -0.054279
      7          1           0       -0.693412   -2.123085    0.015739
      8          1           0        1.950343    0.986965    0.051470
      9          1           0       -0.502104    2.232304    0.065469
 ---------------------------------------------------------------------
 Rotational constants (GHZ):      9.8309962      8.8764624      4.6677570
 Leave Link  202 at Tue Dec 15 16:25:41 2015, MaxMem=    33554432 cpu:         0.0
 (Enter /home/Applications/g09/g09/l301.exe)
 Standard basis: 3-21G (6D, 7F)
 Ernie: Thresh=  0.10000D-02 Tol=  0.10000D-05 Strict=F.
 There are    53 symmetry adapted cartesian basis functions of A   symmetry.
 There are    53 symmetry adapted basis functions of A   symmetry.
    53 basis functions,    87 primitive gaussians,    53 cartesian basis functions
    18 alpha electrons       18 beta electrons
       nuclear repulsion energy       160.6447206705 Hartrees.
 IExCor=  402 DFT=T Ex+Corr=B3LYP ExCW=0 ScaHFX=  0.200000
 ScaDFX=  0.800000  0.720000  1.000000  0.810000 ScalE2=  1.000000  1.000000
 IRadAn=      0 IRanWt=     -1 IRanGd=            0 ICorTp=0 IEmpDi=  4
 NAtoms=    9 NActive=    9 NUniq=    9 SFac= 1.00D+00 NAtFMM=   60 NAOKFM=F Big=F
 Integral buffers will be    131072 words long.
 Regular integral format.
 Two-electron integral symmetry is turned on.
 Leave Link  301 at Tue Dec 15 16:25:41 2015, MaxMem=    33554432 cpu:         0.0
 (Enter /home/Applications/g09/g09/l302.exe)
 NPDir=0 NMtPBC=     1 NCelOv=     1 NCel=       1 NClECP=     1 NCelD=      1
         NCelK=      1 NCelE2=     1 NClLst=     1 CellRange=     0.0.
 One-electron integrals computed using PRISM.
 NBasis=    53 RedAO= T EigKep=  3.59D-03  NBF=    53
 NBsUse=    53 1.00D-06 EigRej= -1.00D+00 NBFU=    53
 Precomputing XC quadrature grid using
 IXCGrd= 4 IRadAn=           0 IRanWt=          -1 IRanGd=           0 AccXCQ= 0.00D+00.
 Generated NRdTot=       0 NPtTot=           0 NUsed=           0 NTot=          32
 NSgBfM=    53    53    53    53    53 MxSgAt=     9 MxSgA2=     9.
 Leave Link  302 at Tue Dec 15 16:25:41 2015, MaxMem=    33554432 cpu:         0.1
 (Enter /home/Applications/g09/g09/l308.exe)
 Leave Link  308 at Tue Dec 15 16:25:41 2015, MaxMem=    33554432 cpu:         0.0
 (Enter /home/Applications/g09/g09/l303.exe)
 DipDrv:  MaxL=1.
 Leave Link  303 at Tue Dec 15 16:25:41 2015, MaxMem=    33554432 cpu:         0.0
 (Enter /home/Applications/g09/g09/l401.exe)
 ExpMin= 1.83D-01 ExpMax= 3.22D+02 ExpMxC= 3.22D+02 IAcc=1 IRadAn=         1 AccDes= 0.00D+00
 Harris functional with IExCor=  402 and IRadAn=       1 diagonalized for initial guess.
 HarFok:  IExCor=  402 AccDes= 0.00D+00 IRadAn=         1 IDoV= 1 UseB2=F ITyADJ=14
 ICtDFT=  3500011 ScaDFX=  1.000000  1.000000  1.000000  1.000000
 FoFCou: FMM=F IPFlag=           0 FMFlag=      100000 FMFlg1=           0
         NFxFlg=           0 DoJE=T BraDBF=F KetDBF=T FulRan=T
         wScrn=  0.000000 ICntrl=     500 IOpCl=  0 I1Cent=   200000004 NGrid=           0
         NMat0=    1 NMatS0=      1 NMatT0=    0 NMatD0=    1 NMtDS0=    0 NMtDT0=    0
 Petite list used in FoFCou.
 Harris En= -228.726130845694    
 JPrj=0 DoOrth=F DoCkMO=F.
 Leave Link  401 at Tue Dec 15 16:25:42 2015, MaxMem=    33554432 cpu:         0.2
 (Enter /home/Applications/g09/g09/l502.exe)
 Closed shell SCF:
 Using DIIS extrapolation, IDIIS=  1040.
 Integral symmetry usage will be decided dynamically.
 Keep R1 ints in memory in canonical form, NReq=1925595.
 IVT=       27707 IEndB=       27707 NGot=    33554432 MDV=    32502130
 LenX=    32502130 LenY=    32498880
 Requested convergence on RMS density matrix=1.00D-08 within 128 cycles.
 Requested convergence on MAX density matrix=1.00D-06.
 Requested convergence on             energy=1.00D-06.
 No special actions if energy rises.
 FoFCou: FMM=F IPFlag=           0 FMFlag=           0 FMFlg1=           0
         NFxFlg=           0 DoJE=F BraDBF=F KetDBF=F FulRan=T
         wScrn=  0.000000 ICntrl=     600 IOpCl=  0 I1Cent=           0 NGrid=           0
         NMat0=    1 NMatS0=   1431 NMatT0=    0 NMatD0=    1 NMtDS0=    0 NMtDT0=    0
 Symmetry not used in FoFCou.
 Integral accuracy reduced to 1.0D-05 until final iterations.

 Cycle   1  Pass 0  IDiag  1:
 E= -228.659464146257    
 DIIS: error= 3.18D-02 at cycle   1 NSaved=   1.
 NSaved= 1 IEnMin= 1 EnMin= -228.659464146257     IErMin= 1 ErrMin= 3.18D-02
 ErrMax= 3.18D-02  0.00D+00 EMaxC= 1.00D-01 BMatC= 7.57D-02 BMatP= 7.57D-02
 IDIUse=3 WtCom= 6.82D-01 WtEn= 3.18D-01
 Coeff-Com:  0.100D+01
 Coeff-En:   0.100D+01
 Coeff:      0.100D+01
 Gap=     0.215 Goal=   None    Shift=    0.000
 GapD=    0.215 DampG=1.000 DampE=0.500 DampFc=0.5000 IDamp=-1.
 Damping current iteration by 5.00D-01
 RMSDP=1.23D-02 MaxDP=1.18D-01              OVMax= 2.09D-01

 Cycle   2  Pass 0  IDiag  1:
 E= -228.687494477239     Delta-E=       -0.028030330982 Rises=F Damp=T
 DIIS: error= 1.13D-02 at cycle   2 NSaved=   2.
 NSaved= 2 IEnMin= 2 EnMin= -228.687494477239     IErMin= 2 ErrMin= 1.13D-02
 ErrMax= 1.13D-02  0.00D+00 EMaxC= 1.00D-01 BMatC= 1.01D-02 BMatP= 7.57D-02
 IDIUse=3 WtCom= 8.87D-01 WtEn= 1.13D-01
 Coeff-Com:  0.145D+00 0.855D+00
 Coeff-En:   0.251D+00 0.749D+00
 Coeff:      0.157D+00 0.843D+00
 Gap=     0.236 Goal=   None    Shift=    0.000
 RMSDP=4.36D-03 MaxDP=3.55D-02 DE=-2.80D-02 OVMax= 1.78D-01

 Cycle   3  Pass 0  IDiag  1:
 E= -228.728640439164     Delta-E=       -0.041145961925 Rises=F Damp=F
 DIIS: error= 1.45D-02 at cycle   3 NSaved=   3.
 NSaved= 3 IEnMin= 3 EnMin= -228.728640439164     IErMin= 2 ErrMin= 1.13D-02
 ErrMax= 1.45D-02  0.00D+00 EMaxC= 1.00D-01 BMatC= 1.14D-02 BMatP= 1.01D-02
 IDIUse=2 WtCom= 0.00D+00 WtEn= 1.00D+00
 Coeff-En:   0.000D+00 0.000D+00 0.100D+01
 Coeff:      0.000D+00 0.000D+00 0.100D+01
 Gap=     0.226 Goal=   None    Shift=    0.000
 RMSDP=5.75D-03 MaxDP=4.58D-02 DE=-4.11D-02 OVMax= 1.17D-01

 Cycle   4  Pass 0  IDiag  1:
 E= -228.698524306040     Delta-E=        0.030116133124 Rises=F Damp=F
 DIIS: error= 3.15D-02 at cycle   4 NSaved=   4.
 NSaved= 4 IEnMin= 3 EnMin= -228.728640439164     IErMin= 2 ErrMin= 1.13D-02
 ErrMax= 3.15D-02  0.00D+00 EMaxC= 1.00D-01 BMatC= 4.46D-02 BMatP= 1.01D-02
 IDIUse=2 WtCom= 0.00D+00 WtEn= 1.00D+00
 Coeff-En:   0.000D+00 0.000D+00 0.749D+00 0.251D+00
 Coeff:      0.000D+00 0.000D+00 0.749D+00 0.251D+00
 Gap=     0.236 Goal=   None    Shift=    0.000
 RMSDP=2.91D-03 MaxDP=2.31D-02 DE= 3.01D-02 OVMax= 6.53D-02

 Cycle   5  Pass 0  IDiag  1:
 E= -228.736831183937     Delta-E=       -0.038306877897 Rises=F Damp=F
 DIIS: error= 6.72D-03 at cycle   5 NSaved=   5.
 NSaved= 5 IEnMin= 5 EnMin= -228.736831183937     IErMin= 5 ErrMin= 6.72D-03
 ErrMax= 6.72D-03  0.00D+00 EMaxC= 1.00D-01 BMatC= 2.41D-03 BMatP= 1.01D-02
 IDIUse=3 WtCom= 9.33D-01 WtEn= 6.72D-02
 Coeff-Com: -0.302D-02 0.186D-01 0.273D+00-0.477D-01 0.759D+00
 Coeff-En:   0.000D+00 0.000D+00 0.213D+00 0.000D+00 0.787D+00
 Coeff:     -0.281D-02 0.173D-01 0.269D+00-0.445D-01 0.761D+00
 Gap=     0.240 Goal=   None    Shift=    0.000
 RMSDP=9.56D-04 MaxDP=7.47D-03 DE=-3.83D-02 OVMax= 2.01D-02

 Cycle   6  Pass 0  IDiag  1:
 E= -228.739022066326     Delta-E=       -0.002190882389 Rises=F Damp=F
 DIIS: error= 6.66D-04 at cycle   6 NSaved=   6.
 NSaved= 6 IEnMin= 6 EnMin= -228.739022066326     IErMin= 6 ErrMin= 6.66D-04
 ErrMax= 6.66D-04  0.00D+00 EMaxC= 1.00D-01 BMatC= 1.11D-05 BMatP= 2.41D-03
 IDIUse=3 WtCom= 9.93D-01 WtEn= 6.66D-03
 Coeff-Com: -0.612D-02 0.151D-01 0.915D-01-0.519D-01 0.409D+00 0.543D+00
 Coeff-En:   0.000D+00 0.000D+00 0.000D+00 0.000D+00 0.000D+00 0.100D+01
 Coeff:     -0.608D-02 0.150D-01 0.908D-01-0.515D-01 0.406D+00 0.546D+00
 Gap=     0.240 Goal=   None    Shift=    0.000
 RMSDP=7.19D-05 MaxDP=7.92D-04 DE=-2.19D-03 OVMax= 1.84D-03

 Cycle   7  Pass 0  IDiag  1:
 E= -228.739032959758     Delta-E=       -0.000010893432 Rises=F Damp=F
 DIIS: error= 1.25D-04 at cycle   7 NSaved=   7.
 NSaved= 7 IEnMin= 7 EnMin= -228.739032959758     IErMin= 7 ErrMin= 1.25D-04
 ErrMax= 1.25D-04  0.00D+00 EMaxC= 1.00D-01 BMatC= 7.44D-07 BMatP= 1.11D-05
 IDIUse=3 WtCom= 9.99D-01 WtEn= 1.25D-03
 Coeff-Com: -0.316D-02 0.680D-02 0.234D-01-0.254D-01 0.157D+00 0.313D+00
 Coeff-Com:  0.528D+00
 Coeff-En:   0.000D+00 0.000D+00 0.000D+00 0.000D+00 0.000D+00 0.000D+00
 Coeff-En:   0.100D+01
 Coeff:     -0.316D-02 0.679D-02 0.234D-01-0.254D-01 0.157D+00 0.312D+00
 Coeff:      0.529D+00
 Gap=     0.240 Goal=   None    Shift=    0.000
 RMSDP=1.63D-05 MaxDP=2.18D-04 DE=-1.09D-05 OVMax= 4.44D-04

 Cycle   8  Pass 0  IDiag  1:
 E= -228.739033697585     Delta-E=       -0.000000737827 Rises=F Damp=F
 DIIS: error= 2.36D-05 at cycle   8 NSaved=   8.
 NSaved= 8 IEnMin= 8 EnMin= -228.739033697585     IErMin= 8 ErrMin= 2.36D-05
 ErrMax= 2.36D-05  0.00D+00 EMaxC= 1.00D-01 BMatC= 2.09D-08 BMatP= 7.44D-07
 IDIUse=1 WtCom= 1.00D+00 WtEn= 0.00D+00
 Coeff-Com: -0.161D-03-0.714D-05 0.232D-02-0.227D-02 0.179D-01 0.708D-01
 Coeff-Com:  0.178D+00 0.734D+00
 Coeff:     -0.161D-03-0.714D-05 0.232D-02-0.227D-02 0.179D-01 0.708D-01
 Coeff:      0.178D+00 0.734D+00
 Gap=     0.240 Goal=   None    Shift=    0.000
 RMSDP=2.29D-06 MaxDP=2.61D-05 DE=-7.38D-07 OVMax= 4.06D-05

 Initial convergence to 1.0D-05 achieved.  Increase integral accuracy.
 Cycle   9  Pass 1  IDiag  1:
 E= -228.739016337589     Delta-E=        0.000017359996 Rises=F Damp=F
 DIIS: error= 1.02D-05 at cycle   1 NSaved=   1.
 NSaved= 1 IEnMin= 1 EnMin= -228.739016337589     IErMin= 1 ErrMin= 1.02D-05
 ErrMax= 1.02D-05  0.00D+00 EMaxC= 1.00D-01 BMatC= 6.49D-09 BMatP= 6.49D-09
 IDIUse=1 WtCom= 1.00D+00 WtEn= 0.00D+00
 Coeff-Com:  0.100D+01
 Coeff:      0.100D+01
 Gap=     0.240 Goal=   None    Shift=    0.000
 RMSDP=2.29D-06 MaxDP=2.61D-05 DE= 1.74D-05 OVMax= 4.92D-05

 Cycle  10  Pass 1  IDiag  1:
 E= -228.739016345941     Delta-E=       -0.000000008352 Rises=F Damp=F
 DIIS: error= 6.33D-06 at cycle   2 NSaved=   2.
 NSaved= 2 IEnMin= 2 EnMin= -228.739016345941     IErMin= 2 ErrMin= 6.33D-06
 ErrMax= 6.33D-06  0.00D+00 EMaxC= 1.00D-01 BMatC= 1.99D-09 BMatP= 6.49D-09
 IDIUse=1 WtCom= 1.00D+00 WtEn= 0.00D+00
 Coeff-Com:  0.259D+00 0.741D+00
 Coeff:      0.259D+00 0.741D+00
 Gap=     0.240 Goal=   None    Shift=    0.000
 RMSDP=2.09D-06 MaxDP=2.01D-05 DE=-8.35D-09 OVMax= 4.36D-05

 Cycle  11  Pass 1  IDiag  1:
 E= -228.739016344907     Delta-E=        0.000000001034 Rises=F Damp=F
 DIIS: error= 7.75D-06 at cycle   3 NSaved=   3.
 NSaved= 3 IEnMin= 2 EnMin= -228.739016345941     IErMin= 2 ErrMin= 6.33D-06
 ErrMax= 7.75D-06  0.00D+00 EMaxC= 1.00D-01 BMatC= 3.19D-09 BMatP= 1.99D-09
 IDIUse=1 WtCom= 1.00D+00 WtEn= 0.00D+00
 Coeff-Com: -0.197D-01 0.568D+00 0.452D+00
 Coeff:     -0.197D-01 0.568D+00 0.452D+00
 Gap=     0.240 Goal=   None    Shift=    0.000
 RMSDP=1.09D-06 MaxDP=1.13D-05 DE= 1.03D-09 OVMax= 2.36D-05

 Cycle  12  Pass 1  IDiag  1:
 E= -228.739016348114     Delta-E=       -0.000000003207 Rises=F Damp=F
 DIIS: error= 1.02D-06 at cycle   4 NSaved=   4.
 NSaved= 4 IEnMin= 4 EnMin= -228.739016348114     IErMin= 4 ErrMin= 1.02D-06
 ErrMax= 1.02D-06  0.00D+00 EMaxC= 1.00D-01 BMatC= 4.81D-11 BMatP= 1.99D-09
 IDIUse=1 WtCom= 1.00D+00 WtEn= 0.00D+00
 Coeff-Com: -0.175D-01 0.313D+00 0.251D+00 0.453D+00
 Coeff:     -0.175D-01 0.313D+00 0.251D+00 0.453D+00
 Gap=     0.240 Goal=   None    Shift=    0.000
 RMSDP=1.07D-07 MaxDP=9.82D-07 DE=-3.21D-09 OVMax= 1.99D-06

 Cycle  13  Pass 1  IDiag  1:
 E= -228.739016348150     Delta-E=       -0.000000000036 Rises=F Damp=F
 DIIS: error= 2.18D-07 at cycle   5 NSaved=   5.
 NSaved= 5 IEnMin= 5 EnMin= -228.739016348150     IErMin= 5 ErrMin= 2.18D-07
 ErrMax= 2.18D-07  0.00D+00 EMaxC= 1.00D-01 BMatC= 1.48D-12 BMatP= 4.81D-11
 IDIUse=1 WtCom= 1.00D+00 WtEn= 0.00D+00
 Coeff-Com: -0.349D-02 0.423D-01 0.294D-01 0.165D+00 0.766D+00
 Coeff:     -0.349D-02 0.423D-01 0.294D-01 0.165D+00 0.766D+00
 Gap=     0.240 Goal=   None    Shift=    0.000
 RMSDP=3.15D-08 MaxDP=2.43D-07 DE=-3.60D-11 OVMax= 6.07D-07

 Cycle  14  Pass 1  IDiag  1:
 E= -228.739016348152     Delta-E=       -0.000000000002 Rises=F Damp=F
 DIIS: error= 6.20D-08 at cycle   6 NSaved=   6.
 NSaved= 6 IEnMin= 6 EnMin= -228.739016348152     IErMin= 6 ErrMin= 6.20D-08
 ErrMax= 6.20D-08  0.00D+00 EMaxC= 1.00D-01 BMatC= 1.53D-13 BMatP= 1.48D-12
 IDIUse=1 WtCom= 1.00D+00 WtEn= 0.00D+00
 Coeff-Com: -0.139D-02 0.106D-01 0.774D-02 0.560D-01 0.366D+00 0.561D+00
 Coeff:     -0.139D-02 0.106D-01 0.774D-02 0.560D-01 0.366D+00 0.561D+00
 Gap=     0.240 Goal=   None    Shift=    0.000
 RMSDP=8.28D-09 MaxDP=8.44D-08 DE=-1.82D-12 OVMax= 2.38D-07

 SCF Done:  E(RB3LYP) =  -228.739016348     A.U. after   14 cycles
            NFock= 14  Conv=0.83D-08     -V/T= 2.0083
 KE= 2.268610895227D+02 PE=-8.537681829816D+02 EE= 2.375233564402D+02
 Leave Link  502 at Tue Dec 15 16:25:46 2015, MaxMem=    33554432 cpu:         3.9
 (Enter /home/Applications/g09/g09/l801.exe)
 DoSCS=F DFT=T ScalE2(SS,OS)=  1.000000  1.000000
 ExpMin= 1.83D-01 ExpMax= 3.22D+02 ExpMxC= 3.22D+02 IAcc=3 IRadAn=         5 AccDes= 0.00D+00
 HarFok:  IExCor=  205 AccDes= 0.00D+00 IRadAn=         5 IDoV=-2 UseB2=F ITyADJ=14
 ICtDFT= 12500011 ScaDFX=  1.000000  1.000000  1.000000  1.000000
 Largest valence mixing into a core orbital is  1.81D-04
 Largest core mixing into a valence orbital is  4.45D-05
 Range of M.O.s used for correlation:     6    53
 NBasis=    53 NAE=    18 NBE=    18 NFC=     5 NFV=     0
 NROrb=     48 NOA=    13 NOB=    13 NVA=    35 NVB=    35
 Leave Link  801 at Tue Dec 15 16:25:46 2015, MaxMem=    33554432 cpu:         0.2
 (Enter /home/Applications/g09/g09/l914.exe)
 RHF ground state
 MDV=    33554432 DFT=T DoStab=F Mixed=T DoRPA=F DoScal=F NonHer=F
 Keep R1, R2, and R3 ints in memory in canonical form, NReq=5596273.
 FoFCou: FMM=F IPFlag=           0 FMFlag=           0 FMFlg1=           0
         NFxFlg=           0 DoJE=F BraDBF=F KetDBF=F FulRan=T
         wScrn=  0.000000 ICntrl=     600 IOpCl=  0 I1Cent=           0 NGrid=           0
         NMat0=    1 NMatS0=   1431 NMatT0=    0 NMatD0=    1 NMtDS0=    0 NMtDT0=    0
 Symmetry not used in FoFCou.
 Making orbital integer symmetry assigments:
 Orbital symmetries:
       Occupied  (A) (A) (A) (A) (A) (A) (A) (A) (A) (A) (A) (A)
                 (A) (A) (A) (A) (A) (A)
       Virtual   (A) (A) (A) (A) (A) (A) (A) (A) (A) (A) (A) (A)
                 (A) (A) (A) (A) (A) (A) (A) (A) (A) (A) (A) (A)
                 (A) (A) (A) (A) (A) (A) (A) (A) (A) (A) (A)
    60 initial guesses have been made.
 Convergence on wavefunction:    0.000001000000000
 Davidson Disk Diagonalization:  ConvIn= 1.00D-06 SkipCon=T Conv= 1.00D-06.
 Max sub-space:   240 roots to seek:    60 dimension of matrix:          910
 Iteration     1 Dimension    60 NMult     0 NNew     60
 CISAX will form    60 AO SS matrices at one time.
 NMat=    60 NSing=    60 JSym2X= 0.
 New state      1 was old state      3
 New state      2 was old state      1
 New state      3 was old state      4
 New state      4 was old state      7
 New state      5 was old state      6
 New state      6 was old state      8
 New state      7 was old state     11
 New state      8 was old state     10
 New state     10 was old state     14
 New state     11 was old state      5
 New state     14 was old state     15
 New state     15 was old state      2
 Excitation Energies [eV] at current iteration:
 Root      1 :     7.128385061371278
 Root      2 :     7.852216979546289
 Root      3 :     8.249657070463869
 Root      4 :     8.831364651827005
 Root      5 :     8.960480588215582
 Root      6 :     9.504246510337518
 Root      7 :     9.758500809299534
 Root      8 :     9.881191178230873
 Root      9 :    10.136836954504980
 Root     10 :    10.335339200394470
 Root     11 :    10.389353045055490
 Root     12 :    10.480376769276000
 Root     13 :    10.652701486319290
 Root     14 :    10.670429750864810
 Root     15 :    10.883212406475530
 Root     16 :    11.169989169016360
 Root     17 :    11.255831947788640
 Root     18 :    11.320065034096770
 Root     19 :    11.454831398082500
 Root     20 :    11.744077247775140
 Root     21 :    12.030100777510490
 Root     22 :    12.123451502598990
 Root     23 :    12.278902386644650
 Root     24 :    12.747443017714120
 Root     25 :    12.999432658018130
 Root     26 :    13.060919059984690
 Root     27 :    13.293968065588490
 Root     28 :    13.555263286700140
 Root     29 :    13.688673774744010
 Root     30 :    13.828111093678810
 Root     31 :    13.865847421938900
 Root     32 :    14.006367839418710
 Root     33 :    14.021896323372530
 Root     34 :    14.125057167379700
 Root     35 :    14.206596157092130
 Root     36 :    14.471368607920340
 Root     37 :    14.609308768026640
 Root     38 :    14.674070498728020
 Root     39 :    14.847213977021130
 Root     40 :    14.911415074693340
 Root     41 :    14.955725112749710
 Root     42 :    15.177430859493870
 Root     43 :    15.200199819211110
 Root     44 :    15.350396876230850
 Root     45 :    15.455402483719580
 Root     46 :    15.505526630026590
 Root     47 :    15.539928074762380
 Root     48 :    15.642245415192220
 Root     49 :    15.736971403810650
 Root     50 :    15.833046310567140
 Root     51 :    15.891605099752140
 Root     52 :    15.901947977877770
 Root     53 :    16.085214561784190
 Root     54 :    16.269856665794540
 Root     55 :    16.420999655289080
 Root     56 :    16.516838472116220
 Root     57 :    16.597318221119220
 Root     58 :    17.141478260956120
 Root     59 :    17.514137924219810
 Root     60 :    19.249958138869130
 Iteration     2 Dimension   120 NMult    60 NNew     60
 CISAX will form    60 AO SS matrices at one time.
 NMat=    60 NSing=    60 JSym2X= 0.
 Root      1 not converged, maximum delta is    0.243779866853678
 Root      2 not converged, maximum delta is    0.239298803190483
 Root      3 not converged, maximum delta is    0.053042235564963
 Root      4 not converged, maximum delta is    0.026884635956722
 Root      5 not converged, maximum delta is    0.020724506103204
 Root      6 not converged, maximum delta is    0.176147407813241
 New state      7 was old state     11
 Root      7 not converged, maximum delta is    0.271402310442727
 New state      8 was old state      7
 Root      8 not converged, maximum delta is    0.380119309008601
 New state      9 was old state      8
 Root      9 not converged, maximum delta is    0.454916458895046
 New state     10 was old state      9
 Root     10 not converged, maximum delta is    0.496763309306227
 New state     11 was old state     15
 Root     11 not converged, maximum delta is    0.582309107250034
 New state     12 was old state     10
 Root     12 not converged, maximum delta is    0.181530066657377
 New state     13 was old state     12
 Root     13 not converged, maximum delta is    0.171741588258407
 New state     14 was old state     13
 Root     14 not converged, maximum delta is    0.220844641582477
 New state     15 was old state     14
 Root     15 not converged, maximum delta is    0.340854634449273
 Excitation Energies [eV] at current iteration:
 Root      1 :     6.818344651710288   Change is   -0.310040409660989
 Root      2 :     7.295157434134905   Change is   -0.557059545411384
 Root      3 :     8.231326391826769   Change is   -0.018330678637099
 Root      4 :     8.798798957195146   Change is   -0.032565694631860
 Root      5 :     8.934514238220817   Change is   -0.025966349994765
 Root      6 :     9.485090798706564   Change is   -0.019155711630953
 Root      7 :     9.530322423835983   Change is   -0.859030621219510
 Root      8 :     9.696681072042480   Change is   -0.061819737257054
 Root      9 :     9.785985786924041   Change is   -0.095205391306832
 Root     10 :    10.005553429081250   Change is   -0.131283525423727
 Root     11 :    10.144365461358650   Change is   -0.738846945116880
 Root     12 :    10.346016962709520   Change is    0.010677762315050
 Root     13 :    10.503870349405170   Change is    0.023493580129165
 Root     14 :    10.638237949055990   Change is   -0.014463537263303
 Root     15 :    10.682646715459760   Change is    0.012216964594946
 Root     16 :    11.117845218353460   Change is   -0.052143950662902
 Root     17 :    11.242230439354880   Change is   -0.013601508433760
 Root     18 :    11.302745907649470   Change is   -0.017319126447299
 Root     19 :    11.430368533527610   Change is   -0.024462864554888
 Root     20 :    11.720162325022390   Change is   -0.023914922752750
 Root     21 :    11.936633489267550   Change is   -0.186818013331434
 Root     22 :    11.995257679496950   Change is   -0.034843098013542
 Root     23 :    12.247396517744980   Change is   -0.031505868899670
 Root     24 :    12.646944937758190   Change is   -0.100498079955929
 Root     25 :    12.872583472063040   Change is   -0.421384593525451
 Root     26 :    12.985534839613300   Change is   -0.013897818404834
 Root     27 :    13.015944825134000   Change is   -0.044974234850688
 Root     28 :    13.285069123131700   Change is   -0.270194163568449
 Root     29 :    13.473908658565810   Change is   -0.214765116178198
 Root     30 :    13.604521512666820   Change is   -0.520535654712883
 Root     31 :    13.758782994200470   Change is   -0.069328099478344
 Root     32 :    13.839397607675120   Change is   -0.026449814263785
 Root     33 :    13.939634625500380   Change is   -0.066733213918332
 Root     34 :    13.987679380746090   Change is   -0.034216942626439
 Root     35 :    14.083484162014440   Change is   -0.123111995077694
 Root     36 :    14.368462845607640   Change is   -0.102905762312700
 Root     37 :    14.535305202282760   Change is   -0.074003565743877
 Root     38 :    14.588943290897050   Change is   -0.085127207830972
 Root     39 :    14.621994930619940   Change is   -0.225219046401193
 Root     40 :    14.740465866603600   Change is   -0.215259246146107
 Root     41 :    14.877569749350500   Change is   -0.033845325342845
 Root     42 :    14.967814226151090   Change is   -0.209616633342772
 Root     43 :    15.141203332357570   Change is   -0.364323297669030
 Root     44 :    15.161152214015230   Change is   -0.039047605195876
 Root     45 :    15.224976524381310   Change is   -0.125420351849549
 Root     46 :    15.295569989916220   Change is   -0.244358084846160
 Root     47 :    15.355851372897930   Change is   -0.099551110821651
 Root     48 :    15.533468419611450   Change is   -0.108776995580774
 Root     49 :    15.544198714760870   Change is   -0.192772689049778
 Root     50 :    15.577905041785390   Change is   -0.313700057966754
 Root     51 :    15.756675786532670   Change is   -0.145272191345094
 Root     52 :    15.812772138487040   Change is   -0.020274172080103
 Root     53 :    16.033319565544470   Change is   -0.051894996239718
 Root     54 :    16.079276199712000   Change is   -0.190580466082538
 Root     55 :    16.232956743235540   Change is   -0.908521517720574
 Root     56 :    16.317403308498270   Change is   -0.103596346790814
 Root     57 :    16.359031574113530   Change is   -0.238286647005694
 Root     58 :    16.459503943035160   Change is   -0.057334529081064
 Root     59 :    16.550997143327490   Change is   -0.963140780892316
 Root     60 :    17.074258004347460   Change is   -2.175700134521676
 Iteration     3 Dimension   135 NMult   120 NNew     15
 CISAX will form    15 AO SS matrices at one time.
 NMat=    15 NSing=    15 JSym2X= 0.
 Root      1 not converged, maximum delta is    0.001937497381735
 Root      2 not converged, maximum delta is    0.001669195034663
 Root      3 not converged, maximum delta is    0.000329202227966
 Root      4 not converged, maximum delta is    0.000248556647295
 Root      5 not converged, maximum delta is    0.000206061119013
 Root      6 not converged, maximum delta is    0.010971967955628
 Root      7 not converged, maximum delta is    0.016097510540327
 Root      8 not converged, maximum delta is    0.004825049248994
 Root      9 not converged, maximum delta is    0.002254789239689
 Root     10 not converged, maximum delta is    0.001990928570970
 Root     11 not converged, maximum delta is    0.001305376442508
 Root     12 not converged, maximum delta is    0.000457322085935
 Root     13 not converged, maximum delta is    0.000400572737989
 Root     14 not converged, maximum delta is    0.000510544621697
 Root     15 not converged, maximum delta is    0.000596679414617
 Excitation Energies [eV] at current iteration:
 Root      1 :     6.817014589087513   Change is   -0.001330062622775
 Root      2 :     7.294034417975601   Change is   -0.001123016159304
 Root      3 :     8.231270536416488   Change is   -0.000055855410281
 Root      4 :     8.798757813632614   Change is   -0.000041143562531
 Root      5 :     8.934484660222010   Change is   -0.000029577998807
 Root      6 :     9.484483506083999   Change is   -0.000607292622565
 Root      7 :     9.527257657965619   Change is   -0.003064765870364
 Root      8 :     9.694689823642447   Change is   -0.001991248400034
 Root      9 :     9.785758043432812   Change is   -0.000227743491228
 Root     10 :    10.004810968500430   Change is   -0.000742460580824
 Root     11 :    10.144158112048300   Change is   -0.000207349310355
 Root     12 :    10.345911754597040   Change is   -0.000105208112481
 Root     13 :    10.503789005716850   Change is   -0.000081343688325
 Root     14 :    10.638185795333700   Change is   -0.000052153722283
 Root     15 :    10.682589985994550   Change is   -0.000056729465208
 Iteration     4 Dimension   150 NMult   135 NNew     15
 CISAX will form    15 AO SS matrices at one time.
 NMat=    15 NSing=    15 JSym2X= 0.
 Root      1 not converged, maximum delta is    0.000050332790186
 Root      2 not converged, maximum delta is    0.000050407104887
 Root      3 not converged, maximum delta is    0.000008681014149
 Root      4 not converged, maximum delta is    0.000008262390313
 Root      5 not converged, maximum delta is    0.000007380940596
 Root      6 not converged, maximum delta is    0.000034777760520
 Root      7 not converged, maximum delta is    0.000078271142903
 Root      8 not converged, maximum delta is    0.000059616276372
 Root      9 not converged, maximum delta is    0.000021943605339
 Root     10 not converged, maximum delta is    0.000036094499352
 Root     11 not converged, maximum delta is    0.000020880242022
 Root     12 not converged, maximum delta is    0.000025630442399
 Root     13 not converged, maximum delta is    0.000011820169413
 Root     14 not converged, maximum delta is    0.000009739219257
 Root     15 not converged, maximum delta is    0.000011660957682
 Excitation Energies [eV] at current iteration:
 Root      1 :     6.817012860135356   Change is   -0.000001728952158
 Root      2 :     7.294033262696000   Change is   -0.000001155279601
 Root      3 :     8.231270460296946   Change is   -0.000000076119543
 Root      4 :     8.798757776445221   Change is   -0.000000037187393
 Root      5 :     8.934484632475890   Change is   -0.000000027746120
 Root      6 :     9.484482420535505   Change is   -0.000001085548495
 Root      7 :     9.527252868126416   Change is   -0.000004789839204
 Root      8 :     9.694687010565564   Change is   -0.000002813076881
 Root      9 :     9.785757728802510   Change is   -0.000000314630302
 Root     10 :    10.004809906966620   Change is   -0.000001061533814
 Root     11 :    10.144157787060810   Change is   -0.000000324987487
 Root     12 :    10.345911582880180   Change is   -0.000000171716858
 Root     13 :    10.503788887958730   Change is   -0.000000117758119
 Root     14 :    10.638185733085420   Change is   -0.000000062248286
 Root     15 :    10.682589892973280   Change is   -0.000000093021266
 Iteration     5 Dimension   165 NMult   150 NNew     15
 CISAX will form    15 AO SS matrices at one time.
 NMat=    15 NSing=    15 JSym2X= 0.
 Root      1 not converged, maximum delta is    0.000001472448784
 Root      2 not converged, maximum delta is    0.000001207467909
 Root      3 has converged.
 Root      4 has converged.
 Root      5 has converged.
 Root      6 not converged, maximum delta is    0.000001203433716
 Root      7 not converged, maximum delta is    0.000002531228458
 Root      8 not converged, maximum delta is    0.000003526659627
 Root      9 has converged.
 Root     10 not converged, maximum delta is    0.000002267334523
 Root     11 not converged, maximum delta is    0.000001291724896
 Root     12 not converged, maximum delta is    0.000001023814354
 Root     13 has converged.
 Root     14 not converged, maximum delta is    0.000001042603571
 Root     15 has converged.
 Excitation Energies [eV] at current iteration:
 Root      1 :     6.817012858512171   Change is   -0.000000001623185
 Root      2 :     7.294033261742785   Change is   -0.000000000953214
 Root      3 :     8.231270460236450   Change is   -0.000000000060495
 Root      4 :     8.798757776411160   Change is   -0.000000000034063
 Root      5 :     8.934484632451436   Change is   -0.000000000024453
 Root      6 :     9.484482419584976   Change is   -0.000000000950528
 Root      7 :     9.527252864077665   Change is   -0.000000004048750
 Root      8 :     9.694687007216629   Change is   -0.000000003348937
 Root      9 :     9.785757728440270   Change is   -0.000000000362240
 Root     10 :    10.004809905453970   Change is   -0.000000001512641
 Root     11 :    10.144157786575580   Change is   -0.000000000485235
 Root     12 :    10.345911582661150   Change is   -0.000000000219032
 Root     13 :    10.503788887802610   Change is   -0.000000000156118
 Root     14 :    10.638185733020120   Change is   -0.000000000065294
 Root     15 :    10.682589892874760   Change is   -0.000000000098526
 Iteration     6 Dimension   172 NMult   165 NNew      7
 CISAX will form     7 AO SS matrices at one time.
 NMat=     7 NSing=     7 JSym2X= 0.
 Root      1 has converged.
 Root      2 has converged.
 Root      3 has converged.
 Root      4 has converged.
 Root      5 has converged.
 Root      6 has converged.
 Root      7 has converged.
 Root      8 has converged.
 Root      9 has converged.
 Root     10 has converged.
 Root     11 has converged.
 Root     12 has converged.
 Root     13 has converged.
 Root     14 has converged.
 Root     15 has converged.
 Excitation Energies [eV] at current iteration:
 Root      1 :     6.817012858511929   Change is   -0.000000000000242
 Root      2 :     7.294033261742565   Change is   -0.000000000000221
 Root      3 :     8.231270460236424   Change is   -0.000000000000027
 Root      4 :     8.798757776411156   Change is   -0.000000000000003
 Root      5 :     8.934484632451426   Change is   -0.000000000000011
 Root      6 :     9.484482419584440   Change is   -0.000000000000536
 Root      7 :     9.527252864075434   Change is   -0.000000000002231
 Root      8 :     9.694687007214419   Change is   -0.000000000002208
 Root      9 :     9.785757728439995   Change is   -0.000000000000275
 Root     10 :    10.004809905452870   Change is   -0.000000000001103
 Root     11 :    10.144157786575230   Change is   -0.000000000000350
 Root     12 :    10.345911582661050   Change is   -0.000000000000097
 Root     13 :    10.503788887802450   Change is   -0.000000000000153
 Root     14 :    10.638185733020080   Change is   -0.000000000000039
 Root     15 :    10.682589892874680   Change is   -0.000000000000074
 Convergence achieved on expansion vectors.
 ***********************************************************************
 Excited states from <AA,BB:AA,BB> singles matrix:
 ***********************************************************************
 
 1PDM for each excited state written to RWF  633
 Ground to excited state transition densities written to RWF  633
 Ground to excited state transition electric dipole moments (Au):
       state          X           Y           Z        Dip. S.      Osc.
         1         0.6774      0.6615      0.0315      0.8974      0.1499
         2        -0.4949     -0.3788     -0.0285      0.3892      0.0695
         3        -0.0631      0.1396     -0.0450      0.0255      0.0051
         4         0.0090      0.0744      0.1438      0.0263      0.0057
         5         0.0328     -0.0323     -0.0857      0.0095      0.0021
         6        -0.1170      0.5060     -0.0153      0.2700      0.0627
         7        -0.5008      1.0964     -0.0425      1.4548      0.3396
         8        -0.8783      0.3403      0.1143      0.9003      0.2138
         9         0.1856      0.1090      0.0180      0.0467      0.0112
        10         0.4627      0.0953     -0.0729      0.2285      0.0560
        11         0.3059      0.1002     -0.0101      0.1037      0.0258
        12        -0.1629      0.0663     -0.0435      0.0328      0.0083
        13        -0.1627      0.0498     -0.0510      0.0315      0.0081
        14        -0.0055      0.1251     -0.0860      0.0231      0.0060
        15        -0.0672      0.1540     -0.0407      0.0299      0.0078
 Ground to excited state transition velocity dipole moments (Au):
       state          X           Y           Z        Dip. S.      Osc.
         1         0.0358     -0.0265      0.0025      0.0020      0.0053
         2         0.0175     -0.0217     -0.0016      0.0008      0.0019
         3        -0.0055      0.0004      0.0089      0.0001      0.0002
         4        -0.0036     -0.0038     -0.0775      0.0060      0.0125
         5         0.0014      0.0058      0.0196      0.0004      0.0009
         6        -0.0125     -0.0275     -0.0390      0.0024      0.0046
         7        -0.0119     -0.0553      0.0289      0.0040      0.0077
         8         0.0409      0.0132     -0.0083      0.0019      0.0036
         9        -0.0200     -0.0164     -0.0090      0.0007      0.0014
        10        -0.0329     -0.0269      0.0109      0.0019      0.0035
        11        -0.0317     -0.0276     -0.0180      0.0021      0.0037
        12         0.0161      0.0069      0.0113      0.0004      0.0008
        13         0.0125      0.0042     -0.0476      0.0024      0.0042
        14        -0.0044     -0.0123     -0.0071      0.0002      0.0004
        15         0.0039     -0.0237      0.0051      0.0006      0.0010
 Ground to excited state transition magnetic dipole moments (Au):
       state          X           Y           Z
         1        -0.0241     -0.0528      0.3829
         2        -0.0371      0.0711     -0.2454
         3        -0.4398      0.3632     -0.0204
         4         0.8879      1.3427      0.0336
         5        -0.0508      0.0149      0.0017
         6        -0.0313     -0.1283     -0.0723
         7        -0.0313      0.0223     -0.1063
         8         0.1638     -0.0106      0.0981
         9         0.4766     -0.0567     -0.0474
        10         0.1401      0.2439     -0.1182
        11         0.0886      0.0185      0.0232
        12         0.3956     -0.1698     -0.0949
        13         0.0668      0.0102     -0.0039
        14        -0.1511      0.3104     -0.0426
        15        -0.2358     -0.3961     -0.0207
 Ground to excited state transition velocity quadrupole moments (Au):
       state          XX          YY          ZZ          XY          XZ          YZ
         1        -0.1323      0.1308      0.0164     -0.0314     -0.0033     -0.0106
         2         0.1502     -0.1873      0.0127      0.0472      0.0005     -0.0021
         3        -0.0306      0.0182     -0.0092      0.0222      0.0202     -0.0615
         4        -0.0263      0.0336     -0.0009     -0.0037     -0.1462      0.1215
         5        -0.0257      0.0184      0.0058     -0.0029      0.1495      0.1201
         6         0.1152     -0.1319     -0.0199      0.0777     -0.0112      0.0334
         7         0.1216     -0.0829     -0.0344      0.2298      0.0231     -0.0162
         8        -0.2026      0.2160     -0.0302      0.1340     -0.0187      0.0377
         9         0.1290     -0.1465      0.0066      0.0057      0.0079     -0.0032
        10         0.2023     -0.2215      0.0101     -0.0348     -0.1115      0.0964
        11         0.1269     -0.1424      0.0057     -0.0191      0.0526     -0.0007
        12        -0.0353      0.0407     -0.0105      0.0377     -0.0537      0.0504
        13        -0.0269      0.0461     -0.0124      0.0263      0.0368      0.0659
        14         0.0347     -0.0121     -0.0075      0.0503      0.0028     -0.0547
        15         0.0431     -0.0321      0.0030      0.0442      0.0666     -0.0387
 <0|del|b> * <b|rxdel|0> + <0|del|b> * <b|delr+rdel|0>
 Rotatory Strengths (R) in cgs (10**-40 erg-esu-cm/Gauss)
       state          XX          YY          ZZ    R(velocity)    E-M Angle
         1         3.0895     -0.2929      1.4102      1.4023       85.05
         2        -1.5952     -0.2716     -2.8575     -1.5748      104.39
         3         0.1606      2.7705      2.5851      1.8387       66.81
         4        -8.7671     -7.1464     -8.0360     -7.9832       95.02
         5        -0.8674      0.1990      0.7762      0.0360       90.00
         6         3.0496      5.9089      4.7104      4.5563       24.87
         7         3.6538     -9.2540     -2.3510     -2.6504      123.26
         8        -1.8090      8.4806      4.7355      3.8023       46.66
         9         1.4093     -8.8478     -8.6523     -5.3636      128.28
        10       -10.7735     -8.3424     -4.7995     -7.9718      158.52
        11         0.8231     -3.3630     -4.5517     -2.3639      151.03
        12        -1.3441      5.2760      3.7325      2.5548       63.33
        13        -1.0788      2.8440      0.1920      0.6524       71.38
        14        -3.4712      1.4138     -3.1016     -1.7197      123.48
        15         9.9651     -1.2509      6.3351      5.0164       42.35
 1/2[<0|r|b>*<b|rxdel|0> + (<0|rxdel|b>*<b|r|0>)*]
 Rotatory Strengths (R) in cgs (10**-40 erg-esu-cm/Gauss)
       state          XX          YY          ZZ     R(length)
         1        11.5577     24.6849     -8.5183      9.2414
         2       -12.9968     19.0553     -4.9435      0.3717
         3       -19.6144    -35.8421     -0.6501    -18.7022
         4        -5.6741    -70.6367     -3.4142    -26.5750
         5         1.1794      0.3397      0.1029      0.5407
         6        -2.5878     45.9301     -0.7842     14.1860
         7       -11.0909    -17.2845     -3.1914    -10.5223
         8       101.7170      2.5486     -7.9319     32.1112
         9       -62.5606      4.3725      0.6019    -19.1954
        10       -45.8346    -16.4376     -6.0925    -22.7883
        11       -19.1588     -1.3114      0.1656     -6.7682
        12        45.5646      7.9662     -2.9211     16.8699
        13         7.6885     -0.3612     -0.1413      2.3954
        14        -0.5840    -27.4637     -2.5937    -10.2138
        15       -11.2061     43.1457     -0.5971     10.4475
  1/2[<0|del|b>*<b|r|0> + (<0|r|b>*<b|del|0>)*] (Au)
       state          X           Y           Z        Dip. S.   Osc.(frdel)
         1         0.0243     -0.0175      0.0001     -0.0068     -0.0046
         2        -0.0086      0.0082      0.0000      0.0004      0.0003
         3         0.0003      0.0000     -0.0004      0.0000      0.0000
         4         0.0000     -0.0003     -0.0111      0.0115      0.0076
         5         0.0000     -0.0002     -0.0017      0.0018      0.0012
         6         0.0015     -0.0139      0.0006      0.0118      0.0079
         7         0.0059     -0.0606     -0.0012      0.0559      0.0373
         8        -0.0359      0.0045     -0.0010      0.0324      0.0216
         9        -0.0037     -0.0018     -0.0002      0.0057      0.0038
        10        -0.0152     -0.0026     -0.0008      0.0186      0.0124
        11        -0.0097     -0.0028      0.0002      0.0123      0.0082
        12        -0.0026      0.0005     -0.0005      0.0027      0.0018
        13        -0.0020      0.0002      0.0024     -0.0006     -0.0004
        14         0.0000     -0.0015      0.0006      0.0009      0.0006
        15        -0.0003     -0.0036     -0.0002      0.0041      0.0027

 Excitation energies and oscillator strengths:
 
 Excited State   1:      Singlet-A      6.8170 eV  181.87 nm  f=0.1499  <S**2>=0.000
      17 -> 19        -0.23276
      18 -> 19         0.59398
      18 -> 20         0.25669
 This state for optimization and/or second-order correction.
 Total Energy, E(CIS) =  -228.488495724    
 Copying the excited state density for this state as the 1-particle RhoCI density.
 
 Excited State   2:      Singlet-A      7.2940 eV  169.98 nm  f=0.0695  <S**2>=0.000
      17 -> 19        -0.42054
      18 -> 19        -0.33705
      18 -> 20         0.43867
 
 Excited State   3:      Singlet-A      8.2313 eV  150.63 nm  f=0.0051  <S**2>=0.000
      18 -> 21         0.68160
      18 -> 22         0.11449
 
 Excited State   4:      Singlet-A      8.7988 eV  140.91 nm  f=0.0057  <S**2>=0.000
      16 -> 19         0.69836
 
 Excited State   5:      Singlet-A      8.9345 eV  138.77 nm  f=0.0021  <S**2>=0.000
      18 -> 21        -0.11539
      18 -> 22         0.67875
      18 -> 23        -0.11396
 
 Excited State   6:      Singlet-A      9.4845 eV  130.72 nm  f=0.0627  <S**2>=0.000
      17 -> 19         0.13180
      17 -> 20        -0.23906
      17 -> 21        -0.20210
      18 -> 20         0.14757
      18 -> 22         0.11393
      18 -> 23         0.56420
 
 Excited State   7:      Singlet-A      9.5273 eV  130.14 nm  f=0.3396  <S**2>=0.000
      15 -> 19        -0.16236
      17 -> 19         0.34061
      17 -> 20        -0.28295
      18 -> 20         0.35417
      18 -> 21        -0.10500
      18 -> 23        -0.29764
 
 Excited State   8:      Singlet-A      9.6947 eV  127.89 nm  f=0.2138  <S**2>=0.000
      15 -> 19         0.23410
      17 -> 19         0.26690
      17 -> 20         0.42295
      17 -> 21         0.30612
      18 -> 20         0.21900
      18 -> 23         0.11763
 
 Excited State   9:      Singlet-A      9.7858 eV  126.70 nm  f=0.0112  <S**2>=0.000
      15 -> 19         0.62845
      17 -> 20        -0.20164
      18 -> 23        -0.17425
 
 Excited State  10:      Singlet-A     10.0048 eV  123.92 nm  f=0.0560  <S**2>=0.000
      17 -> 20        -0.28586
      17 -> 21         0.53118
      17 -> 22         0.12685
      18 -> 23         0.14089
      18 -> 24        -0.26730
 
 Excited State  11:      Singlet-A     10.1442 eV  122.22 nm  f=0.0258  <S**2>=0.000
      17 -> 20        -0.14079
      17 -> 21         0.21280
      17 -> 22         0.10377
      18 -> 24         0.62578
 
 Excited State  12:      Singlet-A     10.3459 eV  119.84 nm  f=0.0083  <S**2>=0.000
      14 -> 19         0.60631
      16 -> 20         0.31276
 
 Excited State  13:      Singlet-A     10.5038 eV  118.04 nm  f=0.0081  <S**2>=0.000
      17 -> 21        -0.14277
      17 -> 22         0.66425
      18 -> 25         0.10442
 
 Excited State  14:      Singlet-A     10.6382 eV  116.55 nm  f=0.0060  <S**2>=0.000
      14 -> 19         0.12164
      16 -> 20        -0.18809
      18 -> 25         0.65020
 
 Excited State  15:      Singlet-A     10.6826 eV  116.06 nm  f=0.0078  <S**2>=0.000
      13 -> 19         0.16143
      14 -> 19        -0.29058
      16 -> 20         0.56860
      18 -> 25         0.21559
 SavETr:  write IOETrn=   770 NScale= 10 NData=  16 NLR=1 NState=   15 LETran=     280.
 The selected state is a singlet
 CISAX will form     1 AO SS matrices at one time.
 NMat=     1 NSing=     1 JSym2X= 0.
 CISAX will form     1 AO SS matrices at one time.
 NMat=     1 NSing=     1 JSym2X= 0.
 Leave Link  914 at Tue Dec 15 16:26:20 2015, MaxMem=    33554432 cpu:        33.8
 (Enter /home/Applications/g09/g09/l1002.exe)
 Minotr:  Closed shell wavefunction.
          Computing CIS/TD-HF/TD-KS derivatives.
          Using Z-Vector for PSCF gradient.
          Skipping F1 and S1 gradient terms here.
          IDoAtm=111111111
          Frozen-core window.
          Direct CPHF calculation.
          Differentiating once with respect to electric field.
                with respect to dipole field.
          Differentiating once with respect to nuclear coordinates.
          Requested convergence is 1.0D-10 RMS, and 1.0D-09 maximum.
          NewPWx=F KeepS1=T KeepF1=T KeepIn=T MapXYZ=F SortEE=F KeepMc=T.
          MDV=      33554290 using IRadAn=       0.
 Using stored XC quadrature information.
 Keep R1 ints in memory in canonical form, NReq=1898913.
 FoFCou: FMM=F IPFlag=           0 FMFlag=           0 FMFlg1=           0
         NFxFlg=           0 DoJE=F BraDBF=F KetDBF=F FulRan=T
         wScrn=  0.000000 ICntrl=     600 IOpCl=  0 I1Cent=           0 NGrid=           0
         NMat0=    1 NMatS0=   1431 NMatT0=    0 NMatD0=    1 NMtDS0=    0 NMtDT0=    0
 Symmetry not used in FoFCou.
          Solving linear equations separately, MaxMat=       0.
          There are     1 degrees of freedom in the 1st order CPHF.  IDoFFX=0 NUNeed=     1.
 LinEq1:  Iter=  0 NonCon=     1 RMS=4.74D-02 Max=6.83D-01 NDo=     1
 AX will form     1 AO Fock derivatives at one time.
 LinEq1:  Iter=  1 NonCon=     1 RMS=2.02D-02 Max=3.55D-01 NDo=     1
 LinEq1:  Iter=  2 NonCon=     1 RMS=1.54D-02 Max=2.21D-01 NDo=     1
 LinEq1:  Iter=  3 NonCon=     1 RMS=6.09D-03 Max=6.71D-02 NDo=     1
 LinEq1:  Iter=  4 NonCon=     1 RMS=5.02D-03 Max=6.01D-02 NDo=     1
 LinEq1:  Iter=  5 NonCon=     1 RMS=1.29D-03 Max=1.60D-02 NDo=     1
 LinEq1:  Iter=  6 NonCon=     1 RMS=5.72D-04 Max=4.25D-03 NDo=     1
 LinEq1:  Iter=  7 NonCon=     1 RMS=2.52D-04 Max=2.42D-03 NDo=     1
 LinEq1:  Iter=  8 NonCon=     1 RMS=1.00D-04 Max=6.04D-04 NDo=     1
 LinEq1:  Iter=  9 NonCon=     1 RMS=1.69D-05 Max=1.09D-04 NDo=     1
 LinEq1:  Iter= 10 NonCon=     1 RMS=1.69D-06 Max=1.40D-05 NDo=     1
 LinEq1:  Iter= 11 NonCon=     1 RMS=2.67D-07 Max=1.74D-06 NDo=     1
 LinEq1:  Iter= 12 NonCon=     1 RMS=3.53D-08 Max=2.34D-07 NDo=     1
 LinEq1:  Iter= 13 NonCon=     1 RMS=4.72D-09 Max=2.56D-08 NDo=     1
 LinEq1:  Iter= 14 NonCon=     1 RMS=5.38D-10 Max=3.10D-09 NDo=     1
 LinEq1:  Iter= 15 NonCon=     0 RMS=6.03D-11 Max=4.18D-10 NDo=     1
 Linear equations converged to 1.000D-10 1.000D-09 after    15 iterations.
 End of Minotr F.D. properties file   721 does not exist.
 End of Minotr F.D. properties file   722 does not exist.
 End of Minotr F.D. properties file   788 does not exist.
 Leave Link 1002 at Tue Dec 15 16:26:28 2015, MaxMem=    33554432 cpu:         8.2
 (Enter /home/Applications/g09/g09/l601.exe)
 Copying SCF densities to generalized density rwf, IOpCl= 0 IROHF=0.

 **********************************************************************

            Population analysis using the SCF density.

 **********************************************************************

 Orbital symmetries:
       Occupied  (A) (A) (A) (A) (A) (A) (A) (A) (A) (A) (A) (A)
                 (A) (A) (A) (A) (A) (A)
       Virtual   (A) (A) (A) (A) (A) (A) (A) (A) (A) (A) (A) (A)
                 (A) (A) (A) (A) (A) (A) (A) (A) (A) (A) (A) (A)
                 (A) (A) (A) (A) (A) (A) (A) (A) (A) (A) (A)
 The electronic state is 1-A.
 Alpha  occ. eigenvalues --  -19.12004 -10.17879 -10.17542 -10.12937 -10.12437
 Alpha  occ. eigenvalues --   -1.13755  -0.81185  -0.74092  -0.60161  -0.57170
 Alpha  occ. eigenvalues --   -0.54316  -0.45344  -0.44418  -0.42184  -0.39677
 Alpha  occ. eigenvalues --   -0.36580  -0.28514  -0.22423
 Alpha virt. eigenvalues --    0.01619   0.07741   0.12768   0.14498   0.17361
 Alpha virt. eigenvalues --    0.18611   0.21152   0.24491   0.34252   0.41834
 Alpha virt. eigenvalues --    0.46812   0.68447   0.69924   0.72012   0.74520
 Alpha virt. eigenvalues --    0.76924   0.78633   0.80331   0.81644   0.83903
 Alpha virt. eigenvalues --    0.94575   0.98045   0.99592   1.02268   1.18317
 Alpha virt. eigenvalues --    1.21004   1.30760   1.35544   1.49970   1.56860
 Alpha virt. eigenvalues --    1.62704   1.71911   1.92889   2.10744   3.18963
     Molecular Orbital Coefficients:
                           1         2         3         4         5
                           O         O         O         O         O
     Eigenvalues --   -19.12004 -10.17879 -10.17542 -10.12937 -10.12437
   1 1   C  1S          0.00022   0.00010  -0.01091  -0.12135   0.97851
   2        2S          0.00096   0.00003  -0.00462  -0.01747   0.10846
   3        2PX        -0.00131  -0.00016  -0.00241   0.00054   0.00034
   4        2PY        -0.00051   0.00040   0.00047   0.00139  -0.00189
   5        2PZ        -0.00010  -0.00003  -0.00001  -0.00005   0.00026
   6        3S         -0.00698  -0.01771   0.03018   0.04930  -0.09492
   7        3PX        -0.00146  -0.00647   0.01480  -0.00731  -0.00630
   8        3PY         0.01106   0.00900  -0.00676  -0.02347   0.02677
   9        3PZ         0.00060  -0.00003   0.00033   0.00067  -0.00154
  10 2   C  1S         -0.00027  -0.06199   0.98342  -0.00071   0.01062
  11        2S         -0.00017  -0.00998   0.10624  -0.00004  -0.00289
  12        2PX         0.00006   0.00128  -0.00107   0.00063   0.00178
  13        2PY        -0.00271   0.00054  -0.00237  -0.00060  -0.00078
  14        2PZ         0.00007   0.00009   0.00010  -0.00008   0.00008
  15        3S          0.02043   0.02010  -0.06878  -0.01112   0.03496
  16        3PX        -0.01109  -0.02061   0.01420   0.00537  -0.02228
  17        3PY        -0.01477  -0.00647  -0.00565   0.00192   0.00090
  18        3PZ        -0.00024  -0.00075  -0.00011   0.00040  -0.00022
  19 3   O  1S          0.98280   0.00015   0.00036   0.00007   0.00009
  20        2S          0.10803   0.00158   0.00190   0.00034   0.00044
  21        2PX        -0.00293  -0.00120  -0.00027   0.00002   0.00006
  22        2PY         0.00324  -0.00002   0.00025   0.00001  -0.00008
  23        2PZ        -0.00012  -0.00008  -0.00002  -0.00003   0.00001
  24        3S         -0.06176  -0.00050  -0.00092  -0.00254  -0.00477
  25        3PX         0.00902   0.00204   0.00177   0.00262   0.00065
  26        3PY        -0.01121  -0.00202  -0.00443   0.00033  -0.00259
  27        3PZ         0.00035   0.00038   0.00013   0.00008   0.00005
  28 4   C  1S         -0.00050   0.98364   0.06086   0.01105   0.00186
  29        2S         -0.00082   0.10640   0.00329  -0.00312  -0.00118
  30        2PX         0.00242   0.00179  -0.00003   0.00076   0.00085
  31        2PY         0.00034   0.00204  -0.00112  -0.00188  -0.00099
  32        2PZ         0.00002   0.00018   0.00003  -0.00007   0.00003
  33        3S          0.01414  -0.07565   0.01174   0.03907  -0.00142
  34        3PX         0.00844   0.00466   0.00158  -0.00435  -0.00192
  35        3PY         0.00814  -0.02108   0.01794   0.02426   0.00115
  36        3PZ         0.00039  -0.00099   0.00012   0.00057  -0.00037
  37 5   C  1S          0.00015  -0.01148  -0.00129   0.97854   0.12092
  38        2S          0.00068  -0.00549  -0.00040   0.10985   0.00955
  39        2PX         0.00029  -0.00099  -0.00059   0.00201  -0.00106
  40        2PY         0.00124   0.00243   0.00052  -0.00009  -0.00076
  41        2PZ         0.00006   0.00003   0.00001  -0.00035  -0.00005
  42        3S         -0.00158   0.03807  -0.01302  -0.10697   0.02288
  43        3PX        -0.00643   0.01370  -0.00764  -0.03358   0.01640
  44        3PY         0.00091  -0.01538   0.00510   0.00241   0.00994
  45        3PZ        -0.00054  -0.00064   0.00039   0.00227  -0.00016
  46 6   H  1S         -0.00086  -0.00101  -0.00041  -0.00373  -0.00075
  47        2S         -0.00260   0.00238  -0.00113   0.00476   0.00517
  48 7   H  1S         -0.00003  -0.00345   0.00117  -0.00008   0.00000
  49        2S          0.00230   0.00676   0.00716   0.00502   0.00120
  50 8   H  1S          0.00033   0.00170  -0.00361  -0.00005  -0.00038
  51        2S          0.00468   0.00770   0.01088  -0.00039   0.00496
  52 9   H  1S         -0.00113  -0.00039  -0.00105  -0.00009  -0.00308
  53        2S         -0.00378  -0.00129   0.00076   0.00278   0.00541
                           6         7         8         9        10
                           O         O         O         O         O
     Eigenvalues --    -1.13755  -0.81185  -0.74092  -0.60161  -0.57170
   1 1   C  1S         -0.02630  -0.13307  -0.09090   0.09920   0.05563
   2        2S          0.02415   0.14247   0.09712  -0.10080  -0.05601
   3        2PX         0.01766  -0.02167   0.07758  -0.09605   0.17580
   4        2PY        -0.02724  -0.08865  -0.01443  -0.03811   0.00821
   5        2PZ         0.00113   0.00600   0.00419  -0.00616  -0.00518
   6        3S          0.05397   0.26295   0.18911  -0.33774  -0.18554
   7        3PX         0.00648   0.01319  -0.01741  -0.04131   0.06457
   8        3PY        -0.05647  -0.03489  -0.01333   0.02559   0.00883
   9        3PZ        -0.00168   0.00468   0.00338  -0.00508  -0.00443
  10 2   C  1S         -0.08823  -0.02382  -0.15030  -0.00789  -0.10710
  11        2S          0.09646   0.03045   0.16469   0.00795   0.11883
  12        2PX        -0.03020  -0.09286  -0.01493   0.14911   0.09046
  13        2PY        -0.10484   0.08128  -0.00646  -0.16707   0.12032
  14        2PZ         0.00133  -0.00069   0.00361   0.00409   0.00607
  15        3S          0.05909   0.02058   0.36255   0.05427   0.33557
  16        3PX         0.04098  -0.02757  -0.04402   0.04849   0.03774
  17        3PY         0.03908   0.00597   0.01437  -0.05543   0.07323
  18        3PZ         0.00176  -0.00109   0.00070   0.00146   0.00542
  19 3   O  1S         -0.21129   0.08071   0.02915  -0.00167   0.05725
  20        2S          0.19242  -0.07815  -0.02586   0.00415  -0.05729
  21        2PX        -0.06850  -0.04645   0.13753   0.18360  -0.00666
  22        2PY         0.09778  -0.01935   0.16906   0.17536   0.00675
  23        2PZ        -0.00241   0.00090   0.00010   0.00138   0.00451
  24        3S          0.67539  -0.29416  -0.11140   0.00446  -0.24472
  25        3PX        -0.09231  -0.02858   0.12105   0.16331  -0.00167
  26        3PY         0.11529  -0.02397   0.13260   0.15035   0.00304
  27        3PZ        -0.00337   0.00074   0.00064   0.00134   0.00341
  28 4   C  1S         -0.06200  -0.08153   0.13512   0.01265  -0.11088
  29        2S          0.06957   0.09260  -0.14247  -0.00821   0.12235
  30        2PX         0.06379  -0.06722  -0.04007  -0.18125  -0.08960
  31        2PY         0.03550   0.09712  -0.00035   0.08975  -0.06737
  32        2PZ         0.00146   0.00267  -0.00484  -0.00007   0.00683
  33        3S          0.05701   0.13898  -0.35225  -0.09303   0.34080
  34        3PX        -0.00922  -0.01509  -0.00313  -0.06694  -0.05686
  35        3PY        -0.02229   0.03608  -0.03617  -0.00347  -0.03042
  36        3PZ        -0.00033   0.00206  -0.00338  -0.00085   0.00440
  37 5   C  1S         -0.02360  -0.15820   0.03829  -0.11502   0.04349
  38        2S          0.02305   0.17062  -0.04165   0.11665  -0.04338
  39        2PX         0.02657   0.09253   0.00148  -0.09243   0.00958
  40        2PY        -0.01153  -0.00353   0.09111  -0.08411  -0.19021
  41        2PZ        -0.00117  -0.00955   0.00222  -0.01073   0.00549
  42        3S          0.02429   0.31983  -0.07299   0.40517  -0.14514
  43        3PX         0.03019   0.04461   0.00132   0.00059  -0.00007
  44        3PY        -0.00683  -0.00034  -0.01425  -0.04085  -0.06956
  45        3PZ         0.00129  -0.00686   0.00114  -0.00899   0.00394
  46 6   H  1S          0.00642   0.06350  -0.02293   0.13220  -0.04781
  47        2S          0.01145   0.01291  -0.00546   0.07258  -0.02701
  48 7   H  1S          0.01050   0.02347  -0.07848  -0.03153   0.13320
  49        2S         -0.01240   0.00648  -0.03375  -0.02928   0.07096
  50 8   H  1S          0.01573   0.00308   0.09420   0.03380   0.16333
  51        2S         -0.02919   0.00373   0.03526   0.01912   0.08257
  52 9   H  1S          0.00736   0.04627   0.04300  -0.08051  -0.05736
  53        2S          0.01888   0.01033   0.01223  -0.04942  -0.03331
                          11        12        13        14        15
                           O         O         O         O         O
     Eigenvalues --    -0.54316  -0.45344  -0.44418  -0.42184  -0.39677
   1 1   C  1S         -0.05022   0.00165  -0.04419  -0.01731   0.00691
   2        2S          0.04704  -0.00108   0.04675   0.01555  -0.01253
   3        2PX        -0.08439  -0.02830  -0.02744  -0.22019   0.07741
   4        2PY         0.17128   0.00527   0.08630   0.00306   0.32750
   5        2PZ         0.00796   0.11015   0.00969  -0.00326   0.00408
   6        3S          0.21454  -0.01560   0.14850   0.08983  -0.02078
   7        3PX        -0.03223  -0.01140  -0.03415  -0.08370   0.03857
   8        3PY         0.10585   0.01921   0.06336   0.01727   0.23182
   9        3PZ         0.00809   0.07785   0.00792  -0.00384   0.00456
  10 2   C  1S          0.00275   0.00755   0.02058   0.03803   0.01965
  11        2S         -0.00665  -0.00983  -0.01717  -0.04605  -0.02291
  12        2PX         0.16523   0.02936  -0.12624   0.23735   0.02318
  13        2PY         0.09935   0.00082  -0.21340  -0.01109  -0.00920
  14        2PZ         0.00754   0.20894  -0.00071  -0.02228  -0.00626
  15        3S          0.02071  -0.01589  -0.08102  -0.13695  -0.06391
  16        3PX         0.14429   0.01822  -0.09436   0.19667  -0.00814
  17        3PY         0.03113  -0.00327  -0.10626  -0.03710   0.02208
  18        3PZ         0.00527   0.18897  -0.00136  -0.02384  -0.00767
  19 3   O  1S         -0.04932  -0.00289   0.01553  -0.01388  -0.00538
  20        2S          0.04796   0.00317  -0.01235   0.01686   0.00125
  21        2PX         0.10756   0.00534   0.14039   0.15029  -0.08396
  22        2PY        -0.16694  -0.00484   0.22612  -0.07769   0.06479
  23        2PZ         0.00604   0.38301   0.00530  -0.05954  -0.01677
  24        3S          0.18709   0.01022  -0.06316   0.03314   0.05100
  25        3PX         0.09930   0.00411   0.13754   0.15600  -0.08595
  26        3PY        -0.14972  -0.00512   0.21200  -0.07575   0.07195
  27        3PZ         0.00546   0.38396   0.00579  -0.06067  -0.01768
  28 4   C  1S          0.00008   0.00015  -0.04092  -0.02905  -0.02357
  29        2S         -0.00299   0.00049   0.04438   0.03413   0.03011
  30        2PX         0.00453  -0.00431  -0.15777  -0.06845  -0.04972
  31        2PY        -0.18132   0.02717  -0.19417   0.11980   0.24265
  32        2PZ        -0.00005   0.16563   0.00729  -0.01995   0.00036
  33        3S          0.02594  -0.00940   0.13638   0.08623   0.09844
  34        3PX         0.02577  -0.00240  -0.11636  -0.00605  -0.04722
  35        3PY        -0.14783   0.00619  -0.13185   0.05168   0.19762
  36        3PZ         0.00213   0.15791   0.00577  -0.02296  -0.00237
  37 5   C  1S         -0.02959  -0.00394   0.04313  -0.00515   0.01732
  38        2S          0.02602   0.00351  -0.04651   0.01003  -0.01661
  39        2PX        -0.17563   0.04465   0.03389   0.32966  -0.06195
  40        2PY         0.09473  -0.00454  -0.01276  -0.00429  -0.27738
  41        2PZ        -0.00169   0.10405   0.01108  -0.00638   0.00407
  42        3S          0.14717   0.02280  -0.15300   0.03023  -0.09299
  43        3PX        -0.11242   0.05039   0.03531   0.22372  -0.05316
  44        3PY         0.02814   0.00071  -0.01106   0.00494  -0.13776
  45        3PZ        -0.00548   0.07495   0.00845  -0.00564   0.00353
  46 6   H  1S          0.11857  -0.02914  -0.07409  -0.22281   0.00787
  47        2S          0.06180  -0.01290  -0.04627  -0.19505   0.00505
  48 7   H  1S          0.08533  -0.01311   0.19052  -0.02795  -0.13884
  49        2S          0.03931  -0.01508   0.15118  -0.02898  -0.12894
  50 8   H  1S          0.09452   0.01564  -0.16347   0.09683  -0.01816
  51        2S          0.04041   0.01099  -0.12778   0.08143  -0.01052
  52 9   H  1S          0.13045   0.00997   0.10513   0.05125   0.20764
  53        2S          0.07397   0.00165   0.07940   0.03959   0.19937
                          16        17        18        19        20
                           O         O         O         V         V
     Eigenvalues --    -0.36580  -0.28514  -0.22423   0.01619   0.07741
   1 1   C  1S         -0.02752   0.00669  -0.00387  -0.00762   0.01560
   2        2S          0.02752  -0.00834   0.00377   0.00990  -0.00884
   3        2PX         0.21671   0.01514  -0.01296  -0.00678   0.00719
   4        2PY        -0.06412  -0.00970   0.00769  -0.00180  -0.03760
   5        2PZ        -0.01058   0.25001  -0.24592  -0.13938   0.34101
   6        3S          0.15784  -0.01218   0.01752   0.02075  -0.14291
   7        3PX         0.16933   0.00501  -0.01263  -0.02841   0.04984
   8        3PY        -0.02373  -0.01430   0.00802   0.03515  -0.10140
   9        3PZ        -0.00423   0.25689  -0.27346  -0.22280   0.67207
  10 2   C  1S          0.01462  -0.00270  -0.00208   0.00550  -0.00490
  11        2S         -0.01948   0.00341   0.00179  -0.00496   0.00851
  12        2PX        -0.19369  -0.00909   0.01864  -0.01171   0.00182
  13        2PY         0.12684   0.00445  -0.00460  -0.00246  -0.00523
  14        2PZ        -0.01160  -0.00489  -0.31641   0.31381  -0.23818
  15        3S         -0.03926   0.00865   0.01255  -0.02297  -0.00490
  16        3PX        -0.06168  -0.00405   0.01657  -0.04994   0.04890
  17        3PY        -0.01317   0.00272   0.00270  -0.00554  -0.01380
  18        3PZ        -0.00564  -0.03459  -0.33193   0.46863  -0.43355
  19 3   O  1S         -0.06811  -0.00011   0.00133  -0.00240   0.00557
  20        2S          0.06859   0.00026  -0.00104   0.00295  -0.00498
  21        2PX         0.30695   0.00396  -0.01071  -0.00082   0.01120
  22        2PY        -0.23643  -0.00837   0.00513  -0.00064  -0.01305
  23        2PZ         0.01653  -0.28643   0.07626  -0.29353   0.03381
  24        3S          0.25656  -0.00050  -0.00619   0.01236  -0.03829
  25        3PX         0.33320   0.00518  -0.01015  -0.00002   0.01490
  26        3PY        -0.25546  -0.00859   0.00739  -0.00282  -0.01773
  27        3PZ         0.01830  -0.32214   0.09626  -0.40674   0.05589
  28 4   C  1S          0.02387   0.00496   0.00319   0.00728   0.00380
  29        2S         -0.02687  -0.00572  -0.00454  -0.00230   0.00131
  30        2PX        -0.17133   0.00399   0.00762  -0.00402   0.01430
  31        2PY         0.06293  -0.00683  -0.00210   0.00346   0.02224
  32        2PZ         0.00788   0.14383   0.32076   0.32667   0.18666
  33        3S         -0.11020  -0.01675  -0.00164  -0.08664  -0.07310
  34        3PX        -0.02724   0.00609   0.00355   0.00470   0.03183
  35        3PY        -0.03101  -0.00437   0.00958  -0.01203   0.03489
  36        3PZ         0.00776   0.10562   0.36023   0.48861   0.37519
  37 5   C  1S         -0.01128  -0.01053  -0.00346   0.00633   0.01164
  38        2S          0.00953   0.01272   0.00407  -0.00536  -0.00308
  39        2PX         0.02308  -0.00636  -0.00027   0.00674   0.03865
  40        2PY        -0.15892   0.00416   0.00111  -0.01532  -0.00118
  41        2PZ        -0.00060   0.32201   0.12205  -0.19648  -0.32567
  42        3S          0.10932   0.03077   0.00757  -0.02516  -0.14201
  43        3PX        -0.00437  -0.01507  -0.00745   0.04042   0.09539
  44        3PY        -0.15071  -0.00493   0.01169  -0.03701  -0.00048
  45        3PZ        -0.00603   0.32830   0.13037  -0.33146  -0.64519
  46 6   H  1S         -0.01387   0.00200  -0.00481   0.01121   0.03604
  47        2S         -0.03341   0.00254  -0.00843   0.04136   0.17181
  48 7   H  1S         -0.04881  -0.00004   0.00282   0.00961   0.01489
  49        2S         -0.05086   0.00048   0.00477   0.02904   0.09055
  50 8   H  1S         -0.12278  -0.00221   0.00030   0.01111  -0.00511
  51        2S         -0.12016  -0.00395   0.00022   0.04426  -0.01379
  52 9   H  1S         -0.05143  -0.00514  -0.00364  -0.00560   0.03479
  53        2S         -0.07188  -0.00825  -0.00324  -0.03201   0.17730
                          21        22        23        24        25
                           V         V         V         V         V
     Eigenvalues --     0.12768   0.14498   0.17361   0.18611   0.21152
   1 1   C  1S          0.05680   0.00363  -0.01118   0.11390   0.00045
   2        2S         -0.03873  -0.00968   0.02331  -0.08705   0.00060
   3        2PX         0.08641   0.03226  -0.02470   0.01246   0.17178
   4        2PY        -0.13956   0.03991  -0.17894  -0.17403   0.09037
   5        2PZ        -0.06621  -0.00431  -0.00367  -0.03259   0.01328
   6        3S         -0.61851   0.03619  -0.16111  -1.08820   0.00941
   7        3PX         0.29618   0.13874  -0.14526   0.05535   0.83484
   8        3PY        -0.43595   0.04939  -0.34097  -0.93255   0.38134
   9        3PZ        -0.17491  -0.02491  -0.01164  -0.08114   0.05305
  10 2   C  1S          0.01730  -0.06726   0.04425  -0.07598   0.09295
  11        2S         -0.00925   0.04355  -0.03174   0.07256  -0.05448
  12        2PX        -0.04299   0.11637  -0.20165  -0.03238  -0.11696
  13        2PY        -0.08430  -0.03625  -0.10650   0.02386  -0.08116
  14        2PZ         0.03009   0.01903  -0.01475   0.01865  -0.01462
  15        3S         -0.35160   0.71342  -0.64887   0.61834  -1.41174
  16        3PX         0.02474   0.53070  -0.72314   0.16710  -0.26533
  17        3PY        -0.25615  -0.08592  -0.41303   0.27162  -0.39914
  18        3PZ         0.07385   0.05376  -0.04305   0.06287  -0.04654
  19 3   O  1S          0.05046   0.08793  -0.00988   0.00344   0.03727
  20        2S         -0.03382  -0.06420   0.00668  -0.00515  -0.01574
  21        2PX         0.13139   0.17972  -0.02277  -0.04315   0.15474
  22        2PY        -0.04212  -0.00018  -0.04043  -0.07500   0.13369
  23        2PZ         0.00142  -0.00800   0.00241  -0.00752   0.00248
  24        3S         -0.42926  -0.71714   0.07501  -0.00730  -0.39089
  25        3PX         0.23062   0.28323  -0.06461  -0.05154   0.35241
  26        3PY        -0.08837   0.00459  -0.08564  -0.08394   0.23218
  27        3PZ         0.00241  -0.01313   0.00527  -0.01822   0.00702
  28 4   C  1S          0.01686  -0.14013  -0.04569   0.02073  -0.03549
  29        2S         -0.00818   0.10565   0.02653  -0.03483   0.03281
  30        2PX         0.18645   0.19908  -0.15609  -0.05395   0.22303
  31        2PY         0.14031  -0.09816  -0.23015  -0.08165  -0.00705
  32        2PZ        -0.03148   0.01803   0.00887   0.00559   0.01040
  33        3S         -0.36084   1.28466   0.63730   0.11100   0.27496
  34        3PX         0.38993   0.34854  -0.48402   0.02369   0.65654
  35        3PY         0.32622  -0.45376  -0.78712  -0.00478  -0.03089
  36        3PZ        -0.08681   0.03691   0.01556   0.03087   0.04834
  37 5   C  1S          0.03667   0.02881   0.06004  -0.08159  -0.09203
  38        2S         -0.02036  -0.03977  -0.05192   0.07035   0.03571
  39        2PX         0.15607   0.00014  -0.02014  -0.12483  -0.15035
  40        2PY        -0.04468   0.05054   0.01161   0.03595   0.03874
  41        2PZ         0.06432  -0.00137   0.01027  -0.02069  -0.02952
  42        3S         -0.51365  -0.09570  -0.51864   0.74276   1.59245
  43        3PX         0.46726   0.23035   0.10701  -0.83603  -0.34998
  44        3PY        -0.01561   0.17798  -0.07917   0.14902   0.30140
  45        3PZ         0.17062  -0.00532   0.02518  -0.03843  -0.12620
  46 6   H  1S          0.09847   0.04710  -0.00507  -0.06164   0.04059
  47        2S          0.97907   0.34955   0.33574  -1.31114  -1.08870
  48 7   H  1S          0.05494  -0.08168  -0.06842   0.00214   0.02767
  49        2S          0.68982  -1.14132  -1.29292  -0.08556  -0.04158
  50 8   H  1S          0.01075  -0.08433   0.06400  -0.02237  -0.02349
  51        2S          0.30673  -0.96155   1.32900  -0.58847   1.12184
  52 9   H  1S          0.09153   0.00136   0.02093   0.06337  -0.00674
  53        2S          0.99584  -0.04755   0.48436   1.51046  -0.22685
                          26        27        28        29        30
                           V         V         V         V         V
     Eigenvalues --     0.24491   0.34252   0.41834   0.46812   0.68447
   1 1   C  1S         -0.08536  -0.06022  -0.02650   0.12768  -0.05555
   2        2S          0.01723   0.03204  -0.01571  -0.02334   0.08045
   3        2PX        -0.05197   0.06370   0.28602  -0.02360   0.39869
   4        2PY         0.00860  -0.14661   0.01813   0.22206  -0.02949
   5        2PZ         0.01120  -0.00971  -0.01448   0.01363  -0.01763
   6        3S          1.66632   0.88662   0.89180  -3.09891   0.41156
   7        3PX        -0.33853   1.12716   1.96183   0.09493  -0.26334
   8        3PY        -0.35127  -0.57568  -0.34025   2.47968  -0.51098
   9        3PZ         0.07647  -0.02898  -0.03891  -0.06889   0.03075
  10 2   C  1S         -0.05003   0.07719   0.04188  -0.09822   0.05623
  11        2S          0.03891   0.00048  -0.02560   0.01600   0.01654
  12        2PX         0.01459   0.27474   0.12263  -0.09249   0.07192
  13        2PY        -0.27240  -0.03474  -0.10960  -0.27528   0.15206
  14        2PZ        -0.00099   0.00560   0.01372  -0.01088   0.00254
  15        3S          0.36205  -1.35011  -1.18240   1.72295  -0.41606
  16        3PX         0.24792   1.24949   1.41488  -1.56386   0.39421
  17        3PY        -1.00436   0.16333  -1.25329  -0.55646   0.00762
  18        3PZ        -0.00820   0.02885   0.05864  -0.01712  -0.01188
  19 3   O  1S          0.08154  -0.05228   0.00719   0.02805  -0.02429
  20        2S         -0.03912   0.02514  -0.00012  -0.00549   0.08175
  21        2PX        -0.10133  -0.12353  -0.16370  -0.14541  -0.14171
  22        2PY        -0.19138   0.11510  -0.14575  -0.16950   0.09708
  23        2PZ         0.00872  -0.00106  -0.01005  -0.00387   0.00531
  24        3S         -0.87752   0.65092  -0.14137  -0.41825  -0.13983
  25        3PX        -0.16289  -0.32769  -0.40509  -0.18185   0.06534
  26        3PY        -0.46619   0.35700  -0.40504  -0.40317   0.16307
  27        3PZ         0.01691  -0.00423  -0.01577   0.00751   0.00371
[...]
     2  C    0.486366   5.030565   0.268661  -0.163584  -0.128181   0.004510
     3  O   -0.068966   0.268661   8.100049   0.306211  -0.074315   0.001537
     4  C   -0.155271  -0.163584   0.306211   5.167505   0.451441  -0.030067
     5  C    0.426310  -0.128181  -0.074315   0.451441   5.236746   0.386473
     6  H   -0.025048   0.004510   0.001537  -0.030067   0.386473   0.466118
     7  H    0.003271   0.003613  -0.024715   0.381220  -0.033039  -0.000401
     8  H   -0.041352   0.387518  -0.033021   0.005002   0.002820  -0.000024
     9  H    0.377192  -0.023212   0.001877   0.005726  -0.033015  -0.001454
               7          8          9
     1  C    0.003271  -0.041352   0.377192
     2  C    0.003613   0.387518  -0.023212
     3  O   -0.024715  -0.033021   0.001877
     4  C    0.381220   0.005002   0.005726
     5  C   -0.033039   0.002820  -0.033015
     6  H   -0.000401  -0.000024  -0.001454
     7  H    0.459704  -0.000073  -0.000040
     8  H   -0.000073   0.460048  -0.000346
     9  H   -0.000040  -0.000346   0.492523
 Mulliken charges:
               1
     1  C   -0.261994
     2  C    0.133744
     3  O   -0.477317
     4  C    0.031816
     5  C   -0.235242
     6  H    0.198356
     7  H    0.210460
     8  H    0.219427
     9  H    0.180750
 Sum of Mulliken charges =   0.00000
 Mulliken charges with hydrogens summed into heavy atoms:
               1
     1  C   -0.081244
     2  C    0.353171
     3  O   -0.477317
     4  C    0.242276
     5  C   -0.036886
 Electronic spatial extent (au):  <R**2>=            291.5780
 Charge=              0.0000 electrons
 Dipole moment (field-independent basis, Debye):
    X=             -0.5782    Y=              0.4124    Z=              0.0853  Tot=              0.7153
 Quadrupole moment (field-independent basis, Debye-Ang):
   XX=            -25.9191   YY=            -25.9856   ZZ=            -31.8662
   XY=              2.0109   XZ=              0.2099   YZ=              0.2013
 Traceless Quadrupole moment (field-independent basis, Debye-Ang):
   XX=              2.0045   YY=              1.9380   ZZ=             -3.9425
   XY=              2.0109   XZ=              0.2099   YZ=              0.2013
 Octapole moment (field-independent basis, Debye-Ang**2):
  XXX=              2.6397  YYY=             -4.6543  ZZZ=              0.1787  XYY=             -1.4837
  XXY=              2.8890  XXZ=             -0.0813  XZZ=              2.8195  YZZ=             -2.1358
  YYZ=              0.6800  XYZ=              0.1127
 Hexadecapole moment (field-independent basis, Debye-Ang**3):
 XXXX=           -150.9559 YYYY=           -144.8508 ZZZZ=            -31.1019 XXXY=              2.6098
 XXXZ=              1.6527 YYYX=              0.4116 YYYZ=              0.9094 ZZZX=              0.2845
 ZZZY=              0.1920 XXYY=            -56.1448 XXZZ=            -37.0259 YYZZ=            -37.0576
 XXYZ=              0.2562 YYXZ=             -0.1576 ZZXY=             -1.7944
 N-N= 1.606447206705D+02 E-N=-8.537681848264D+02  KE= 2.268610895227D+02
 Orbital energies and kinetic energies (alpha):
                                 1                 2
   1         O               -19.120036         28.829009
   2         O               -10.178785         15.804378
   3         O               -10.175418         15.797596
   4         O               -10.129371         15.804348
   5         O               -10.124367         15.808079
   6         O                -1.137548          2.545245
   7         O                -0.811845          1.765023
   8         O                -0.740919          1.801477
   9         O                -0.601608          1.650871
  10         O                -0.571698          1.476704
  11         O                -0.543162          1.276820
  12         O                -0.453441          1.611394
  13         O                -0.444183          1.525905
  14         O                -0.421841          1.469244
  15         O                -0.396765          1.351258
  16         O                -0.365800          2.189133
  17         O                -0.285145          1.481849
  18         O                -0.224230          1.242211
  19         V                 0.016194          1.844618
  20         V                 0.077412          1.489111
  21         V                 0.127677          1.280795
  22         V                 0.144977          1.864616
  23         V                 0.173609          1.199260
  24         V                 0.186107          1.347025
  25         V                 0.211523          1.665018
  26         V                 0.244906          1.936542
  27         V                 0.342522          1.996343
  28         V                 0.418343          1.766552
  29         V                 0.468121          2.690018
  30         V                 0.684471          2.521451
  31         V                 0.699237          2.511404
  32         V                 0.720116          2.849907
  33         V                 0.745204          2.616736
  34         V                 0.769239          2.518408
  35         V                 0.786335          2.585662
  36         V                 0.803306          2.691136
  37         V                 0.816439          2.635064
  38         V                 0.839030          2.559919
  39         V                 0.945746          2.891660
  40         V                 0.980445          3.344239
  41         V                 0.995924          2.999681
  42         V                 1.022683          3.117378
  43         V                 1.183167          2.702183
  44         V                 1.210041          2.826830
  45         V                 1.307601          2.542419
  46         V                 1.355440          2.891789
  47         V                 1.499702          4.921223
  48         V                 1.568601          3.439173
  49         V                 1.627044          3.576291
  50         V                 1.719109          4.431959
  51         V                 1.928885          3.922256
  52         V                 2.107444          4.339403
  53         V                 3.189632          6.822759
 Total kinetic energy from orbitals= 2.268610895227D+02
 No NMR shielding tensors so no spin-rotation constants.
 Leave Link  601 at Tue Dec 15 16:26:29 2015, MaxMem=    33554432 cpu:         0.1
 (Enter /home/Applications/g09/g09/l701.exe)
 Compute integral first derivatives.
 ... and contract with generalized density number  6.
 Leave Link  701 at Tue Dec 15 16:26:29 2015, MaxMem=    33554432 cpu:         0.1
 (Enter /home/Applications/g09/g09/l702.exe)
 L702 exits ... SP integral derivatives will be done elsewhere.
 Leave Link  702 at Tue Dec 15 16:26:29 2015, MaxMem=    33554432 cpu:         0.0
 (Enter /home/Applications/g09/g09/l703.exe)
 Compute integral first derivatives, UseDBF=F ICtDFT=           0.
 Integral derivatives from FoFJK, PRISM(SPDF).
 Calling FoFJK, ICntrl=  10005127 FMM=F ISym2X=0 I1Cent= 0 IOpClX= 0 NMat=1 NMatS=1 NMatT=0.
 FoFJK:  IHMeth= 1 ICntrl=10005127 DoSepK=F KAlg= 0 I1Cent=   0 FoldK=F
 IRaf=         0 NMat=   1 IRICut=       1 DoRegI=T DoRafI=F ISym2E= 0.
 FoFCou: FMM=F IPFlag=           0 FMFlag=      100000 FMFlg1=         800
         NFxFlg=           0 DoJE=F BraDBF=F KetDBF=F FulRan=T
         wScrn=  0.000000 ICntrl=10005127 IOpCl=  0 I1Cent=           0 NGrid=           0
         NMat0=    1 NMatS0=      1 NMatT0=    0 NMatD0=    1 NMtDS0=    0 NMtDT0=    0
 Symmetry not used in FoFCou.
 Leave Link  703 at Tue Dec 15 16:26:30 2015, MaxMem=    33554432 cpu:         1.3
 (Enter /home/Applications/g09/g09/l716.exe)
 Dipole        = 1.96310127D-01 7.04222281D-01 2.70910939D-02
 ***** Axes restored to original set *****
 -------------------------------------------------------------------
 Center     Atomic                   Forces (Hartrees/Bohr)
 Number     Number              X              Y              Z
 -------------------------------------------------------------------
      1        6           0.059775078   -0.023253859    0.007715384
      2        6           0.014763904   -0.065848721   -0.006666200
      3        8          -0.087284488    0.004354685    0.001514422
      4        6          -0.034907487    0.094609412   -0.002466324
      5        6           0.053226191    0.016129178    0.005258881
      6        1           0.008566915    0.002824955   -0.002259377
      7        1           0.015852935   -0.018394893    0.000288316
      8        1          -0.008202522   -0.017865962    0.001461948
      9        1          -0.021790526    0.007445206   -0.004847050
 -------------------------------------------------------------------
 Cartesian Forces:  Max     0.094609412 RMS     0.034062380
 Z-matrix is all fixed cartesians, so copy forces.
 Force constants in Cartesian coordinates: 
                1             2             3             4             5 
      1  0.837082D+00
      2 -0.215375D-01  0.788766D+00
      3  0.176687D-01  0.135750D-01  0.194320D+00
      4 -0.448703D+00 -0.856941D-01 -0.223216D-02  0.939721D+00
      5 -0.619754D-01 -0.200680D+00 -0.450638D-03 -0.645066D-01  0.100475D+01
      6  0.601257D-02  0.128120D-02 -0.925723D-01 -0.173231D-01  0.885602D-03
      7 -0.812816D-02  0.296837D-01  0.128438D-02 -0.355464D+00  0.234514D+00
      8 -0.618212D-02  0.226150D-01  0.362487D-03  0.278148D+00 -0.467324D+00
      9  0.517468D-03 -0.831050D-03  0.103372D-01  0.135372D-01 -0.126015D-01
     10  0.102450D-01 -0.373615D-03  0.667527D-03  0.238962D-01  0.181646D-01
     11  0.346174D-01 -0.128338D-02  0.280079D-02 -0.182982D-01 -0.139344D-01
     12  0.379598D-02 -0.114478D-03 -0.293715D-02 -0.128354D-02 -0.749618D-03
     13 -0.169061D+00  0.198096D-02 -0.180767D-02  0.937739D-02 -0.342875D-01
     14 -0.207409D-01 -0.441106D+00 -0.289319D-01 -0.299572D-03  0.109303D-02
     15 -0.131799D-02 -0.272900D-01 -0.840042D-01 -0.656403D-04  0.153273D-03
     16  0.176054D-01 -0.539862D-03 -0.386051D-03  0.123379D-04 -0.425820D-04
     17 -0.234714D-01  0.587275D-03  0.260713D-02 -0.622967D-05  0.215005D-04
     18 -0.440657D-02 -0.109951D-02  0.195991D-01  0.921583D-04 -0.318067D-03
     19  0.220586D-04  0.252127D-04 -0.409433D-03  0.151209D-05 -0.178430D-05
     20  0.303817D-04  0.347260D-04 -0.563920D-03 -0.150189D-05  0.177227D-05
     21 -0.365653D-03 -0.417937D-03  0.678695D-02  0.498133D-04 -0.587809D-04
     22  0.736316D-02 -0.269082D-01  0.145789D-02 -0.164335D+00 -0.108330D+00
     23 -0.331139D-02  0.121050D-01  0.333331D-03 -0.103206D+00 -0.346349D+00
     24 -0.313089D-03  0.123120D-02  0.229943D-01  0.715116D-02  0.133329D-01
     25 -0.246426D+00  0.103363D+00 -0.162432D-01 -0.450733D-02  0.164651D-01
     26  0.102571D+00 -0.181038D+00  0.102677D-01 -0.613496D-02  0.224209D-01
     27 -0.215914D-01  0.136655D-01 -0.745241D-01  0.741111D-04 -0.193230D-03
                6             7             8             9            10 
      6  0.184716D+00
      7  0.108064D-01  0.576188D+00
      8 -0.121538D-01 -0.113573D+00  0.736585D+00
      9 -0.476371D-01 -0.111117D-01  0.140231D-01  0.540251D-01
     10 -0.669267D-04 -0.247512D+00 -0.167892D+00  0.125859D-02  0.869634D+00
     11  0.370645D-03 -0.124009D+00 -0.295976D+00  0.315158D-03 -0.561384D-01
     12 -0.256284D-02  0.190011D-03 -0.137009D-02 -0.436307D-01  0.101706D-01
     13 -0.372542D-02 -0.819453D-02  0.628847D-02 -0.112873D-02 -0.487240D+00
     14 -0.127514D-03 -0.272924D-01  0.209274D-01 -0.221275D-02  0.104747D+00
     15  0.905915D-03  0.207672D-03 -0.147216D-03  0.535351D-02 -0.161909D-01
     16  0.666386D-03  0.000000D+00  0.000000D+00 -0.142159D-04 -0.545802D-02
     17 -0.336472D-03 -0.205806D-04  0.111195D-04  0.675414D-03  0.693035D-02
     18  0.497758D-02 -0.186545D-03  0.100788D-03  0.612204D-02 -0.186101D-02
     19  0.908142D-04  0.194132D-01 -0.148693D-01 -0.113308D-02 -0.163606D+00
     20 -0.902015D-04  0.113474D-01 -0.868972D-02 -0.910598D-03  0.945462D-01
     21  0.299172D-02 -0.298677D-03  0.193043D-03  0.520399D-02  0.615335D-02
     22  0.620039D-02  0.236980D-01  0.180770D-01 -0.177961D-02  0.689287D-05
     23  0.111226D-01 -0.106546D-01 -0.813345D-02  0.987058D-03  0.166310D-05
     24 -0.713926D-01 -0.938929D-03 -0.857031D-03  0.442879D-02  0.110748D-03
     25 -0.266116D-02 -0.119213D-05  0.380678D-05 -0.145883D-03  0.335332D-04
     26 -0.952048D-03  0.453628D-05 -0.144855D-04  0.555112D-03  0.142434D-04
     27  0.205734D-01  0.473739D-04 -0.151277D-03  0.579722D-02 -0.241970D-03
               11            12            13            14            15 
     11  0.766494D+00
     12  0.806734D-02  0.187863D+00
     13  0.810281D-01 -0.203285D-01  0.912879D+00
     14 -0.211684D+00  0.385546D-02  0.470989D-01  0.831808D+00
     15  0.464374D-02 -0.102409D+00 -0.625958D-04  0.991467D-02  0.212158D+00
     16 -0.179124D-01  0.243286D-02 -0.281279D+00 -0.127217D+00  0.162051D-01
     17  0.230553D-01 -0.455745D-03 -0.129094D+00 -0.214102D+00  0.106059D-01
     18 -0.320967D-02  0.253737D-01  0.227094D-01  0.156211D-01 -0.858089D-01
     19  0.100683D+00  0.523104D-02  0.722584D-02  0.242303D-01  0.115187D-02
     20 -0.266685D+00 -0.906838D-02  0.421779D-02  0.139756D-01 -0.749771D-03
     21 -0.125807D-01 -0.728397D-01  0.112542D-04  0.354522D-02  0.297091D-01
     22 -0.813375D-05  0.413976D-03 -0.126068D-05  0.435098D-05 -0.680906D-04
     23 -0.196250D-05  0.998838D-04  0.499817D-05 -0.172502D-04  0.269957D-03
     24 -0.130685D-03  0.665137D-02  0.103360D-03 -0.356726D-03  0.558258D-02
     25  0.383281D-04 -0.622416D-03  0.162938D-01 -0.531161D-03  0.140605D-03
     26  0.162801D-04 -0.264375D-03  0.227625D-01 -0.894161D-03  0.259946D-02
     27 -0.276569D-03  0.449125D-02  0.422886D-02 -0.130753D-02  0.185128D-01
               16            17            18            19            20 
     16  0.268989D+00
     17  0.145658D+00  0.190357D+00
     18 -0.179767D-01 -0.123998D-01  0.475181D-01
     19 -0.149465D-05  0.710128D-04  0.643668D-03  0.136945D+00
     20 -0.205862D-05  0.978073D-04  0.886537D-03 -0.110138D+00  0.261265D+00
     21  0.247761D-04 -0.117714D-02 -0.106697D-01 -0.557487D-02  0.104963D-01
     22  0.000000D+00  0.000000D+00  0.000000D+00  0.000000D+00  0.000000D+00
     23  0.000000D+00  0.000000D+00  0.000000D+00  0.000000D+00  0.000000D+00
     24  0.000000D+00  0.000000D+00  0.000000D+00  0.000000D+00  0.000000D+00
     25  0.131947D-03 -0.666230D-04  0.985583D-03  0.000000D+00  0.000000D+00
     26  0.560455D-04 -0.282985D-04  0.418632D-03  0.000000D+00  0.000000D+00
     27 -0.952111D-03  0.480741D-03 -0.711181D-02  0.000000D+00  0.000000D+00
               21            22            23            24            25 
     21  0.388177D-01
     22  0.000000D+00  0.133270D+00
     23  0.000000D+00  0.117155D+00  0.342436D+00
     24  0.000000D+00 -0.632925D-02 -0.123978D-01  0.403189D-01
     25  0.000000D+00 -0.263447D-05  0.104448D-04  0.215994D-03  0.234478D+00
     26  0.000000D+00  0.100247D-04 -0.397446D-04 -0.821898D-03 -0.119283D+00
     27  0.000000D+00  0.104691D-03 -0.415066D-03 -0.858335D-02  0.183304D-01
               26            27 
     26  0.159578D+00
     27 -0.118026D-01  0.408446D-01
 Leave Link  716 at Tue Dec 15 16:26:30 2015, MaxMem=    33554432 cpu:         0.0
 (Enter /home/Applications/g09/g09/l103.exe)

 GradGradGradGradGradGradGradGradGradGradGradGradGradGradGradGradGradGrad
 Berny optimization.
 Search for a local minimum.
 Step number   1 out of a maximum of    2
 All quantities printed in internal units (Hartrees-Bohrs-Radians)
 Second derivative matrix not updated -- first step.
 ITU=  0
     Eigenvalues ---    0.01841   0.02872   0.06935   0.07243   0.07535
     Eigenvalues ---    0.07943   0.12871   0.13160   0.15893   0.22719
     Eigenvalues ---    0.25113   0.28939   0.38319   0.41165   0.63165
     Eigenvalues ---    0.81917   1.01994   1.30454   1.46099   1.50760
     Eigenvalues ---    1.70059
 Quadratic step=3.469D-01 exceeds max=3.000D-01 adjusted using Lamda=-2.821D-02.
 Angle between NR and scaled steps=   6.98 degrees.
 Angle between quadratic step and forces=  41.59 degrees.
 Linear search not attempted -- first point.
 TrRot= -0.008623  0.002893  0.002383 -0.270179 -0.002391  0.272701
 Variable       Old X    -DE/DX   Delta X   Delta X   Delta X     New X
                                 (Linear)    (Quad)   (Total)
    X1        1.79711   0.05978   0.00000   0.05720   0.05206   1.84917
    Y1       -1.32986  -0.02325   0.00000  -0.01535  -0.00780  -1.33766
    Z1       -0.07470   0.00772   0.00000   0.03016   0.03768  -0.03703
    X2       -0.74089   0.01476   0.00000  -0.01311  -0.01620  -0.75709
    Y2       -2.02421  -0.06585   0.00000  -0.09442  -0.09348  -2.11769
    Z2       -0.07208  -0.00667   0.00000  -0.01060  -0.00858  -0.08066
    X3       -2.22657  -0.08728   0.00000  -0.10978  -0.11811  -2.34468
    Y3       -0.07035   0.00435   0.00000  -0.02864  -0.03165  -0.10199
    Z3       -0.00895   0.00151   0.00000  -0.00334  -0.00628  -0.01523
    X4       -0.59002  -0.03491   0.00000  -0.03194  -0.04606  -0.63607
    Y4        2.06519   0.09461   0.00000   0.11056   0.11188   2.17708
    Z4        0.00576  -0.00247   0.00000   0.00095   0.00050   0.00625
    X5        1.88217   0.05323   0.00000   0.07278   0.06043   1.94260
    Y5        1.32379   0.01613   0.00000   0.06021   0.06810   1.39189
    Z5        0.09329   0.00526   0.00000   0.00482   0.01081   0.10410
    X6        3.47309   0.00857   0.00000   0.10753   0.09255   3.56564
    Y6        2.54164   0.00282   0.00000   0.03539   0.04726   2.58890
    Z6       -0.03737  -0.00226   0.00000  -0.03125  -0.02228  -0.05965
    X7       -1.64658   0.01585   0.00000   0.04001   0.02123  -1.62535
    Y7        3.87505  -0.01839   0.00000   0.06332   0.06222   3.93727
    Z7        0.09240   0.00029   0.00000   0.01122   0.00736   0.09976
    X8       -1.55322  -0.00820   0.00000  -0.01351  -0.01209  -1.56531
    Y8       -3.83785  -0.01787   0.00000  -0.13859  -0.13964  -3.97749
    Z8        0.00571   0.00146   0.00000  -0.01078  -0.00945  -0.00373
    X9        3.48675  -0.02179   0.00000  -0.03157  -0.03381   3.45294
    Y9       -2.56928   0.00745   0.00000  -0.02855  -0.01689  -2.58617
    Z9        0.08650  -0.00485   0.00000  -0.02178  -0.00977   0.07673
         Item               Value     Threshold  Converged?
 Maximum Force            0.094609     0.000450     NO 
 RMS     Force            0.034062     0.000300     NO 
 Maximum Displacement     0.139640     0.001800     NO 
 RMS     Displacement     0.057165     0.001200     NO 
 Predicted change in Energy=-2.112686D-02
 GradGradGradGradGradGradGradGradGradGradGradGradGradGradGradGradGradGrad

 Leave Link  103 at Tue Dec 15 16:26:30 2015, MaxMem=    33554432 cpu:         0.0
 (Enter /home/Applications/g09/g09/l9999.exe)
 1\1\GINC-DUSTIN-DESKTOP\Force\RB3LYP-FC\3-21G\C4H4O1\DUSTIN\15-Dec-201
 5\0\\#P B3LYP/3-21G CIS(Singlets,NStates=15) pop(full) force\\FuranDFT
 \\0,1\C,0.95099,-0.703729,-0.03953\C,-0.392062,-1.071166,-0.038143\O,-
 1.178249,-0.037227,-0.004738\C,-0.312223,1.092854,0.003046\C,0.996,0.7
 00521,0.049368\H,1.83788,1.344979,-0.019777\H,-0.871334,2.05059,0.0488
 94\H,-0.821929,-2.030903,0.003024\H,1.845109,-1.359603,0.045773\\Versi
 on=ES64L-G09RevD.01\State=1-A\HF=-228.7390163\RMSD=8.282e-09\RMSF=3.40
 6e-02\Dipole=0.3144219,-0.6603746,0.0156482\PG=C01 [X(C4H4O1)]\\@


 EVERYBODY NEEDS BEAUTY AS WELL AS BREAD, PLACES TO PLAY IN AND PRAY IN,
 WHERE NATURE MAY HEAL AND CHEER AND GIVE STRENGTH TO BODY AND SOUL ALIKE.

                                    -- JOHN MUIR
 Job cpu time:       0 days  0 hours  0 minutes 48.2 seconds.
 File lengths (MBytes):  RWF=     14 Int=      0 D2E=      0 Chk=      3 Scr=      1
 Normal termination of Gaussian 09 at Tue Dec 15 16:26:30 2015.
