 Entering Gaussian System, Link 0=g09
 Input=FuranAM1_85.com
 Output=FuranAM1_85.log
 Initial command:
 /home/Applications/g09/g09/l1.exe "/home/Applications/g09/scratch/Gau-6327.inp" -scrdir="/home/Applications/g09/scratch/"
 Entering Link 1 = /home/Applications/g09/g09/l1.exe PID=      6329.
  
 Copyright (c) 1988,1990,1992,1993,1995,1998,2003,2009,2013,
            Gaussian, Inc.  All Rights Reserved.
  
 This is part of the Gaussian(R) 09 program.  It is based on
 the Gaussian(R) 03 system (copyright 2003, Gaussian, Inc.),
 the Gaussian(R) 98 system (copyright 1998, Gaussian, Inc.),
 the Gaussian(R) 94 system (copyright 1995, Gaussian, Inc.),
 the Gaussian 92(TM) system (copyright 1992, Gaussian, Inc.),
 the Gaussian 90(TM) system (copyright 1990, Gaussian, Inc.),
 the Gaussian 88(TM) system (copyright 1988, Gaussian, Inc.),
 the Gaussian 86(TM) system (copyright 1986, Carnegie Mellon
 University), and the Gaussian 82(TM) system (copyright 1983,
 Carnegie Mellon University). Gaussian is a federally registered
 trademark of Gaussian, Inc.
  
 This software contains proprietary and confidential information,
 including trade secrets, belonging to Gaussian, Inc.
  
 This software is provided under written license and may be
 used, copied, transmitted, or stored only in accord with that
 written license.
  
 The following legend is applicable only to US Government
 contracts under FAR:
  
                    RESTRICTED RIGHTS LEGEND
  
 Use, reproduction and disclosure by the US Government is
 subject to restrictions as set forth in subparagraphs (a)
 and (c) of the Commercial Computer Software - Restricted
 Rights clause in FAR 52.227-19.
  
 Gaussian, Inc.
 340 Quinnipiac St., Bldg. 40, Wallingford CT 06492
  
  
 ---------------------------------------------------------------
 Warning -- This program may not be used in any manner that
 competes with the business of Gaussian, Inc. or will provide
 assistance to any competitor of Gaussian, Inc.  The licensee
 of this program is prohibited from giving any competitor of
 Gaussian, Inc. access to this program.  By using this program,
 the user acknowledges that Gaussian, Inc. is engaged in the
 business of creating and licensing software in the field of
 computational chemistry and represents and warrants to the
 licensee that it is not a competitor of Gaussian, Inc. and that
 it will not use this program in any manner prohibited above.
 ---------------------------------------------------------------
  

 Cite this work as:
 Gaussian 09, Revision D.01,
 M. J. Frisch, G. W. Trucks, H. B. Schlegel, G. E. Scuseria, 
 M. A. Robb, J. R. Cheeseman, G. Scalmani, V. Barone, B. Mennucci, 
 G. A. Petersson, H. Nakatsuji, M. Caricato, X. Li, H. P. Hratchian, 
 A. F. Izmaylov, J. Bloino, G. Zheng, J. L. Sonnenberg, M. Hada, 
 M. Ehara, K. Toyota, R. Fukuda, J. Hasegawa, M. Ishida, T. Nakajima, 
 Y. Honda, O. Kitao, H. Nakai, T. Vreven, J. A. Montgomery, Jr., 
 J. E. Peralta, F. Ogliaro, M. Bearpark, J. J. Heyd, E. Brothers, 
 K. N. Kudin, V. N. Staroverov, T. Keith, R. Kobayashi, J. Normand, 
 K. Raghavachari, A. Rendell, J. C. Burant, S. S. Iyengar, J. Tomasi, 
 M. Cossi, N. Rega, J. M. Millam, M. Klene, J. E. Knox, J. B. Cross, 
 V. Bakken, C. Adamo, J. Jaramillo, R. Gomperts, R. E. Stratmann, 
 O. Yazyev, A. J. Austin, R. Cammi, C. Pomelli, J. W. Ochterski, 
 R. L. Martin, K. Morokuma, V. G. Zakrzewski, G. A. Voth, 
 P. Salvador, J. J. Dannenberg, S. Dapprich, A. D. Daniels, 
 O. Farkas, J. B. Foresman, J. V. Ortiz, J. Cioslowski, 
 and D. J. Fox, Gaussian, Inc., Wallingford CT, 2013.
 
 ******************************************
 Gaussian 09:  ES64L-G09RevD.01 24-Apr-2013
                15-Dec-2015 
 ******************************************
 ------------------------------------------------------------
 #P AM1(Input,print) CIS(Singlets,NStates=15) pop(full) force
 ------------------------------------------------------------
 1/10=7,30=1,38=1/1,3;
 2/12=2,17=6,18=5,40=1/2;
 3/5=2,16=1,25=1,41=700000,71=1,135=100,136=1/1,2,8,3;
 4/35=1/1;
 5/5=2,35=1,38=5/2;
 8/6=1,10=1,108=15/1;
 9/15=2,41=15,42=1,48=1,49=10/14;
 10/5=4/2;
 6/7=3,18=1/1;
 7/12=6,13=5,29=1/1,2,3,16;
 1/10=7,30=1/3;
 99//99;
 Leave Link    1 at Tue Dec 15 16:28:08 2015, MaxMem=           0 cpu:         0.0
 (Enter /home/Applications/g09/g09/l101.exe)
 -----------------
 AM1-Reparam Input
 -----------------
 Symbolic Z-matrix:
 Charge =  0 Multiplicity = 1
 6                     0.98958  -0.70816   0.03831 
 6                    -0.37882  -1.05976   0.00905 
 8                    -1.16534  -0.01578  -0.02734 
 6                    -0.35425   1.04771  -0.01276 
 6                     0.94713   0.74733  -0.03585 
 1                     1.81984   1.38953  -0.0126 
 1                    -0.81667   2.06002   0.03208 
 1                    -0.88817  -2.08022  -0.00354 
 1                     1.76435  -1.40807  -0.04844 
 
 NAtoms=      9 NQM=        9 NQMF=       0 NMMI=      0 NMMIF=      0
                NMic=       0 NMicF=      0.
                    Isotopes and Nuclear Properties:
 (Nuclear quadrupole moments (NQMom) in fm**2, nuclear magnetic moments (NMagM)
  in nuclear magnetons)

  Atom         1           2           3           4           5           6           7           8           9
 IAtWgt=          12          12          16          12          12           1           1           1           1
 AtmWgt=  12.0000000  12.0000000  15.9949146  12.0000000  12.0000000   1.0078250   1.0078250   1.0078250   1.0078250
 NucSpn=           0           0           0           0           0           1           1           1           1
 AtZEff=   0.0000000   0.0000000   0.0000000   0.0000000   0.0000000   0.0000000   0.0000000   0.0000000   0.0000000
 NQMom=    0.0000000   0.0000000   0.0000000   0.0000000   0.0000000   0.0000000   0.0000000   0.0000000   0.0000000
 NMagM=    0.0000000   0.0000000   0.0000000   0.0000000   0.0000000   2.7928460   2.7928460   2.7928460   2.7928460
 AtZNuc=   6.0000000   6.0000000   8.0000000   6.0000000   6.0000000   1.0000000   1.0000000   1.0000000   1.0000000
 Leave Link  101 at Tue Dec 15 16:28:08 2015, MaxMem=    33554432 cpu:         0.0
 (Enter /home/Applications/g09/g09/l103.exe)

 GradGradGradGradGradGradGradGradGradGradGradGradGradGradGradGradGradGrad
 Berny optimization.
 Initialization pass.
 Trust Radius=3.00D-01 FncErr=1.00D-07 GrdErr=1.00D-07
 Number of steps in this run=      2 maximum allowed number of steps=      2.
 GradGradGradGradGradGradGradGradGradGradGradGradGradGradGradGradGradGrad

 Leave Link  103 at Tue Dec 15 16:28:08 2015, MaxMem=    33554432 cpu:         0.0
 (Enter /home/Applications/g09/g09/l202.exe)
                          Input orientation:                          
 ---------------------------------------------------------------------
 Center     Atomic      Atomic             Coordinates (Angstroms)
 Number     Number       Type             X           Y           Z
 ---------------------------------------------------------------------
      1          6           0        0.989583   -0.708155    0.038310
      2          6           0       -0.378823   -1.059760    0.009050
      3          8           0       -1.165343   -0.015783   -0.027342
      4          6           0       -0.354249    1.047707   -0.012758
      5          6           0        0.947129    0.747329   -0.035852
      6          1           0        1.819840    1.389533   -0.012603
      7          1           0       -0.816672    2.060019    0.032077
      8          1           0       -0.888174   -2.080224   -0.003537
      9          1           0        1.764345   -1.408067   -0.048437
 ---------------------------------------------------------------------
                    Distance matrix (angstroms):
                    1          2          3          4          5
     1  C    0.000000
     2  C    1.413159   0.000000
     3  O    2.264375   1.307603   0.000000
     4  C    2.211683   2.107723   1.337571   0.000000
     5  C    1.457990   2.241815   2.246097   1.335794   0.000000
     6  H    2.256593   3.291447   3.299462   2.200797   1.083785
     7  H    3.305357   3.150439   2.105720   1.113832   2.199719
     8  H    2.326004   1.140589   2.083100   3.173187   3.371118
     9  H    1.047692   2.172048   3.243759   3.243538   2.305153
                    6          7          8          9
     6  H    0.000000
     7  H    2.720798   0.000000
     8  H    4.401436   4.141014   0.000000
     9  H    2.798380   4.323858   2.736726   0.000000
 Stoichiometry    C4H4O
 Framework group  C1[X(C4H4O)]
 Deg. of freedom    21
 Full point group                 C1      NOp   1
 Largest Abelian subgroup         C1      NOp   1
 Largest concise Abelian subgroup C1      NOp   1
                         Standard orientation:                         
 ---------------------------------------------------------------------
 Center     Atomic      Atomic             Coordinates (Angstroms)
 Number     Number       Type             X           Y           Z
 ---------------------------------------------------------------------
      1          6           0        0.070270    1.220215    0.033094
      2          6           0        1.095662    0.248151    0.007007
      3          8           0        0.629743   -0.973439   -0.014514
      4          6           0       -0.702132   -0.852046    0.007143
      5          6           0       -1.140103    0.409482   -0.025611
      6          1           0       -2.147956    0.807186   -0.000010
      7          1           0       -1.313116   -1.781554    0.064889
      8          1           0        2.230622    0.359411   -0.013713
      9          1           0        0.250327    2.247660   -0.064854
 ---------------------------------------------------------------------
 Rotational constants (GHZ):      9.7655639      9.0871773      4.7099410
 Leave Link  202 at Tue Dec 15 16:28:08 2015, MaxMem=    33554432 cpu:         0.0
 (Enter /home/Applications/g09/g09/l301.exe)

 Semi-emprical parameters in input format:
 Method=8 CoreType=1 PeptideFC=0.0114510000 RIJScale=0.5291770000
 ****
 H       
 PQN=1 NValence=1 F0ss=0.4721550000 ZetaOverlap=1.1880780000 U=-0.4188110000
 Beta=-0.2268830000 CoreKO=1.0589200000 KON=0,0,0,1.0589200000 KON=1,0,1,1.0589200000
 KON=0,1,1,1.0589200000 KON=2,1,1,1.0589200000 EISol=-0.4188110042 EHeat=0.0830298228
 Alpha=1.5252600000
 GCore=0.0085280000,1.4001430000,2.2676710000
 GCore=0.0003530000,1.4001430000,3.4015070000
 GCore=-0.0012730000,0.5600570000,3.9684250000
 ****
 C       
 PQN=2,2 NValence=4 F0ss=0.4494440000 F0sp=0.4215150000 F0pp=0.3768030000 F2pp=0.1898720000
 G1sp=0.2679030000
 ZetaOverlap=1.8086650000,1.6851160000
 U=-1.9120180000,-1.4557970000
 Beta=-0.5775440000,-0.2836780000 DDN=0,1,0.8236740000 DDN=1,1,0.7268010000
 CoreKO=1.1124280000 KON=0,0,0,1.1124280000 KON=1,0,1,0.8219700000 KON=0,1,1,1.1124280000
 KON=2,1,1,0.7783930000 EISol=-4.4398989268 EHeat=0.2723305520 Alpha=1.4014060000
 DipHyp=1.6472532266
 GCore=0.0007890000,1.4001430000,3.0235620000
 GCore=0.0031890000,1.4001430000,3.4959930000
 GCore=-0.0013930000,1.4001430000,3.8739390000
 GCore=-0.0000880000,1.4001430000,5.0077740000
 ****
 O       
 PQN=2,2 NValence=6 F0ss=0.5666750000 F0sp=0.5321300000 F0pp=0.4958710000 F2pp=0.2358080000
 G1sp=0.4343770000
 ZetaOverlap=3.1080320000,2.5240390000
 U=-3.5951870000,-2.8760900000
 Beta=-1.0757550000,-1.0757550000 DDN=0,1,0.4988900000 DDN=1,1,0.4852320000
 CoreKO=0.8822960000 KON=0,0,0,0.8822960000 KON=1,0,1,0.5019540000 KON=0,1,1,0.8822960000
 KON=2,1,1,0.5515580000 EISol=-11.6164441184 EHeat=0.0949133088 Alpha=2.3576810000
 DipHyp=0.9977225968
 GCore=0.0195120000,1.4001430000,1.6023330000
 GCore=0.0056550000,1.9602000000,2.7307880000
 ****
 
 Standard basis: VSTO-6G (5D, 7F)
 Ernie: Thresh=  0.10000D-02 Tol=  0.10000D-05 Strict=F.
  NNHCO=     0 NNPyr=     0 NCTC=     0               EPep=         0.000000000
    EC=        68.837044980  ECS=         1.820333318   EG=         0.380386250
   EHC=         0.000000000  EAt=       -31.051283842  AtH=         1.516354808
 EPDDG=         0.000000000  ECC=        71.037764549 EAtT=        32.567638650
 There are    24 symmetry adapted cartesian basis functions of A   symmetry.
 There are    24 symmetry adapted basis functions of A   symmetry.
    24 basis functions,   144 primitive gaussians,    24 cartesian basis functions
    13 alpha electrons       13 beta electrons
       nuclear repulsion energy       103.6054031992 Hartrees.
 IExCor=    0 DFT=F Ex=HF Corr=None ExCW=0 ScaHFX=  1.000000
 ScaDFX=  1.000000  1.000000  1.000000  1.000000 ScalE2=  1.000000  1.000000
 IRadAn=      0 IRanWt=     -1 IRanGd=            0 ICorTp=0 IEmpDi=  4
 Integral buffers will be    131072 words long.
 Regular integral format.
 Two-electron integral symmetry is turned off.
 Leave Link  301 at Tue Dec 15 16:28:08 2015, MaxMem=    33554432 cpu:         0.0
 (Enter /home/Applications/g09/g09/l302.exe)
 Do NDO integrals.
 NPDir=0 NMtPBC=     1 NCelOv=     1 NCel=       1 NClECP=     1 NCelD=      1
         NCelK=      1 NCelE2=     1 NClLst=     1 CellRange=     0.0.
 One-electron integrals computed using PRISM.
 NBasis=    24 RedAO= F EigKep=  0.00D+00  NBF=    24
 NBsUse=    24 1.00D-04 EigRej=  0.00D+00 NBFU=    24
 Leave Link  302 at Tue Dec 15 16:28:08 2015, MaxMem=    33554432 cpu:         0.0
 (Enter /home/Applications/g09/g09/l308.exe)
 Leave Link  308 at Tue Dec 15 16:28:08 2015, MaxMem=    33554432 cpu:         0.0
 (Enter /home/Applications/g09/g09/l303.exe)
 DipDrv:  MaxL=1.
 Leave Link  303 at Tue Dec 15 16:28:08 2015, MaxMem=    33554432 cpu:         0.0
 (Enter /home/Applications/g09/g09/l401.exe)
 Simple Huckel Guess.
 JPrj=0 DoOrth=F DoCkMO=F.
 Leave Link  401 at Tue Dec 15 16:28:08 2015, MaxMem=    33554432 cpu:         0.0
 (Enter /home/Applications/g09/g09/l502.exe)
 Closed shell SCF:
 Using DIIS extrapolation, IDIIS=  1040.
 Overlap will be assumed to be unity.
 Two-electron integral symmetry not used.
 Keep J ints in memory in canonical form, NReq=888082.
 IVT=       79475 IEndB=       79475 NGot=    33554432 MDV=    33473473
 LenX=    33473473 LenY=    33472456
 Requested convergence on RMS density matrix=1.00D-08 within 128 cycles.
 Requested convergence on MAX density matrix=1.00D-06.
 Requested convergence on             energy=1.00D-06.
 No special actions if energy rises.
 FoFCou: FMM=F IPFlag=           0 FMFlag=           0 FMFlg1=           0
         NFxFlg=           0 DoJE=F BraDBF=F KetDBF=F FulRan=T
         wScrn=  0.000000 ICntrl=     600 IOpCl=  2 I1Cent=           0 NGrid=           0
         NMat0=    1 NMatS0=     54 NMatT0=    0 NMatD0=    1 NMtDS0=    0 NMtDT0=    0
 Symmetry not used in FoFCou.

 Cycle   1  Pass 1  IDiag  1:
 E= 0.354774271492644    
 DIIS: error= 6.93D-02 at cycle   1 NSaved=   1.
 NSaved= 1 IEnMin= 1 EnMin= 0.354774271492644     IErMin= 1 ErrMin= 6.93D-02
 ErrMax= 6.93D-02  0.00D+00 EMaxC= 1.00D-01 BMatC= 1.15D-01 BMatP= 1.15D-01
 IDIUse=3 WtCom= 3.07D-01 WtEn= 6.93D-01
 Coeff-Com:  0.100D+01
 Coeff-En:   0.100D+01
 Coeff:      0.100D+01
 GapD=    2.000 DampG=2.000 DampE=0.500 DampFc=1.0000 IDamp=-1.
 RMSDP=2.00D-02 MaxDP=1.67D-01              OVMax= 0.00D+00

 Cycle   2  Pass 1  IDiag  1:
 E= 0.640556986354568E-01 Delta-E=       -0.290718572857 Rises=F Damp=F
 DIIS: error= 1.82D-02 at cycle   2 NSaved=   2.
 NSaved= 2 IEnMin= 2 EnMin= 0.640556986354568E-01 IErMin= 2 ErrMin= 1.82D-02
 ErrMax= 1.82D-02  0.00D+00 EMaxC= 1.00D-01 BMatC= 1.00D-02 BMatP= 1.15D-01
 IDIUse=3 WtCom= 8.18D-01 WtEn= 1.82D-01
 Coeff-Com: -0.353D+00 0.135D+01
 Coeff-En:   0.000D+00 0.100D+01
 Coeff:     -0.289D+00 0.129D+01
 RMSDP=8.45D-03 MaxDP=6.39D-02 DE=-2.91D-01 OVMax= 0.00D+00

 Cycle   3  Pass 1  IDiag  3:
 E= 0.316242554770270E-01 Delta-E=       -0.032431443158 Rises=F Damp=F
 DIIS: error= 4.09D-03 at cycle   3 NSaved=   3.
 NSaved= 3 IEnMin= 3 EnMin= 0.316242554770270E-01 IErMin= 3 ErrMin= 4.09D-03
 ErrMax= 4.09D-03  0.00D+00 EMaxC= 1.00D-01 BMatC= 4.12D-04 BMatP= 1.00D-02
 IDIUse=3 WtCom= 9.59D-01 WtEn= 4.09D-02
 Coeff-Com:  0.109D+00-0.510D+00 0.140D+01
 Coeff-En:   0.000D+00 0.000D+00 0.100D+01
 Coeff:      0.105D+00-0.489D+00 0.138D+01
 Gap=     0.377 Goal=   None    Shift=    0.000
 RMSDP=2.55D-03 MaxDP=2.15D-02 DE=-3.24D-02 OVMax= 2.43D-02

 Cycle   4  Pass 1  IDiag  3:
 E= 0.294636160963506E-01 Delta-E=       -0.002160639381 Rises=F Damp=F
 DIIS: error= 1.23D-03 at cycle   4 NSaved=   4.
 NSaved= 4 IEnMin= 4 EnMin= 0.294636160963506E-01 IErMin= 4 ErrMin= 1.23D-03
 ErrMax= 1.23D-03  0.00D+00 EMaxC= 1.00D-01 BMatC= 3.18D-05 BMatP= 4.12D-04
 IDIUse=3 WtCom= 9.88D-01 WtEn= 1.23D-02
 Coeff-Com:  0.189D-01-0.626D-01-0.209D+00 0.125D+01
 Coeff-En:   0.000D+00 0.000D+00 0.000D+00 0.100D+01
 Coeff:      0.187D-01-0.618D-01-0.206D+00 0.125D+01
 Gap=     0.377 Goal=   None    Shift=    0.000
 RMSDP=8.61D-04 MaxDP=8.06D-03 DE=-2.16D-03 OVMax= 9.22D-03

 Cycle   5  Pass 1  IDiag  3:
 E= 0.292796508443303E-01 Delta-E=       -0.000183965252 Rises=F Damp=F
 DIIS: error= 1.53D-04 at cycle   5 NSaved=   5.
 NSaved= 5 IEnMin= 5 EnMin= 0.292796508443303E-01 IErMin= 5 ErrMin= 1.53D-04
 ErrMax= 1.53D-04  0.00D+00 EMaxC= 1.00D-01 BMatC= 1.34D-06 BMatP= 3.18D-05
 IDIUse=3 WtCom= 9.98D-01 WtEn= 1.53D-03
 Coeff-Com: -0.766D-02 0.283D-01 0.483D-01-0.489D+00 0.142D+01
 Coeff-En:   0.000D+00 0.000D+00 0.000D+00 0.000D+00 0.100D+01
 Coeff:     -0.765D-02 0.282D-01 0.482D-01-0.488D+00 0.142D+01
 Gap=     0.377 Goal=   None    Shift=    0.000
 RMSDP=1.89D-04 MaxDP=1.31D-03 DE=-1.84D-04 OVMax= 1.75D-03

 Cycle   6  Pass 1  IDiag  3:
 E= 0.292711121991971E-01 Delta-E=       -0.000008538645 Rises=F Damp=F
 DIIS: error= 6.88D-05 at cycle   6 NSaved=   6.
 NSaved= 6 IEnMin= 6 EnMin= 0.292711121991971E-01 IErMin= 6 ErrMin= 6.88D-05
 ErrMax= 6.88D-05  0.00D+00 EMaxC= 1.00D-01 BMatC= 1.02D-07 BMatP= 1.34D-06
 IDIUse=1 WtCom= 1.00D+00 WtEn= 0.00D+00
 Coeff-Com:  0.233D-02-0.837D-02-0.567D-02 0.119D+00-0.531D+00 0.142D+01
 Coeff:      0.233D-02-0.837D-02-0.567D-02 0.119D+00-0.531D+00 0.142D+01
 Gap=     0.377 Goal=   None    Shift=    0.000
 RMSDP=6.22D-05 MaxDP=5.08D-04 DE=-8.54D-06 OVMax= 7.86D-04

 Cycle   7  Pass 1  IDiag  3:
 E= 0.292702597596701E-01 Delta-E=       -0.000000852440 Rises=F Damp=F
 DIIS: error= 3.06D-05 at cycle   7 NSaved=   7.
 NSaved= 7 IEnMin= 7 EnMin= 0.292702597596701E-01 IErMin= 7 ErrMin= 3.06D-05
 ErrMax= 3.06D-05  0.00D+00 EMaxC= 1.00D-01 BMatC= 1.26D-08 BMatP= 1.02D-07
 IDIUse=1 WtCom= 1.00D+00 WtEn= 0.00D+00
 Coeff-Com: -0.334D-03 0.650D-03 0.177D-02-0.213D-01 0.134D+00-0.724D+00
 Coeff-Com:  0.161D+01
 Coeff:     -0.334D-03 0.650D-03 0.177D-02-0.213D-01 0.134D+00-0.724D+00
 Coeff:      0.161D+01
 Gap=     0.377 Goal=   None    Shift=    0.000
 RMSDP=2.98D-05 MaxDP=2.75D-04 DE=-8.52D-07 OVMax= 3.59D-04

 Cycle   8  Pass 1  IDiag  3:
 E= 0.292701303507528E-01 Delta-E=       -0.000000129409 Rises=F Damp=F
 DIIS: error= 7.41D-06 at cycle   8 NSaved=   8.
 NSaved= 8 IEnMin= 8 EnMin= 0.292701303507528E-01 IErMin= 8 ErrMin= 7.41D-06
 ErrMax= 7.41D-06  0.00D+00 EMaxC= 1.00D-01 BMatC= 6.91D-10 BMatP= 1.26D-08
 IDIUse=1 WtCom= 1.00D+00 WtEn= 0.00D+00
 Coeff-Com:  0.262D-04 0.260D-03-0.128D-02 0.660D-02-0.428D-01 0.293D+00
 Coeff-Com: -0.850D+00 0.159D+01
 Coeff:      0.262D-04 0.260D-03-0.128D-02 0.660D-02-0.428D-01 0.293D+00
 Coeff:     -0.850D+00 0.159D+01
 Gap=     0.377 Goal=   None    Shift=    0.000
 RMSDP=7.26D-06 MaxDP=7.02D-05 DE=-1.29D-07 OVMax= 8.96D-05

 Cycle   9  Pass 1  IDiag  3:
 E= 0.292701236463273E-01 Delta-E=       -0.000000006704 Rises=F Damp=F
 DIIS: error= 1.09D-06 at cycle   9 NSaved=   9.
 NSaved= 9 IEnMin= 9 EnMin= 0.292701236463273E-01 IErMin= 9 ErrMin= 1.09D-06
 ErrMax= 1.09D-06  0.00D+00 EMaxC= 1.00D-01 BMatC= 2.79D-11 BMatP= 6.91D-10
 IDIUse=1 WtCom= 1.00D+00 WtEn= 0.00D+00
 Coeff-Com:  0.310D-04-0.256D-03 0.364D-03-0.505D-03 0.843D-02-0.898D-01
 Coeff-Com:  0.297D+00-0.691D+00 0.148D+01
 Coeff:      0.310D-04-0.256D-03 0.364D-03-0.505D-03 0.843D-02-0.898D-01
 Coeff:      0.297D+00-0.691D+00 0.148D+01
 Gap=     0.377 Goal=   None    Shift=    0.000
 RMSDP=1.06D-06 MaxDP=9.25D-06 DE=-6.70D-09 OVMax= 1.41D-05

 Cycle  10  Pass 1  IDiag  3:
 E= 0.292701234592130E-01 Delta-E=       -0.000000000187 Rises=F Damp=F
 DIIS: error= 1.39D-07 at cycle  10 NSaved=  10.
 NSaved=10 IEnMin=10 EnMin= 0.292701234592130E-01 IErMin=10 ErrMin= 1.39D-07
 ErrMax= 1.39D-07  0.00D+00 EMaxC= 1.00D-01 BMatC= 1.17D-12 BMatP= 2.79D-11
 IDIUse=1 WtCom= 1.00D+00 WtEn= 0.00D+00
 Coeff-Com: -0.127D-04 0.100D-03-0.150D-03 0.213D-03-0.276D-02 0.307D-01
 Coeff-Com: -0.102D+00 0.240D+00-0.619D+00 0.145D+01
 Coeff:     -0.127D-04 0.100D-03-0.150D-03 0.213D-03-0.276D-02 0.307D-01
 Coeff:     -0.102D+00 0.240D+00-0.619D+00 0.145D+01
 Gap=     0.377 Goal=   None    Shift=    0.000
 RMSDP=1.87D-07 MaxDP=1.20D-06 DE=-1.87D-10 OVMax= 2.03D-06

 Cycle  11  Pass 1  IDiag  3:
 E= 0.292701234521502E-01 Delta-E=       -0.000000000007 Rises=F Damp=F
 DIIS: error= 2.27D-08 at cycle  11 NSaved=  11.
 NSaved=11 IEnMin=11 EnMin= 0.292701234521502E-01 IErMin=11 ErrMin= 2.27D-08
 ErrMax= 2.27D-08  0.00D+00 EMaxC= 1.00D-01 BMatC= 5.32D-14 BMatP= 1.17D-12
 IDIUse=1 WtCom= 1.00D+00 WtEn= 0.00D+00
 Coeff-Com:  0.351D-05-0.289D-04 0.458D-04-0.804D-04 0.786D-03-0.870D-02
 Coeff-Com:  0.286D-01-0.665D-01 0.176D+00-0.534D+00 0.140D+01
 Coeff:      0.351D-05-0.289D-04 0.458D-04-0.804D-04 0.786D-03-0.870D-02
 Coeff:      0.286D-01-0.665D-01 0.176D+00-0.534D+00 0.140D+01
 Gap=     0.377 Goal=   None    Shift=    0.000
 RMSDP=4.00D-08 MaxDP=1.87D-07 DE=-7.06D-12 OVMax= 3.27D-07

 Cycle  12  Pass 1  IDiag  3:
 E= 0.292701234519512E-01 Delta-E=        0.000000000000 Rises=F Damp=F
 DIIS: error= 6.79D-09 at cycle  12 NSaved=  12.
 NSaved=12 IEnMin=12 EnMin= 0.292701234519512E-01 IErMin=12 ErrMin= 6.79D-09
 ErrMax= 6.79D-09  0.00D+00 EMaxC= 1.00D-01 BMatC= 4.01D-15 BMatP= 5.32D-14
 IDIUse=1 WtCom= 1.00D+00 WtEn= 0.00D+00
 Coeff-Com: -0.645D-06 0.546D-05-0.886D-05 0.179D-04-0.116D-03 0.143D-02
 Coeff-Com: -0.470D-02 0.107D-01-0.294D-01 0.119D+00-0.570D+00 0.147D+01
 Coeff:     -0.645D-06 0.546D-05-0.886D-05 0.179D-04-0.116D-03 0.143D-02
 Coeff:     -0.470D-02 0.107D-01-0.294D-01 0.119D+00-0.570D+00 0.147D+01
 Gap=     0.377 Goal=   None    Shift=    0.000
 RMSDP=1.19D-08 MaxDP=5.67D-08 DE=-1.99D-13 OVMax= 1.27D-07

 Cycle  13  Pass 1  IDiag  3:
 E= 0.292701234518660E-01 Delta-E=        0.000000000000 Rises=F Damp=F
 DIIS: error= 1.77D-09 at cycle  13 NSaved=  13.
 NSaved=13 IEnMin=13 EnMin= 0.292701234518660E-01 IErMin=13 ErrMin= 1.77D-09
 ErrMax= 1.77D-09  0.00D+00 EMaxC= 1.00D-01 BMatC= 2.31D-16 BMatP= 4.01D-15
 IDIUse=1 WtCom= 1.00D+00 WtEn= 0.00D+00
 Coeff-Com:  0.657D-07-0.584D-06 0.104D-05-0.284D-05-0.290D-05-0.494D-04
 Coeff-Com:  0.160D-03-0.219D-03 0.101D-02-0.167D-01 0.160D+00-0.625D+00
 Coeff-Com:  0.148D+01
 Coeff:      0.657D-07-0.584D-06 0.104D-05-0.284D-05-0.290D-05-0.494D-04
 Coeff:      0.160D-03-0.219D-03 0.101D-02-0.167D-01 0.160D+00-0.625D+00
 Coeff:      0.148D+01
 Gap=     0.377 Goal=   None    Shift=    0.000
 RMSDP=2.95D-09 MaxDP=1.70D-08 DE=-8.53D-14 OVMax= 3.64D-08

 Cycle  14  Pass 2  IDiag  1:
 SCF Done:  E(RAM1) =  0.292701234519E-01 A.U. after   14 cycles
            NFock= 13  Conv=0.29D-08     -V/T= 1.0018
 KE=-1.657490118280D+01 PE=-1.712361859378D+02 EE= 8.423495404486D+01
 Leave Link  502 at Tue Dec 15 16:28:08 2015, MaxMem=    33554432 cpu:         0.0
 (Enter /home/Applications/g09/g09/l801.exe)
 Range of M.O.s used for correlation:     1    24
 NBasis=    24 NAE=    13 NBE=    13 NFC=     0 NFV=     0
 NROrb=     24 NOA=    13 NOB=    13 NVA=    11 NVB=    11
 Leave Link  801 at Tue Dec 15 16:28:08 2015, MaxMem=    33554432 cpu:         0.0
 (Enter /home/Applications/g09/g09/l914.exe)
 RHF ground state
 MDV=    33554432 DFT=F DoStab=F Mixed=F DoRPA=F DoScal=F NonHer=F
 Making orbital integer symmetry assigments:
 Orbital symmetries:
       Occupied  (A) (A) (A) (A) (A) (A) (A) (A) (A) (A) (A) (A)
                 (A)
       Virtual   (A) (A) (A) (A) (A) (A) (A) (A) (A) (A) (A)
    60 initial guesses have been made.
 Convergence on wavefunction:    0.000001000000000
 Davidson Disk Diagonalization:  ConvIn= 1.00D-06 SkipCon=T Conv= 1.00D-06.
 Max sub-space:   240 roots to seek:    60 dimension of matrix:          286
 Iteration     1 Dimension    60 NMult     0 NNew     60
 CISAX will form    60 AO SS matrices at one time.
 NMat=    60 NSing=    60 JSym2X= 0.
 FoFJK:  IHMeth= 8 ICntrl=       0 DoSepK=F KAlg= 0 I1Cent=   0 FoldK=F
 IRaf=         1 NMat= 120 IRICut=       1 DoRegI=T DoRafI=F ISym2E= 0.
 FoFCou: FMM=F IPFlag=           0 FMFlag=      100000 FMFlg1=           0
         NFxFlg=           0 DoJE=F BraDBF=F KetDBF=F FulRan=T
         wScrn=  0.000000 ICntrl=       0 IOpCl=  0 I1Cent=           0 NGrid=           0
         NMat0=  120 NMatS0=     60 NMatT0=    0 NMatD0=  120 NMtDS0=    0 NMtDT0=    0
 Symmetry not used in FoFCou.
 New state      2 was old state      4
 New state      3 was old state      2
 New state      4 was old state      8
 New state      5 was old state      7
 New state      6 was old state      5
 New state      7 was old state      9
 New state      8 was old state      6
 New state      9 was old state      3
 New state     10 was old state     13
 New state     13 was old state     17
 New state     14 was old state     18
 New state     15 was old state     10
 Excitation Energies [eV] at current iteration:
 Root      1 :     4.488818838595491
 Root      2 :     4.913421731027093
 Root      3 :     4.949794330739994
 Root      4 :     5.695321675335991
 Root      5 :     6.161623343323358
 Root      6 :     6.237766189969370
 Root      7 :     6.299991624884702
 Root      8 :     6.353962939301981
 Root      9 :     6.425858984519402
 Root     10 :     6.960697355445414
 Root     11 :     6.980832510624380
 Root     12 :     7.139169760648723
 Root     13 :     7.428703419046935
 Root     14 :     7.497915673416413
 Root     15 :     7.652812424125961
 Root     16 :     7.712554774082355
 Root     17 :     7.960063123115614
 Root     18 :     8.055858893262265
 Root     19 :     8.137000579178071
 Root     20 :     8.382350023130442
 Root     21 :     8.732923147731288
 Root     22 :     8.762050437058257
 Root     23 :     8.818789029522678
 Root     24 :     9.092875608500709
 Root     25 :     9.114141257634589
 Root     26 :     9.174347462432783
 Root     27 :     9.366567135618016
 Root     28 :     9.400527746491937
 Root     29 :     9.458037279200465
 Root     30 :     9.838419403185062
 Root     31 :     9.876679526291319
 Root     32 :    10.083759496632190
 Root     33 :    10.092175367314280
 Root     34 :    10.192541715482560
 Root     35 :    10.200728921260130
 Root     36 :    10.397054557800610
 Root     37 :    10.461399239641380
 Root     38 :    10.630050893636940
 Root     39 :    10.798388352866220
 Root     40 :    10.983630602706000
 Root     41 :    11.034040049895520
 Root     42 :    11.256936066437480
 Root     43 :    11.366542148070140
 Root     44 :    11.480877777887510
 Root     45 :    11.587093685912880
 Root     46 :    11.666391315187900
 Root     47 :    11.813618256594500
 Root     48 :    11.995560360596110
 Root     49 :    12.038718594043360
 Root     50 :    12.113331478929880
 Root     51 :    12.246669455179200
 Root     52 :    12.405157893997130
 Root     53 :    12.683409437066090
 Root     54 :    12.742422860767200
 Root     55 :    12.833339516735940
 Root     56 :    13.151777162642900
 Root     57 :    13.300856875366330
 Root     58 :    13.560071396514720
 Root     59 :    13.659217935791980
 Root     60 :    13.723099598068690
 Iteration     2 Dimension   120 NMult    60 NNew     60
 CISAX will form    60 AO SS matrices at one time.
 NMat=    60 NSing=    60 JSym2X= 0.
 Root      1 not converged, maximum delta is    0.032618112331176
 Root      2 not converged, maximum delta is    0.103367639638444
 Root      3 not converged, maximum delta is    0.117437379564250
 Root      4 not converged, maximum delta is    0.041309793610623
 Root      5 not converged, maximum delta is    0.119334490025262
 Root      6 not converged, maximum delta is    0.102128154829411
 Root      7 not converged, maximum delta is    0.093194664479113
 Root      8 not converged, maximum delta is    0.426882517684497
 Root      9 not converged, maximum delta is    0.321818068789337
 Root     10 not converged, maximum delta is    0.042484185124210
 Root     11 not converged, maximum delta is    0.026277671673147
 Root     12 not converged, maximum delta is    0.042389738759459
 Root     13 not converged, maximum delta is    0.033619301276906
 Root     14 not converged, maximum delta is    0.078330288077564
 Root     15 not converged, maximum delta is    0.095909197748221
 Excitation Energies [eV] at current iteration:
 Root      1 :     4.416019842715531   Change is   -0.072798995879959
 Root      2 :     4.886428160173845   Change is   -0.026993570853247
 Root      3 :     4.934144273163612   Change is   -0.015650057576383
 Root      4 :     5.611797861332295   Change is   -0.083523814003696
 Root      5 :     6.071337591885746   Change is   -0.090285751437612
 Root      6 :     6.138140861568193   Change is   -0.099625328401177
 Root      7 :     6.189413529316672   Change is   -0.110578095568030
 Root      8 :     6.304101049024052   Change is   -0.049861890277930
 Root      9 :     6.325323352059356   Change is   -0.100535632460046
 Root     10 :     6.882298274401160   Change is   -0.078399081044254
 Root     11 :     6.900138231990852   Change is   -0.080694278633529
 Root     12 :     7.076135424515344   Change is   -0.063034336133379
 Root     13 :     7.341689590081300   Change is   -0.087013828965636
 Root     14 :     7.399424291822592   Change is   -0.098491381593821
 Root     15 :     7.584881427327165   Change is   -0.067930996798796
 Root     16 :     7.640023942685264   Change is   -0.072530831397090
 Root     17 :     7.873629053612504   Change is   -0.086434069503111
 Root     18 :     7.975492113091923   Change is   -0.080366780170342
 Root     19 :     8.023703107492951   Change is   -0.113297471685120
 Root     20 :     8.271857794106998   Change is   -0.110492229023445
 Root     21 :     8.472374842747666   Change is   -0.260548304983622
 Root     22 :     8.613772671400168   Change is   -0.148277765658089
 Root     23 :     8.744265613929990   Change is   -0.074523415592689
 Root     24 :     8.777786162953515   Change is   -0.336355094681076
 Root     25 :     8.983898910919697   Change is   -0.108976697581012
 Root     26 :     9.032576790388235   Change is   -0.367950956103702
 Root     27 :     9.130392595253142   Change is   -0.043954867179642
 Root     28 :     9.281338367483368   Change is   -0.085228768134649
 Root     29 :     9.298494135311453   Change is   -0.539925267873609
 Root     30 :     9.372806439991056   Change is   -0.085230839209409
 Root     31 :     9.551615539622802   Change is   -0.325063986668518
 Root     32 :     9.609140173494131   Change is   -0.474619323138056
 Root     33 :     9.683354095952287   Change is   -0.517374825307842
 Root     34 :     9.900813501290466   Change is   -0.496241056510145
 Root     35 :     9.978746833434148   Change is   -0.113428533880135
 Root     36 :     9.999821505279288   Change is   -0.192720210203275
 Root     37 :    10.039889245958810   Change is   -0.590161647678128
 Root     38 :    10.072372657460900   Change is   -0.389026582180475
 Root     39 :    10.359014018484010   Change is   -0.439374334382212
 Root     40 :    10.636403685514950   Change is   -0.347226917191048
 Root     41 :    10.755190732881240   Change is   -0.501745333556245
 Root     42 :    10.917773549023630   Change is   -0.116266500871898
 Root     43 :    11.040312589912760   Change is   -0.440565187974750
 Root     44 :    11.115673341179530   Change is   -0.250868806890608
 Root     45 :    11.180209208563350   Change is   -0.486182106624551
 Root     46 :    11.229111900148290   Change is   -0.357981785764589
 Root     47 :    11.396139980823190   Change is   -0.417478275771314
 Root     48 :    11.534213300438810   Change is   -0.504505293604553
 Root     49 :    11.648980688338940   Change is   -0.346579672257172
 Root     50 :    11.719797392089910   Change is   -0.393534086839964
 Root     51 :    11.835898067524700   Change is   -0.997441449211247
 Root     52 :    12.302994727124280   Change is   -0.102163166872853
 Root     53 :    12.373642937134470   Change is   -0.309766499931620
 Root     54 :    12.453947331392920   Change is   -0.288475529374285
 Root     55 :    12.533338352007900   Change is   -0.618438810635003
 Root     56 :    12.605578964537170   Change is   -0.695277910829159
 Root     57 :    13.002990869480230   Change is   -0.557080527034486
 Root     58 :    13.088227457618210
 Root     59 :    13.099251780989030
 Root     60 :    13.183629283261760   Change is   -0.539470314806932
 Iteration     3 Dimension   135 NMult   120 NNew     15
 CISAX will form    15 AO SS matrices at one time.
 NMat=    15 NSing=    15 JSym2X= 0.
 Root      1 not converged, maximum delta is    0.000695564374240
 Root      2 not converged, maximum delta is    0.000113849583912
 Root      3 not converged, maximum delta is    0.000294446399798
 Root      4 not converged, maximum delta is    0.000170173210912
 Root      5 not converged, maximum delta is    0.000523831088223
 Root      6 not converged, maximum delta is    0.001142359154457
 Root      7 not converged, maximum delta is    0.000985123158358
 Root      8 not converged, maximum delta is    0.002556059954788
 Root      9 not converged, maximum delta is    0.001887000555873
 Root     10 not converged, maximum delta is    0.000172832278324
 Root     11 not converged, maximum delta is    0.000532750909732
 Root     12 not converged, maximum delta is    0.000169385875725
 Root     13 not converged, maximum delta is    0.000313996860986
 Root     14 not converged, maximum delta is    0.000285147320104
 Root     15 not converged, maximum delta is    0.000499219427338
 Excitation Energies [eV] at current iteration:
 Root      1 :     4.415883052393712   Change is   -0.000136790321819
 Root      2 :     4.886425140999984   Change is   -0.000003019173861
 Root      3 :     4.934120795445335   Change is   -0.000023477718277
 Root      4 :     5.611791025155033   Change is   -0.000006836177262
 Root      5 :     6.071315990811600   Change is   -0.000021601074145
 Root      6 :     6.137844546982655   Change is   -0.000296314585538
 Root      7 :     6.189355901841784   Change is   -0.000057627474888
 Root      8 :     6.303982217840514   Change is   -0.000118831183538
 Root      9 :     6.325193513900969   Change is   -0.000129838158387
 Root     10 :     6.882288112769307   Change is   -0.000010161631853
 Root     11 :     6.900115665202262   Change is   -0.000022566788589
 Root     12 :     7.076129730389922   Change is   -0.000005694125422
 Root     13 :     7.341677003242864   Change is   -0.000012586838435
 Root     14 :     7.399405852120495   Change is   -0.000018439702097
 Root     15 :     7.584853868355613   Change is   -0.000027558971552
 Iteration     4 Dimension   143 NMult   135 NNew      8
 CISAX will form     8 AO SS matrices at one time.
 NMat=     8 NSing=     8 JSym2X= 0.
 Root      1 not converged, maximum delta is    0.000020386122456
 Root      2 not converged, maximum delta is    0.000002658279017
 Root      3 not converged, maximum delta is    0.000003981279727
 Root      4 not converged, maximum delta is    0.000009292478817
 Root      5 not converged, maximum delta is    0.000017263850460
 Root      6 not converged, maximum delta is    0.000068200538168
 Root      7 not converged, maximum delta is    0.000034078542541
 Root      8 not converged, maximum delta is    0.000034179957760
 Root      9 not converged, maximum delta is    0.000023356679561
 Root     10 not converged, maximum delta is    0.000012917524313
 Root     11 not converged, maximum delta is    0.000019841853874
 Root     12 not converged, maximum delta is    0.000007387471112
 Root     13 not converged, maximum delta is    0.000015472268319
 Root     14 not converged, maximum delta is    0.000020107154691
 Root     15 not converged, maximum delta is    0.000031167403343
 Excitation Energies [eV] at current iteration:
 Root      1 :     4.415882891222019   Change is   -0.000000161171694
 Root      2 :     4.886425137324224   Change is   -0.000000003675761
 Root      3 :     4.934120787468084   Change is   -0.000000007977251
 Root      4 :     5.611790995604371   Change is   -0.000000029550661
 Root      5 :     6.071315881715199   Change is   -0.000000109096402
 Root      6 :     6.137842934011707   Change is   -0.000001612970948
 Root      7 :     6.189355510186019   Change is   -0.000000391655765
 Root      8 :     6.303981828182486   Change is   -0.000000389658028
 Root      9 :     6.325193309326220   Change is   -0.000000204574749
 Root     10 :     6.882288066192454   Change is   -0.000000046576853
 Root     11 :     6.900115538756824   Change is   -0.000000126445437
 Root     12 :     7.076129714214555   Change is   -0.000000016175367
 Root     13 :     7.341676915863108   Change is   -0.000000087379757
 Root     14 :     7.399405747307089   Change is   -0.000000104813406
 Root     15 :     7.584853611084603   Change is   -0.000000257271009
 Convergence achieved on expansion vectors.
 ***********************************************************************
 Excited states from <AA,BB:AA,BB> singles matrix:
 ***********************************************************************
 
 1PDM for each excited state written to RWF  633
 Ground to excited state transition densities written to RWF  633
 Ground to excited state transition electric dipole moments (Au):
       state          X           Y           Z        Dip. S.      Osc.
         1        -0.8116     -0.2070      0.0673      0.7060      0.0764
         2         0.0580     -0.1119     -0.0080      0.0160      0.0019
         3        -0.1040      0.3477      0.0008      0.1318      0.0159
         4         0.0017     -0.0277      0.0900      0.0089      0.0012
         5        -0.0504     -0.3259      0.0841      0.1158      0.0172
         6         0.1002      1.1205      0.0622      1.2695      0.1909
         7        -0.0547     -0.4813     -0.0414      0.2363      0.0358
         8         0.6552     -0.7054     -0.0184      0.9273      0.1432
         9         0.8785     -0.3588      0.0716      0.9056      0.1403
        10        -0.0863      0.1612      0.0189      0.0338      0.0057
        11        -0.0743      0.0505      0.0780      0.0142      0.0024
        12         0.0008     -0.0401      0.2029      0.0428      0.0074
        13         0.0124      0.1147     -0.0221      0.0138      0.0025
        14         0.0036     -0.0044     -0.0946      0.0090      0.0016
        15         0.0160     -0.0183      0.1045      0.0115      0.0021
 Ground to excited state transition velocity dipole moments (Au):
       state          X           Y           Z        Dip. S.      Osc.
         1         0.0367     -0.0158     -0.0214      0.0021      0.0084
         2        -0.0009      0.0092      0.0022      0.0001      0.0003
         3         0.0002     -0.0289      0.0081      0.0009      0.0033
         4        -0.0057      0.0117     -0.0332      0.0013      0.0041
         5        -0.0024      0.0560     -0.0803      0.0096      0.0286
         6         0.0072     -0.2143      0.0336      0.0471      0.1393
         7        -0.0084      0.0944      0.0635      0.0130      0.0381
         8        -0.1399      0.1461      0.1086      0.0527      0.1516
         9        -0.1706      0.0879     -0.1061      0.0481      0.1379
        10         0.0234     -0.0376     -0.0223      0.0025      0.0065
        11         0.0147     -0.0185      0.0471      0.0028      0.0073
        12        -0.0042      0.0089     -0.0176      0.0004      0.0010
        13         0.0074     -0.0249     -0.0500      0.0032      0.0079
        14        -0.0034      0.0095      0.0801      0.0065      0.0160
        15        -0.0012      0.0026      0.0228      0.0005      0.0013
 Ground to excited state transition magnetic dipole moments (Au):
       state          X           Y           Z
         1        -0.0519     -0.0202     -0.5892
         2        -0.2682      0.4936     -0.0190
         3        -0.0780      0.1251      0.0188
         4         0.2912      0.2321     -0.0145
         5         0.2267     -0.1046     -0.0110
         6         0.0343     -0.1336      0.0985
         7        -0.0170     -0.1036     -0.0501
         8         0.0870     -0.1623     -0.0618
         9        -0.0389      0.1671     -0.0057
        10         0.8679     -0.0636      0.0003
        11         0.4489      1.3800     -0.0716
        12         0.3142     -0.1400     -0.0298
        13        -1.2592     -0.0137      0.0455
        14         0.1782      0.2649      0.0508
        15         0.2797      0.1241     -0.0018
 Ground to excited state transition velocity quadrupole moments (Au):
       state          XX          YY          ZZ          XY          XZ          YZ
         1         0.4701     -0.4499     -0.0092     -0.1719     -0.0043     -0.0001
         2        -0.0379      0.0379     -0.0203     -0.0197      0.1223      0.0821
         3         0.1042     -0.1413      0.0661      0.0786      0.0494      0.0174
         4        -0.0061     -0.0041      0.0191      0.0086     -0.2029      0.1561
         5        -0.1119      0.0845      0.0143     -0.0034     -0.0189      0.1884
         6         0.3876     -0.3155     -0.0187      0.0341      0.0056     -0.0210
         7        -0.1347      0.0742      0.0287     -0.0455      0.0328     -0.1589
         8         0.0736     -0.1274      0.0164     -0.2938      0.1546      0.0180
         9         0.2286     -0.2962      0.0134     -0.3060     -0.0359      0.0012
        10         0.0241      0.0179     -0.0050      0.0305      0.2669      0.0896
        11         0.0483     -0.0445     -0.0009      0.0144      0.0079     -0.0674
        12         0.0068     -0.0091     -0.0446     -0.0043     -0.0558     -0.1748
        13         0.0092      0.0551     -0.0118      0.0398      0.1004      0.0468
        14        -0.0355      0.0537     -0.0197     -0.0025     -0.1216      0.3022
        15         0.0068      0.0089      0.0209     -0.0024      0.0396      0.1368
 <0|del|b> * <b|rxdel|0> + <0|del|b> * <b|delr+rdel|0>
 Rotatory Strengths (R) in cgs (10**-40 erg-esu-cm/Gauss)
       state          XX          YY          ZZ    R(velocity)    E-M Angle
         1        36.0216     15.2950     -3.2995     16.0057       65.75
         2         6.5399      0.3279     11.7322      6.2000       27.37
         3        -2.7247     -0.9742     -9.8814     -4.5267      141.28
         4         9.0542     -3.0840     -0.7427      1.7425       83.41
         5        -5.7690     -0.5968    -11.1029     -5.8229      103.02
         6        53.7650      3.5475     43.6482     33.6536       28.95
         7       -29.4487      1.8254    -12.2256    -13.2830      165.03
         8      -129.5537     15.9994    -16.4612    -43.3385      162.78
         9        77.4565    -38.6807     27.9267     22.2341       54.36
        10        16.4201     32.3024     14.7976     21.1734       58.25
        11       -39.2046      2.1714    -25.2727    -20.7686      106.96
        12        -0.2005     -0.1899     -5.1539     -1.8481      107.07
        13        -1.8711    -12.0633    -15.4220     -9.7855       99.07
        14         9.7890      3.4541      2.3091      5.1841       76.75
        15         0.1596     -0.6314      0.3204     -0.0505       90.00
 1/2[<0|r|b>*<b|rxdel|0> + (<0|rxdel|b>*<b|r|0>)*]
 Rotatory Strengths (R) in cgs (10**-40 erg-esu-cm/Gauss)
       state          XX          YY          ZZ     R(length)
         1       -29.7637     -2.9502     28.0277     -1.5621
         2        10.9996     39.0692     -0.1076     16.6537
         3        -5.7358    -30.7625     -0.0107    -12.1697
         4        -0.3424      4.5534      0.9225      1.7112
         5         8.0882    -24.1082      0.6526     -5.1225
         6        -2.4280    105.8911     -4.3364     33.0422
         7        -0.6563    -35.2541     -1.4695    -12.4599
         8       -40.3326    -80.9580     -0.8047    -40.6984
         9        24.1881     42.3818      0.2896     22.2865
        10        52.9791      7.2488     -0.0037     20.0748
        11        23.5937    -49.2888      3.9507     -7.2481
        12        -0.1867     -3.9753      4.2691      0.0357
        13        11.0262      1.1144      0.7127      4.2845
        14        -0.4475      0.8260      3.3966      1.2584
        15        -3.1741      1.6041      0.1294     -0.4802
  1/2[<0|del|b>*<b|r|0> + (<0|r|b>*<b|del|0>)*] (Au)
       state          X           Y           Z        Dip. S.   Osc.(frdel)
         1        -0.0298      0.0033     -0.0014      0.0279      0.0186
         2        -0.0001     -0.0010      0.0000      0.0011      0.0007
         3         0.0000     -0.0101      0.0000      0.0101      0.0067
         4         0.0000     -0.0003     -0.0030      0.0033      0.0022
         5         0.0001     -0.0182     -0.0067      0.0249      0.0166
         6         0.0007     -0.2402      0.0021      0.2373      0.1582
         7         0.0005     -0.0454     -0.0026      0.0476      0.0317
         8        -0.0917     -0.1030     -0.0020      0.1967      0.1311
         9        -0.1498     -0.0315     -0.0076      0.1890      0.1260
        10        -0.0020     -0.0061     -0.0004      0.0085      0.0057
        11        -0.0011     -0.0009      0.0037     -0.0016     -0.0011
        12         0.0000     -0.0004     -0.0036      0.0039      0.0026
        13         0.0001     -0.0029      0.0011      0.0017      0.0011
        14         0.0000      0.0000     -0.0076      0.0076      0.0051
        15         0.0000      0.0000      0.0024     -0.0023     -0.0015

 Excitation energies and oscillator strengths:
 
 Excited State   1:      Singlet-A      4.4159 eV  280.77 nm  f=0.0764  <S**2>=0.000
      12 -> 15         0.21551
      13 -> 14         0.66565
 This state for optimization and/or second-order correction.
 Total Energy, E(CIS) =  0.191550840738    
 Copying the excited state density for this state as the 1-particle RhoCI density.
 
 Excited State   2:      Singlet-A      4.8864 eV  253.73 nm  f=0.0019  <S**2>=0.000
      12 -> 14         0.10537
      13 -> 15        -0.20177
      13 -> 16         0.64041
      13 -> 22         0.12590
 
 Excited State   3:      Singlet-A      4.9341 eV  251.28 nm  f=0.0159  <S**2>=0.000
      12 -> 14        -0.35417
      13 -> 15         0.56317
      13 -> 16         0.22044
 
 Excited State   4:      Singlet-A      5.6118 eV  220.94 nm  f=0.0012  <S**2>=0.000
      12 -> 18         0.14161
      12 -> 21         0.13580
      13 -> 17         0.24135
      13 -> 18         0.48343
      13 -> 21         0.33030
      13 -> 23        -0.15231
 
 Excited State   5:      Singlet-A      6.0713 eV  204.21 nm  f=0.0172  <S**2>=0.000
       7 -> 16        -0.11210
      12 -> 14        -0.12276
      12 -> 15        -0.11342
      12 -> 16         0.51711
      12 -> 18        -0.16546
      12 -> 21         0.15266
      12 -> 22         0.11998
      13 -> 19        -0.22603
      13 -> 21        -0.16768
 
 Excited State   6:      Singlet-A      6.1378 eV  202.00 nm  f=0.1909  <S**2>=0.000
      12 -> 14         0.43223
      12 -> 15         0.30387
      12 -> 16         0.21720
      13 -> 15         0.24842
      13 -> 17         0.21937
      13 -> 18        -0.11139
 
 Excited State   7:      Singlet-A      6.1894 eV  200.32 nm  f=0.0358  <S**2>=0.000
      12 -> 14        -0.17604
      12 -> 15        -0.11396
      12 -> 16         0.25587
      12 -> 19        -0.20728
      12 -> 21        -0.10511
      12 -> 23        -0.13049
      13 -> 15        -0.10997
      13 -> 17         0.15060
      13 -> 18        -0.19408
      13 -> 19         0.38123
      13 -> 21         0.19670
      13 -> 23         0.14223
 
 Excited State   8:      Singlet-A      6.3040 eV  196.68 nm  f=0.1432  <S**2>=0.000
      12 -> 14        -0.26033
      12 -> 15         0.28920
      12 -> 16        -0.13765
      12 -> 19         0.12901
      13 -> 15        -0.17673
      13 -> 17         0.39550
      13 -> 18        -0.15724
      13 -> 20        -0.10525
      13 -> 21        -0.10803
      13 -> 23        -0.11591
 
 Excited State   9:      Singlet-A      6.3252 eV  196.02 nm  f=0.1403  <S**2>=0.000
      12 -> 14        -0.15360
      12 -> 15         0.48395
      12 -> 16         0.13024
      13 -> 14        -0.15127
      13 -> 15        -0.10119
      13 -> 17        -0.33148
      13 -> 18         0.12325
 
 Excited State  10:      Singlet-A      6.8823 eV  180.15 nm  f=0.0057  <S**2>=0.000
      10 -> 14        -0.11679
      10 -> 15        -0.10633
      11 -> 14         0.30399
      11 -> 15         0.11742
      12 -> 17         0.34872
      12 -> 18        -0.28286
      12 -> 20        -0.17113
      12 -> 23        -0.11789
      13 -> 18         0.16911
      13 -> 19         0.19303
      13 -> 21        -0.10043
 
 Excited State  11:      Singlet-A      6.9001 eV  179.68 nm  f=0.0024  <S**2>=0.000
       9 -> 14        -0.11082
      10 -> 14        -0.30466
      11 -> 14         0.40268
      11 -> 15         0.25725
      12 -> 17        -0.18973
      12 -> 18         0.20205
      13 -> 19        -0.12212
 
 Excited State  12:      Singlet-A      7.0761 eV  175.21 nm  f=0.0074  <S**2>=0.000
      11 -> 15        -0.10547
      12 -> 17        -0.15200
      12 -> 19         0.20783
      12 -> 20         0.23060
      12 -> 23         0.15201
      13 -> 16         0.10707
      13 -> 18         0.15097
      13 -> 19         0.33149
      13 -> 20         0.22068
      13 -> 21        -0.31207
      13 -> 23         0.11822
 
 Excited State  13:      Singlet-A      7.3417 eV  168.88 nm  f=0.0025  <S**2>=0.000
       9 -> 14         0.22232
      10 -> 14        -0.28372
      10 -> 15         0.31932
      11 -> 14        -0.22610
      11 -> 15         0.38033
      13 -> 19         0.10993
 
 Excited State  14:      Singlet-A      7.3994 eV  167.56 nm  f=0.0016  <S**2>=0.000
      12 -> 18        -0.19947
      12 -> 19         0.34199
      12 -> 21         0.12337
      12 -> 22         0.13049
      13 -> 17        -0.12441
      13 -> 18        -0.12969
      13 -> 19         0.19283
      13 -> 21         0.15702
      13 -> 22         0.34861
      13 -> 23        -0.14494
      13 -> 24        -0.15865
 
 Excited State  15:      Singlet-A      7.5849 eV  163.46 nm  f=0.0021  <S**2>=0.000
       9 -> 15         0.10187
      10 -> 14         0.16768
      12 -> 17         0.24565
      12 -> 18         0.32073
      12 -> 20        -0.21559
      12 -> 21         0.21577
      13 -> 18        -0.14545
      13 -> 20         0.31052
      13 -> 24        -0.15273
 SavETr:  write IOETrn=   770 NScale= 10 NData=  16 NLR=1 NState=   15 LETran=     280.
 The selected state is a singlet
 CISAX will form     1 AO SS matrices at one time.
 NMat=     1 NSing=     1 JSym2X= 0.
 Leave Link  914 at Tue Dec 15 16:28:08 2015, MaxMem=    33554432 cpu:         0.1
 (Enter /home/Applications/g09/g09/l1002.exe)
 Minotr:  Closed shell wavefunction.
          Computing CIS/TD-HF/TD-KS derivatives.
          Using Z-Vector for PSCF gradient.
          Skipping F1 and S1 gradient terms here.
          IDoAtm=111111111
          Direct CPHF calculation.
          Differentiating once with respect to electric field.
                with respect to dipole field.
          Differentiating once with respect to nuclear coordinates.
          Electric field/nuclear overlap derivatives assumed to be zero.
          Requested convergence is 1.0D-10 RMS, and 1.0D-09 maximum.
          NewPWx=T KeepS1=F KeepF1=F KeepIn=T MapXYZ=F SortEE=F KeepMc=T.
          MDV=      33495423 using IRadAn=       0.
 Keep J ints in memory in canonical form, NReq=871704.
 FoFCou: FMM=F IPFlag=           0 FMFlag=           0 FMFlg1=           0
         NFxFlg=           0 DoJE=F BraDBF=F KetDBF=F FulRan=T
         wScrn=  0.000000 ICntrl=     600 IOpCl=  2 I1Cent=           0 NGrid=           0
         NMat0=    1 NMatS0=     54 NMatT0=    0 NMatD0=    1 NMtDS0=    0 NMtDT0=    0
 Symmetry not used in FoFCou.
          Solving linear equations separately, MaxMat=       0.
          There are     1 degrees of freedom in the 1st order CPHF.  IDoFFX=0 NUNeed=     1.
 LinEq1:  Iter=  0 NonCon=     1 RMS=1.30D-02 Max=8.61D-02 NDo=     1
 AX will form     1 AO Fock derivatives at one time.
 LinEq1:  Iter=  1 NonCon=     1 RMS=2.48D-03 Max=1.42D-02 NDo=     1
 LinEq1:  Iter=  2 NonCon=     1 RMS=3.79D-04 Max=2.32D-03 NDo=     1
 LinEq1:  Iter=  3 NonCon=     1 RMS=4.50D-05 Max=2.19D-04 NDo=     1
 LinEq1:  Iter=  4 NonCon=     1 RMS=3.91D-06 Max=1.89D-05 NDo=     1
 LinEq1:  Iter=  5 NonCon=     1 RMS=5.36D-07 Max=2.49D-06 NDo=     1
 LinEq1:  Iter=  6 NonCon=     1 RMS=8.00D-08 Max=2.74D-07 NDo=     1
 LinEq1:  Iter=  7 NonCon=     1 RMS=1.01D-08 Max=3.82D-08 NDo=     1
 LinEq1:  Iter=  8 NonCon=     1 RMS=1.35D-09 Max=5.70D-09 NDo=     1
 LinEq1:  Iter=  9 NonCon=     1 RMS=1.73D-10 Max=6.73D-10 NDo=     1
 LinEq1:  Iter= 10 NonCon=     0 RMS=2.02D-11 Max=7.53D-11 NDo=     1
 Linear equations converged to 1.000D-10 1.000D-09 after    10 iterations.
 End of Minotr F.D. properties file   721 does not exist.
 End of Minotr F.D. properties file   722 does not exist.
 End of Minotr F.D. properties file   788 does not exist.
 Leave Link 1002 at Tue Dec 15 16:28:08 2015, MaxMem=    33554432 cpu:         0.0
 (Enter /home/Applications/g09/g09/l601.exe)
 Copying SCF densities to generalized density rwf, IOpCl= 0 IROHF=0.

 **********************************************************************

            Population analysis using the SCF density.

 **********************************************************************

 Orbital symmetries:
       Occupied  (A) (A) (A) (A) (A) (A) (A) (A) (A) (A) (A) (A)
                 (A)
       Virtual   (A) (A) (A) (A) (A) (A) (A) (A) (A) (A) (A)
 The electronic state is 1-A.
 Alpha  occ. eigenvalues --   -1.59636  -1.24018  -1.08920  -0.83833  -0.80084
 Alpha  occ. eigenvalues --   -0.68703  -0.62077  -0.56671  -0.51750  -0.49858
 Alpha  occ. eigenvalues --   -0.48382  -0.38936  -0.34190
 Alpha virt. eigenvalues --    0.03544   0.06119   0.09593   0.13387   0.14440
 Alpha virt. eigenvalues --    0.15848   0.17736   0.18111   0.18907   0.20876
 Alpha virt. eigenvalues --    0.23032
     Molecular Orbital Coefficients:
                           1         2         3         4         5
                           O         O         O         O         O
     Eigenvalues --    -1.59636  -1.24018  -1.08920  -0.83833  -0.80084
   1 1   C  1S          0.23847  -0.45319   0.33928  -0.38954  -0.20663
   2        1PX         0.00388   0.06901   0.16645  -0.11604   0.31866
   3        1PY        -0.11916   0.08735  -0.02649  -0.12541  -0.13021
   4        1PZ        -0.00481   0.00916  -0.00613   0.00794   0.01091
   5 2   C  1S          0.36348  -0.08354   0.52179   0.14590   0.37756
   6        1PX        -0.14744   0.08365  -0.00690   0.12804   0.06484
   7        1PY        -0.13604  -0.22504   0.03037  -0.34097   0.10614
   8        1PZ        -0.00239  -0.00281  -0.00124  -0.00728   0.00643
   9 3   O  1S          0.66991   0.53636  -0.05315  -0.04717  -0.31465
  10        1PX        -0.10507   0.05150   0.30396   0.42578  -0.17349
  11        1PY         0.18080  -0.01431   0.20305   0.28316   0.17207
  12        1PZ         0.00482   0.00112   0.00006  -0.00269   0.01207
  13 4   C  1S          0.36574  -0.20262  -0.50168  -0.04111   0.37540
  14        1PX         0.17242   0.16795   0.00316  -0.29827  -0.04697
  15        1PY         0.08032  -0.18551   0.01885   0.23640  -0.08806
  16        1PZ        -0.00296   0.00003   0.00287  -0.00058   0.00701
  17 5   C  1S          0.25139  -0.51420  -0.22449   0.31329  -0.30986
  18        1PX         0.10861  -0.09901   0.06219  -0.16490   0.04823
  19        1PY        -0.05884   0.00903   0.19203  -0.13507  -0.32998
  20        1PZ         0.00402  -0.00811  -0.00258   0.00279  -0.00091
  21 6   H  1S          0.05132  -0.15972  -0.08422   0.18923  -0.22847
  22 7   H  1S          0.07334  -0.05406  -0.19793  -0.03497   0.22155
  23 8   H  1S          0.07002  -0.01217   0.19350   0.10648   0.20729
  24 9   H  1S          0.05146  -0.14270   0.14089  -0.25060  -0.13912
                           6         7         8         9        10
                           O         O         O         O         O
     Eigenvalues --    -0.68703  -0.62077  -0.56671  -0.51750  -0.49858
   1 1   C  1S         -0.08174   0.01198  -0.18561  -0.04497  -0.03893
   2        1PX        -0.09516  -0.01261   0.01098   0.04824   0.01084
   3        1PY        -0.25787  -0.01356  -0.26587   0.28264   0.46672
   4        1PZ         0.00406   0.19182   0.01541  -0.01540  -0.01307
   5 2   C  1S         -0.11983  -0.00285   0.18494   0.05907  -0.07038
   6        1PX        -0.36329  -0.01350   0.25505  -0.07925   0.34216
   7        1PY        -0.12732  -0.01716   0.28724  -0.19725  -0.07343
   8        1PZ         0.00069   0.38940   0.01302  -0.01420   0.01277
   9 3   O  1S         -0.17809  -0.00348   0.00376  -0.17097  -0.01089
  10        1PX        -0.25962   0.01472  -0.33362  -0.29264  -0.13109
  11        1PY         0.41137  -0.00455  -0.24652   0.46392   0.06779
  12        1PZ         0.00137   0.78722   0.00822   0.00346   0.05429
  13 4   C  1S         -0.12958  -0.00266  -0.14816   0.01898   0.05236
  14        1PX         0.28369   0.00144   0.33777   0.16735   0.15986
  15        1PY         0.28406  -0.01445   0.05949  -0.24314   0.43960
  16        1PZ        -0.01023   0.38358  -0.01069   0.00173  -0.00662
  17 5   C  1S         -0.05063  -0.00345   0.18535  -0.02047   0.01555
  18        1PX         0.25818  -0.00495  -0.16194  -0.44584   0.03751
  19        1PY        -0.01201   0.02252   0.17021   0.23266  -0.31790
  20        1PZ         0.00072   0.20482  -0.00111  -0.01364  -0.00847
  21 6   H  1S         -0.17411   0.00879   0.25947   0.38006  -0.11131
  22 7   H  1S         -0.29701   0.01732  -0.24918   0.10944  -0.34128
  23 8   H  1S         -0.27853  -0.01512   0.30619  -0.03554   0.22595
  24 9   H  1S         -0.20813  -0.01327  -0.29666   0.19462   0.35166
                          11        12        13        14        15
                           O         O         O         V         V
     Eigenvalues --    -0.48382  -0.38936  -0.34190   0.03544   0.06119
   1 1   C  1S         -0.02521   0.02237   0.02674  -0.03227  -0.02930
   2        1PX         0.54028  -0.00770  -0.01619   0.01958  -0.00994
   3        1PY        -0.00893   0.02390   0.01494  -0.01080  -0.02747
   4        1PZ         0.01783   0.51241   0.49942  -0.39848  -0.53385
   5 2   C  1S         -0.01037  -0.00696   0.00022   0.00121   0.02309
   6        1PX        -0.35054   0.01471   0.01307   0.01156  -0.00330
   7        1PY         0.26770  -0.00135  -0.02951  -0.00240  -0.01858
   8        1PZ         0.02707   0.04429   0.61006   0.62525   0.28390
   9 3   O  1S          0.13585   0.00322  -0.00591   0.00296  -0.00987
  10        1PX         0.05753  -0.01355  -0.00092  -0.00298   0.00267
  11        1PY        -0.11174   0.01621   0.01148   0.00454  -0.02059
  12        1PZ         0.00701  -0.46131  -0.09120  -0.39137   0.04627
  13 4   C  1S         -0.08478   0.00438   0.00398  -0.00600   0.01126
  14        1PX        -0.11187   0.00666  -0.00737   0.01167  -0.00591
  15        1PY         0.22456   0.02575  -0.02471   0.02126  -0.02367
  16        1PZ        -0.01452   0.29832  -0.55417   0.49110  -0.46075
  17 5   C  1S          0.00792  -0.02140   0.00181   0.01568  -0.01743
  18        1PX        -0.38179  -0.01870   0.00411   0.01516   0.00186
  19        1PY        -0.32654  -0.01065   0.00381   0.01705  -0.00185
  20        1PZ        -0.00903   0.65568  -0.24442  -0.22771   0.64297
  21 6   H  1S          0.19922   0.00854  -0.00625  -0.00465   0.01670
  22 7   H  1S         -0.17509  -0.00907   0.00451   0.01724  -0.02283
  23 8   H  1S         -0.28754   0.00973   0.00248  -0.00606  -0.01778
  24 9   H  1S          0.03841   0.00209  -0.00640   0.02470   0.03572
                          16        17        18        19        20
                           V         V         V         V         V
     Eigenvalues --     0.09593   0.13387   0.14440   0.15848   0.17736
   1 1   C  1S          0.05330   0.28267   0.10284  -0.18413  -0.24045
   2        1PX        -0.01989  -0.09737   0.45153   0.07847   0.43790
   3        1PY        -0.00118  -0.16350  -0.10938  -0.24759  -0.02596
   4        1PZ        -0.02846  -0.02661  -0.00274   0.03544   0.02741
   5 2   C  1S         -0.31228  -0.27113  -0.35481  -0.02432  -0.16343
   6        1PX        -0.06714  -0.26608   0.17030  -0.26605  -0.03890
   7        1PY         0.31776  -0.20977  -0.08411  -0.32081   0.04324
   8        1PZ         0.02042   0.01358  -0.00617  -0.01446  -0.00707
   9 3   O  1S          0.23141  -0.03889  -0.03202  -0.10206   0.02013
  10        1PX        -0.26799   0.05337   0.26334  -0.05867   0.08499
  11        1PY         0.36080  -0.04236   0.09979  -0.23296   0.12031
  12        1PZ         0.01780  -0.01198   0.00561  -0.00408   0.00421
  13 4   C  1S         -0.32034   0.23466   0.07732  -0.34023   0.20364
  14        1PX        -0.33694  -0.11885   0.30291   0.23737  -0.09518
  15        1PY         0.14827  -0.19717   0.21749  -0.15157  -0.20323
  16        1PZ        -0.02561   0.02661  -0.02743   0.00321  -0.00264
  17 5   C  1S          0.04601  -0.24940  -0.14196   0.24982   0.35522
  18        1PX        -0.05109  -0.15641   0.31421   0.04940   0.04559
  19        1PY        -0.02465  -0.14878   0.13488  -0.29776   0.44290
  20        1PZ         0.02597  -0.02318   0.01131   0.00489   0.02131
  21 6   H  1S         -0.12734   0.15079   0.39676  -0.06284  -0.37677
  22 7   H  1S          0.32038  -0.43895   0.26557   0.24811  -0.30615
  23 8   H  1S          0.40741   0.49516   0.12887   0.25889   0.13062
  24 9   H  1S         -0.08393  -0.09834  -0.06058   0.41663   0.16519
                          21        22        23        24
                           V         V         V         V
     Eigenvalues --     0.18111   0.18907   0.20876   0.23032
   1 1   C  1S          0.39955  -0.15906  -0.05522  -0.08133
   2        1PX         0.22922  -0.02720   0.14674  -0.24807
   3        1PY        -0.12808  -0.30214   0.54706   0.01778
   4        1PZ        -0.03307   0.03582  -0.01468  -0.00108
   5 2   C  1S         -0.15111  -0.01027   0.09615  -0.10337
   6        1PX         0.46226   0.25375  -0.22449  -0.03961
   7        1PY        -0.21857   0.13637  -0.01167   0.51270
   8        1PZ        -0.00205  -0.01028   0.01030   0.01415
   9 3   O  1S          0.01375   0.11180  -0.00891   0.01049
  10        1PX        -0.09179  -0.16905  -0.06351   0.44896
  11        1PY         0.13692   0.18399  -0.03758   0.29706
  12        1PZ        -0.00092   0.00604  -0.00435  -0.00162
  13 4   C  1S         -0.17199  -0.05917  -0.15550   0.05924
  14        1PX         0.06918  -0.32550  -0.04617   0.43849
  15        1PY        -0.30536  -0.26216  -0.30379  -0.28095
  16        1PZ         0.00956   0.02014   0.01084  -0.00125
  17 5   C  1S          0.22785  -0.09251   0.21408   0.09910
  18        1PX        -0.17469   0.36487   0.45543  -0.06465
  19        1PY        -0.30313  -0.15252  -0.16839  -0.26706
  20        1PZ         0.01299  -0.01833   0.01871   0.00387
  21 6   H  1S         -0.21560   0.38535   0.20943  -0.03164
  22 7   H  1S         -0.05023  -0.24192  -0.09394  -0.02384
  23 8   H  1S         -0.21433  -0.17098   0.08910   0.03512
  24 9   H  1S         -0.24806   0.37829  -0.38627   0.05855
     Density Matrix:
                           1         2         3         4         5
   1 1   C  1S          1.23693
   2        1PX        -0.01150   0.90300
   3        1PY         0.07863   0.01891   0.98234
   4        1PZ         0.02390  -0.00754   0.00095   1.10018
   5 2   C  1S          0.28472   0.39177  -0.33268  -0.00450   1.26474
   6        1PX        -0.31347  -0.28485   0.33517   0.01534   0.08899
   7        1PY         0.30357   0.42536  -0.22298  -0.01837   0.06939
   8        1PZ         0.04148   0.00303   0.00620   0.80562  -0.00179
   9 3   O  1S          0.00091   0.03622   0.01131   0.00154   0.11312
  10        1PX         0.04905  -0.02886  -0.02227  -0.00584   0.14707
  11        1PY        -0.07060  -0.04776   0.07549   0.00579   0.41592
  12        1PZ        -0.01639   0.00773  -0.00213  -0.26267   0.00894
  13 4   C  1S         -0.03043  -0.01070   0.02369   0.00330   0.02050
  14        1PX        -0.00974  -0.08289  -0.00491  -0.00498   0.03451
  15        1PY        -0.02127   0.04705   0.00273   0.00174  -0.03007
  16        1PZ        -0.00231  -0.00474  -0.00781  -0.10133  -0.00068
  17 5   C  1S          0.25636  -0.39295  -0.20625  -0.02652  -0.03193
  18        1PX         0.36589  -0.43028  -0.27554  -0.02590  -0.02282
  19        1PY         0.29500  -0.44604  -0.11947  -0.01479   0.01239
  20        1PZ         0.02952  -0.02194   0.00054   0.50655  -0.00951
  21 6   H  1S         -0.04407   0.04900   0.03555   0.00640   0.05276
  22 7   H  1S          0.05222  -0.05890  -0.03403  -0.00392   0.05653
  23 8   H  1S         -0.06072  -0.07866   0.06799   0.00170   0.59238
  24 9   H  1S          0.59899   0.09861   0.75737  -0.04583  -0.05700
                           6         7         8         9        10
   6        1PX         0.98643
   7        1PY        -0.03949   0.82688
   8        1PZ         0.00411  -0.01579   1.05429
   9 3   O  1S         -0.10421  -0.27179  -0.00731   1.84021
  10        1PX         0.05592  -0.26377  -0.00079   0.15949   1.20541
  11        1PY        -0.33623  -0.68671  -0.01465  -0.26852  -0.08648
  12        1PZ        -0.00268  -0.01902   0.46300  -0.00795   0.00686
  13 4   C  1S          0.01446  -0.04390   0.00141   0.10802  -0.43662
  14        1PX         0.02218   0.04390  -0.00286   0.27906  -0.78025
  15        1PY         0.00051  -0.00180  -0.01085  -0.02588   0.07196
  16        1PZ        -0.00712   0.01057  -0.35220  -0.00362   0.01516
  17 5   C  1S          0.02216  -0.00055  -0.00251   0.00263   0.04393
  18        1PX         0.00807  -0.05135  -0.00850  -0.02750   0.02915
  19        1PY         0.00808  -0.07439  -0.00926  -0.02523  -0.06728
  20        1PZ         0.00706   0.00691  -0.08100   0.00507  -0.00232
  21 6   H  1S         -0.03924   0.04178  -0.00119   0.02294  -0.09104
  22 7   H  1S         -0.04822  -0.09192  -0.00621  -0.04869   0.07855
  23 8   H  1S          0.74996   0.04364  -0.00872  -0.04955  -0.01151
  24 9   H  1S          0.05980  -0.02430  -0.01837   0.02039  -0.00109
                          11        12        13        14        15
  11        1PY         1.29325
  12        1PZ        -0.01377   1.68821
  13 4   C  1S          0.05059   0.00517   1.23636
  14        1PX         0.14260   0.02324  -0.08740   0.81975
  15        1PY         0.13419   0.00592  -0.06294   0.04370   0.98672
  16        1PZ        -0.00357   0.42881   0.00406   0.00063   0.00951
  17 5   C  1S         -0.06707   0.01063   0.31665  -0.15272   0.44477
  18        1PX        -0.04089   0.00528   0.13966   0.08339   0.17475
  19        1PY         0.01787   0.00212  -0.49262   0.25286  -0.53856
  20        1PZ         0.00503  -0.23906   0.01087   0.00440   0.04037
  21 6   H  1S          0.03937  -0.00217  -0.06313  -0.00414  -0.06671
  22 7   H  1S         -0.02332  -0.00275   0.59214  -0.36437  -0.66265
  23 8   H  1S         -0.08180  -0.00361   0.06158   0.11183   0.00269
  24 9   H  1S          0.08485   0.01115   0.04984  -0.01617   0.05160
                          16        17        18        19        20
  16        1PZ         1.08756
  17 5   C  1S         -0.02837   1.22053
  18        1PX        -0.01170  -0.07666   0.98841
  19        1PY         0.01478   0.03481  -0.02105   0.91824
  20        1PZ         0.81952  -0.01686  -0.00824  -0.00383   1.06409
  21 6   H  1S          0.00957   0.58552  -0.72590   0.26858   0.00985
  22 7   H  1S          0.02584  -0.05775  -0.02702   0.08318   0.00097
  23 8   H  1S         -0.00068   0.04443   0.05157   0.03794   0.00658
  24 9   H  1S          0.00249  -0.04677  -0.06168  -0.04979  -0.01032
                          21        22        23        24
  21 6   H  1S          0.83519
  22 7   H  1S          0.00728   0.81521
  23 8   H  1S         -0.01207  -0.02974   0.80690
  24 9   H  1S         -0.00078  -0.01687   0.01182   0.83917
    Full Mulliken population analysis:
                           1         2         3         4         5
   1 1   C  1S          1.23693
   2        1PX         0.00000   0.90300
   3        1PY         0.00000   0.00000   0.98234
   4        1PZ         0.00000   0.00000   0.00000   1.10018
   5 2   C  1S          0.00000   0.00000   0.00000   0.00000   1.26474
   6        1PX         0.00000   0.00000   0.00000   0.00000   0.00000
   7        1PY         0.00000   0.00000   0.00000   0.00000   0.00000
   8        1PZ         0.00000   0.00000   0.00000   0.00000   0.00000
   9 3   O  1S          0.00000   0.00000   0.00000   0.00000   0.00000
  10        1PX         0.00000   0.00000   0.00000   0.00000   0.00000
  11        1PY         0.00000   0.00000   0.00000   0.00000   0.00000
  12        1PZ         0.00000   0.00000   0.00000   0.00000   0.00000
  13 4   C  1S          0.00000   0.00000   0.00000   0.00000   0.00000
  14        1PX         0.00000   0.00000   0.00000   0.00000   0.00000
  15        1PY         0.00000   0.00000   0.00000   0.00000   0.00000
  16        1PZ         0.00000   0.00000   0.00000   0.00000   0.00000
  17 5   C  1S          0.00000   0.00000   0.00000   0.00000   0.00000
  18        1PX         0.00000   0.00000   0.00000   0.00000   0.00000
  19        1PY         0.00000   0.00000   0.00000   0.00000   0.00000
  20        1PZ         0.00000   0.00000   0.00000   0.00000   0.00000
  21 6   H  1S          0.00000   0.00000   0.00000   0.00000   0.00000
  22 7   H  1S          0.00000   0.00000   0.00000   0.00000   0.00000
  23 8   H  1S          0.00000   0.00000   0.00000   0.00000   0.00000
  24 9   H  1S          0.00000   0.00000   0.00000   0.00000   0.00000
                           6         7         8         9        10
   6        1PX         0.98643
   7        1PY         0.00000   0.82688
   8        1PZ         0.00000   0.00000   1.05429
   9 3   O  1S          0.00000   0.00000   0.00000   1.84021
  10        1PX         0.00000   0.00000   0.00000   0.00000   1.20541
  11        1PY         0.00000   0.00000   0.00000   0.00000   0.00000
  12        1PZ         0.00000   0.00000   0.00000   0.00000   0.00000
  13 4   C  1S          0.00000   0.00000   0.00000   0.00000   0.00000
  14        1PX         0.00000   0.00000   0.00000   0.00000   0.00000
  15        1PY         0.00000   0.00000   0.00000   0.00000   0.00000
  16        1PZ         0.00000   0.00000   0.00000   0.00000   0.00000
  17 5   C  1S          0.00000   0.00000   0.00000   0.00000   0.00000
  18        1PX         0.00000   0.00000   0.00000   0.00000   0.00000
  19        1PY         0.00000   0.00000   0.00000   0.00000   0.00000
  20        1PZ         0.00000   0.00000   0.00000   0.00000   0.00000
  21 6   H  1S          0.00000   0.00000   0.00000   0.00000   0.00000
  22 7   H  1S          0.00000   0.00000   0.00000   0.00000   0.00000
  23 8   H  1S          0.00000   0.00000   0.00000   0.00000   0.00000
  24 9   H  1S          0.00000   0.00000   0.00000   0.00000   0.00000
                          11        12        13        14        15
  11        1PY         1.29325
  12        1PZ         0.00000   1.68821
  13 4   C  1S          0.00000   0.00000   1.23636
  14        1PX         0.00000   0.00000   0.00000   0.81975
  15        1PY         0.00000   0.00000   0.00000   0.00000   0.98672
  16        1PZ         0.00000   0.00000   0.00000   0.00000   0.00000
  17 5   C  1S          0.00000   0.00000   0.00000   0.00000   0.00000
  18        1PX         0.00000   0.00000   0.00000   0.00000   0.00000
  19        1PY         0.00000   0.00000   0.00000   0.00000   0.00000
  20        1PZ         0.00000   0.00000   0.00000   0.00000   0.00000
  21 6   H  1S          0.00000   0.00000   0.00000   0.00000   0.00000
  22 7   H  1S          0.00000   0.00000   0.00000   0.00000   0.00000
  23 8   H  1S          0.00000   0.00000   0.00000   0.00000   0.00000
  24 9   H  1S          0.00000   0.00000   0.00000   0.00000   0.00000
                          16        17        18        19        20
  16        1PZ         1.08756
  17 5   C  1S          0.00000   1.22053
  18        1PX         0.00000   0.00000   0.98841
  19        1PY         0.00000   0.00000   0.00000   0.91824
  20        1PZ         0.00000   0.00000   0.00000   0.00000   1.06409
  21 6   H  1S          0.00000   0.00000   0.00000   0.00000   0.00000
  22 7   H  1S          0.00000   0.00000   0.00000   0.00000   0.00000
  23 8   H  1S          0.00000   0.00000   0.00000   0.00000   0.00000
  24 9   H  1S          0.00000   0.00000   0.00000   0.00000   0.00000
                          21        22        23        24
  21 6   H  1S          0.83519
  22 7   H  1S          0.00000   0.81521
  23 8   H  1S          0.00000   0.00000   0.80690
  24 9   H  1S          0.00000   0.00000   0.00000   0.83917
     Gross orbital populations:
                           1
   1 1   C  1S          1.23693
   2        1PX         0.90300
   3        1PY         0.98234
   4        1PZ         1.10018
   5 2   C  1S          1.26474
   6        1PX         0.98643
   7        1PY         0.82688
   8        1PZ         1.05429
   9 3   O  1S          1.84021
  10        1PX         1.20541
  11        1PY         1.29325
  12        1PZ         1.68821
  13 4   C  1S          1.23636
  14        1PX         0.81975
  15        1PY         0.98672
  16        1PZ         1.08756
  17 5   C  1S          1.22053
  18        1PX         0.98841
  19        1PY         0.91824
  20        1PZ         1.06409
  21 6   H  1S          0.83519
  22 7   H  1S          0.81521
  23 8   H  1S          0.80690
  24 9   H  1S          0.83917
          Condensed to atoms (all electrons):
               1          2          3          4          5          6
     1  C    4.222447   0.000000   0.000000   0.000000   0.000000   0.000000
     2  C    0.000000   4.132352   0.000000   0.000000   0.000000   0.000000
     3  O    0.000000   0.000000   6.027075   0.000000   0.000000   0.000000
     4  C    0.000000   0.000000   0.000000   4.130392   0.000000   0.000000
     5  C    0.000000   0.000000   0.000000   0.000000   4.191272   0.000000
     6  H    0.000000   0.000000   0.000000   0.000000   0.000000   0.835188
     7  H    0.000000   0.000000   0.000000   0.000000   0.000000   0.000000
     8  H    0.000000   0.000000   0.000000   0.000000   0.000000   0.000000
     9  H    0.000000   0.000000   0.000000   0.000000   0.000000   0.000000
               7          8          9
     1  C    0.000000   0.000000   0.000000
     2  C    0.000000   0.000000   0.000000
     3  O    0.000000   0.000000   0.000000
     4  C    0.000000   0.000000   0.000000
     5  C    0.000000   0.000000   0.000000
     6  H    0.000000   0.000000   0.000000
     7  H    0.815207   0.000000   0.000000
     8  H    0.000000   0.806896   0.000000
     9  H    0.000000   0.000000   0.839171
 Mulliken charges:
               1
     1  C   -0.222447
     2  C   -0.132352
     3  O   -0.027075
     4  C   -0.130392
     5  C   -0.191272
     6  H    0.164812
     7  H    0.184793
     8  H    0.193104
     9  H    0.160829
 Sum of Mulliken charges =   0.00000
 Mulliken charges with hydrogens summed into heavy atoms:
               1
     1  C   -0.061618
     2  C    0.060752
     3  O   -0.027075
     4  C    0.054401
     5  C   -0.026460
 Charge=              0.0000 electrons
 Dipole moment (field-independent basis, Debye):
    X=             -0.0119    Y=              0.1289    Z=             -0.0429  Tot=              0.1363
 N-N= 1.036054031992D+02 E-N=-1.712361859342D+02  KE=-1.657490118280D+01
 Orbital energies and kinetic energies (alpha):
                                 1                 2
   1         O                -1.596356         -1.325394
   2         O                -1.240176         -1.060568
   3         O                -1.089204         -0.948846
   4         O                -0.838331         -0.709633
   5         O                -0.800839         -0.714673
   6         O                -0.687033         -0.603295
   7         O                -0.620774         -0.496684
   8         O                -0.566711         -0.511628
   9         O                -0.517502         -0.429974
  10         O                -0.498583         -0.430473
  11         O                -0.483818         -0.405669
  12         O                -0.389364         -0.341062
  13         O                -0.341899         -0.309550
  14         V                 0.035445         -0.188354
  15         V                 0.061186         -0.193591
  16         V                 0.095931         -0.206846
  17         V                 0.133874         -0.242823
  18         V                 0.144399         -0.175324
  19         V                 0.158481         -0.178904
  20         V                 0.177360         -0.180325
  21         V                 0.181108         -0.145761
  22         V                 0.189074         -0.164093
  23         V                 0.208758         -0.132097
  24         V                 0.230316         -0.032082
 Total kinetic energy from orbitals=-1.657490118280D+01
 Leave Link  601 at Tue Dec 15 16:28:08 2015, MaxMem=    33554432 cpu:         0.0
 (Enter /home/Applications/g09/g09/l701.exe)
 Compute integral first derivatives.
 ... and contract with generalized density number  6.
 Leave Link  701 at Tue Dec 15 16:28:08 2015, MaxMem=    33554432 cpu:         0.0
 (Enter /home/Applications/g09/g09/l702.exe)
 L702 exits ... SP integral derivatives will be done elsewhere.
 Leave Link  702 at Tue Dec 15 16:28:08 2015, MaxMem=    33554432 cpu:         0.0
 (Enter /home/Applications/g09/g09/l703.exe)
 Compute integral first derivatives, UseDBF=F ICtDFT=           0.
 Integral derivatives from FoFJK, PRISM(SPDF).
 Calling FoFJK, ICntrl=  10005127 FMM=F ISym2X=0 I1Cent= 0 IOpClX= 0 NMat=1 NMatS=1 NMatT=0.
 FoFJK:  IHMeth= 8 ICntrl=10005127 DoSepK=F KAlg= 0 I1Cent=   0 FoldK=F
 IRaf=         0 NMat=   1 IRICut=       1 DoRegI=T DoRafI=F ISym2E= 0.
 FoFCou: FMM=F IPFlag=           0 FMFlag=      100000 FMFlg1=         800
         NFxFlg=           0 DoJE=F BraDBF=F KetDBF=F FulRan=T
         wScrn=  0.000000 ICntrl=10005127 IOpCl=  0 I1Cent=           0 NGrid=           0
         NMat0=    1 NMatS0=      1 NMatT0=    0 NMatD0=    1 NMtDS0=    0 NMtDT0=    0
 Symmetry not used in FoFCou.
 Leave Link  703 at Tue Dec 15 16:28:08 2015, MaxMem=    33554432 cpu:         0.0
 (Enter /home/Applications/g09/g09/l716.exe)
 Dipole        =-3.71643967D-02 1.77759644D-01-6.67120428D-03
 ***** Axes restored to original set *****
 -------------------------------------------------------------------
 Center     Atomic                   Forces (Hartrees/Bohr)
 Number     Number              X              Y              Z
 -------------------------------------------------------------------
      1        6           0.015149399    0.050970976   -0.013448387
      2        6           0.015037952   -0.144199374    0.006648602
      3        8          -0.139795593    0.012403766   -0.004137597
      4        6          -0.041315196    0.143743651    0.000256478
      5        6           0.113071541   -0.065970438    0.010219446
      6        1           0.000419059    0.002579100   -0.002319885
      7        1          -0.001986172   -0.015704217   -0.000635680
      8        1           0.013289040    0.028070183    0.000482118
      9        1           0.026129970   -0.011893647    0.002934906
 -------------------------------------------------------------------
 Cartesian Forces:  Max     0.144199374 RMS     0.056259235
 Z-matrix is all fixed cartesians, so copy forces.
 Force constants in Cartesian coordinates: 
                1             2             3             4             5 
      1  0.823588D+00
      2 -0.856109D-01  0.771556D+00
      3 -0.161814D-01  0.289177D-02  0.177336D+00
      4 -0.417050D+00 -0.771167D-01 -0.624062D-02  0.873915D+00
      5 -0.551898D-01 -0.189061D+00 -0.197964D-02 -0.910975D-01  0.891235D+00
      6 -0.127186D-01 -0.327556D-02 -0.808717D-01  0.210738D-01 -0.891462D-02
      7 -0.749738D-02  0.292601D-01 -0.115301D-02 -0.343848D+00  0.223095D+00
      8 -0.566913D-02  0.221091D-01 -0.213732D-03  0.269691D+00 -0.453705D+00
      9 -0.867707D-03  0.138469D-02  0.956226D-02 -0.126160D-01  0.116153D-01
     10  0.799881D-02  0.230764D-03  0.552497D-04  0.253917D-01  0.191385D-01
     11  0.349080D-01  0.981580D-03 -0.754040D-03 -0.193747D-01 -0.146159D-01
     12 -0.293238D-02  0.122716D-04 -0.136564D-02  0.112565D-02  0.757669D-03
     13 -0.159702D+00  0.183524D-01  0.180333D-02  0.838344D-02 -0.328234D-01
     14 -0.519768D-02 -0.370770D+00  0.180682D-01  0.250530D-03 -0.100824D-02
     15  0.171827D-02  0.206574D-01 -0.754318D-01  0.332961D-03 -0.106980D-02
     16  0.166066D-01  0.497768D-03  0.262604D-03  0.642769D-05 -0.938380D-05
     17 -0.226866D-01 -0.709680D-03 -0.941045D-03 -0.502873D-05  0.734145D-05
     18  0.329674D-02  0.918389D-03  0.161368D-01 -0.102372D-03  0.149453D-03
     19  0.164546D-05  0.287033D-05  0.553904D-04 -0.457207D-05  0.153002D-05
     20 -0.791414D-05 -0.138053D-04 -0.266410D-03  0.598757D-05 -0.200371D-05
     21  0.195661D-03  0.341310D-03  0.658645D-02 -0.182347D-03  0.610215D-04
     22  0.618962D-02 -0.240552D-01 -0.409162D-03 -0.141699D+00 -0.826962D-01
     23 -0.309000D-02  0.120295D-01 -0.426104D-04 -0.768079D-01 -0.254344D+00
     24  0.430347D-04 -0.183284D-02  0.200119D-01 -0.263528D-02 -0.208923D-02
     25 -0.270135D+00  0.138439D+00  0.218077D-01 -0.509474D-02  0.195809D-01
     26  0.142544D+00 -0.246122D+00 -0.167625D-01 -0.554591D-02  0.214928D-01
     27  0.274465D-01 -0.210975D-01 -0.719639D-01 -0.755774D-03  0.146985D-02
                6             7             8             9            10 
      6  0.165684D+00
      7 -0.116939D-01  0.632940D+00
      8  0.129757D-01 -0.323724D-01  0.828134D+00
      9 -0.508636D-01  0.162291D-01 -0.750689D-02  0.658184D-01
     10  0.321968D-03 -0.317757D+00 -0.236591D+00 -0.306331D-02  0.993216D+00
     11 -0.425731D-03 -0.188877D+00 -0.404016D+00 -0.466711D-02  0.330396D-01
     12 -0.166699D-03 -0.375299D-02 -0.588916D-02 -0.552971D-01 -0.101260D-01
     13  0.237646D-02 -0.701674D-02  0.534380D-02  0.637570D-03 -0.561555D+00
     14  0.359724D-03 -0.303323D-01  0.231163D-01  0.114886D-02  0.970967D-01
     15 -0.101820D-02 -0.594464D-03  0.287194D-03  0.983883D-02  0.777622D-02
     16 -0.187843D-03  0.000000D+00 -0.135667D-05  0.585552D-04 -0.414156D-02
     17  0.146960D-03 -0.466339D-05  0.871475D-05 -0.376139D-03  0.560752D-02
     18  0.299173D-02  0.101565D-03 -0.189801D-03  0.819201D-02  0.568576D-03
     19  0.142705D-03  0.217464D-01 -0.165710D-01 -0.104881D-02 -0.143178D+00
     20 -0.186886D-03  0.992328D-02 -0.755914D-02 -0.661663D-03  0.814732D-01
     21  0.569148D-02  0.236328D-03 -0.236769D-03  0.412212D-02  0.455629D-02
     22 -0.228541D-02  0.214330D-01  0.161694D-01  0.629654D-03  0.747945D-05
     23 -0.177660D-02 -0.107073D-01 -0.807928D-02 -0.358612D-03 -0.128478D-05
     24 -0.591294D-01  0.755379D-03  0.694372D-03  0.359386D-02 -0.198506D-03
     25  0.297088D-02 -0.104221D-05  0.000000D+00  0.410016D-04  0.177717D-04
     26  0.109699D-02  0.147030D-04 -0.908640D-05 -0.578429D-03  0.609866D-05
     27  0.176828D-01 -0.127938D-03  0.790655D-04  0.503321D-02  0.109517D-03
               11            12            13            14            15 
     11  0.888537D+00
     12  0.162707D-01  0.199295D+00
     13  0.740233D-01  0.117977D-01  0.964408D+00
     14 -0.212035D+00 -0.264898D-02  0.269440D-01  0.745731D+00
     15 -0.172405D-02 -0.107033D+00 -0.378654D-02 -0.120015D-01  0.205800D+00
     16 -0.178721D-01 -0.924563D-03 -0.269697D+00 -0.115910D+00 -0.565949D-02
     17  0.242725D-01  0.284399D-03 -0.116146D+00 -0.197740D+00 -0.220851D-02
     18  0.399029D-03  0.268499D-01 -0.910121D-02 -0.427462D-02 -0.819592D-01
     19  0.841242D-01  0.444784D-02  0.617538D-02  0.266516D-01  0.134032D-02
     20 -0.283135D+00 -0.903231D-02  0.281571D-02  0.122474D-01 -0.629832D-03
     21 -0.935628D-02 -0.721655D-01  0.117252D-03 -0.164817D-02  0.280447D-01
     22 -0.250296D-05 -0.233452D-03  0.312095D-05 -0.455629D-05 -0.912071D-04
     23  0.000000D+00  0.401011D-04  0.000000D+00  0.000000D+00 -0.832173D-05
     24  0.664290D-04  0.619584D-02 -0.149380D-03  0.218080D-03  0.436549D-02
     25  0.310007D-04  0.598239D-03  0.190000D-01  0.501406D-03 -0.103607D-02
     26  0.106384D-04  0.205296D-03  0.214899D-01  0.458545D-03 -0.330258D-02
     27  0.191041D-03  0.368662D-02 -0.369515D-02  0.778461D-03  0.173932D-01
               16            17            18            19            20 
     16  0.257171D+00
     17  0.133273D+00  0.174197D+00
     18  0.619681D-02  0.283724D-02  0.444222D-01
     19  0.000000D+00  0.436435D-05 -0.950520D-04  0.115260D+00
     20  0.326777D-05 -0.209911D-04  0.457169D-03 -0.942136D-01  0.278483D+00
     21 -0.807892D-04  0.518962D-03 -0.113026D-01 -0.484239D-02  0.103199D-01
     22  0.000000D+00  0.000000D+00  0.000000D+00  0.000000D+00  0.000000D+00
     23  0.000000D+00  0.000000D+00  0.000000D+00  0.000000D+00  0.000000D+00
     24  0.000000D+00  0.000000D+00  0.000000D+00  0.000000D+00  0.000000D+00
     25  0.543150D-04 -0.424935D-04 -0.865060D-03  0.000000D+00  0.000000D+00
     26  0.186391D-04 -0.145824D-04 -0.296860D-03  0.000000D+00  0.000000D+00
     27  0.334714D-03 -0.261865D-03 -0.533090D-02  0.000000D+00  0.000000D+00
               21            22            23            24            25 
     21  0.390234D-01
     22  0.000000D+00  0.114065D+00
     23  0.000000D+00  0.906061D-01  0.250395D+00
     24  0.000000D+00  0.224221D-02  0.213260D-02  0.320157D-01
     25  0.000000D+00  0.120045D-05  0.000000D+00 -0.574579D-04  0.256158D+00
     26  0.000000D+00 -0.169354D-04 -0.154518D-05  0.810587D-03 -0.158511D+00
     27  0.000000D+00  0.147364D-03  0.134454D-04 -0.705334D-02 -0.234592D-01
               26            27 
     26  0.224186D+00
     27  0.188275D-01  0.405523D-01
 Leave Link  716 at Tue Dec 15 16:28:08 2015, MaxMem=    33554432 cpu:         0.0
 (Enter /home/Applications/g09/g09/l103.exe)

 GradGradGradGradGradGradGradGradGradGradGradGradGradGradGradGradGradGrad
 Berny optimization.
 Search for a local minimum.
 Step number   1 out of a maximum of    2
 All quantities printed in internal units (Hartrees-Bohrs-Radians)
 Second derivative matrix not updated -- first step.
 ITU=  0
     Eigenvalues ---    0.01650   0.03087   0.06848   0.07198   0.07654
     Eigenvalues ---    0.08811   0.12735   0.13344   0.15493   0.23687
     Eigenvalues ---    0.26806   0.28544   0.37304   0.41084   0.59811
     Eigenvalues ---    0.82677   1.12608   1.29504   1.37934   1.59920
     Eigenvalues ---    1.73732
 Quadratic step=4.436D-01 exceeds max=3.000D-01 adjusted using Lamda=-9.996D-02.
 Angle between NR and scaled steps=  19.97 degrees.
 Angle between quadratic step and forces=  34.13 degrees.
 Linear search not attempted -- first point.
 TrRot= -0.014119 -0.000489 -0.001176 -0.976037  0.001336  0.974649
 Variable       Old X    -DE/DX   Delta X   Delta X   Delta X     New X
                                 (Linear)    (Quad)   (Total)
    X1        1.87004   0.01515   0.00000   0.04500   0.02906   1.89910
    Y1       -1.33822   0.05097   0.00000   0.00864   0.00546  -1.33276
    Z1        0.07240  -0.01345   0.00000  -0.03988  -0.04396   0.02843
    X2       -0.71587   0.01504   0.00000  -0.02011  -0.03713  -0.75300
    Y2       -2.00266  -0.14420   0.00000  -0.10417  -0.10366  -2.10631
    Z2        0.01710   0.00665   0.00000   0.00878   0.00583   0.02293
    X3       -2.20218  -0.13980   0.00000  -0.15063  -0.16482  -2.36700
    Y3       -0.02983   0.01240   0.00000   0.00512   0.00796  -0.02187
    Z3       -0.05167  -0.00414   0.00000  -0.00127  -0.00071  -0.05238
    X4       -0.66943  -0.04132   0.00000  -0.03414  -0.04536  -0.71480
    Y4        1.97988   0.14374   0.00000   0.11945   0.11996   2.09984
    Z4       -0.02411   0.00026   0.00000  -0.00544  -0.00377  -0.02788
    X5        1.78981   0.11307   0.00000   0.10037   0.08812   1.87794
    Y5        1.41225  -0.06597   0.00000  -0.04084  -0.04390   1.36834
    Z5       -0.06775   0.01022   0.00000   0.02494   0.02386  -0.04389
    X6        3.43900   0.00042   0.00000   0.07625   0.06574   3.50474
    Y6        2.62584   0.00258   0.00000  -0.01910  -0.02445   2.60139
    Z6       -0.02382  -0.00232   0.00000   0.00521   0.00428  -0.01954
    X7       -1.54329  -0.00199   0.00000  -0.03695  -0.04555  -1.58884
    Y7        3.89287  -0.01570   0.00000   0.05045   0.05209   3.94496
    Z7        0.06062  -0.00064   0.00000  -0.00898  -0.00461   0.05601
    X8       -1.67841   0.01329   0.00000   0.03473   0.01514  -1.66326
    Y8       -3.93105   0.02807   0.00000  -0.01373  -0.01195  -3.94300
    Z8       -0.00668   0.00048   0.00000   0.01505   0.01075   0.00406
    X9        3.33413   0.02613   0.00000   0.11268   0.09480   3.42893
    Y9       -2.66086  -0.01189   0.00000   0.00367  -0.00151  -2.66237
    Z9       -0.09153   0.00293   0.00000   0.01504   0.00834  -0.08319
         Item               Value     Threshold  Converged?
 Maximum Force            0.144199     0.000450     NO 
 RMS     Force            0.056259     0.000300     NO 
 Maximum Displacement     0.164821     0.001800     NO 
 RMS     Displacement     0.057159     0.001200     NO 
 Predicted change in Energy=-4.087570D-02
 GradGradGradGradGradGradGradGradGradGradGradGradGradGradGradGradGradGrad

 Leave Link  103 at Tue Dec 15 16:28:08 2015, MaxMem=    33554432 cpu:         0.0
 (Enter /home/Applications/g09/g09/l9999.exe)
 1\1\GINC-DUSTIN-DESKTOP\Force\RAM1-FC\STO-3G\C4H4O1\DUSTIN\15-Dec-2015
 \0\\#P AM1(Input,print) CIS(Singlets,NStates=15) pop(full) force\\AM1-
 Reparam Input\\0,1\C,0.989583,-0.708155,0.03831\C,-0.378823,-1.05976,0
 .00905\O,-1.165343,-0.015783,-0.027342\C,-0.354249,1.047707,-0.012758\
 C,0.947129,0.747329,-0.035852\H,1.81984,1.389533,-0.012603\H,-0.816672
 ,2.060019,0.032077\H,-0.888174,-2.080224,-0.003537\H,1.764345,-1.40806
 7,-0.048437\\Version=ES64L-G09RevD.01\State=1-A\HF=0.0292701\RMSD=2.95
 0e-09\RMSF=5.626e-02\Dipole=0.1703277,-0.0631354,-0.0051576\PG=C01 [X(
 C4H4O1)]\\@


 SLITHERY-DITHERY
 FRIEDRICH A. KEKULE
 DREAMT ON A BUS OF THINGS
 FREUD WOULD THINK KEEN.
 MOST OF THE TIME THEY WERE
 HERPETOLOGICAL
 BITING THEIR TAILS IN THE
 SHAPE OF BENZENE.
 Job cpu time:       0 days  0 hours  0 minutes  0.3 seconds.
 File lengths (MBytes):  RWF=      7 Int=      0 D2E=      0 Chk=      2 Scr=      1
 Normal termination of Gaussian 09 at Tue Dec 15 16:28:08 2015.
