 Entering Gaussian System, Link 0=g09
 Input=FuranDFT_12.com
 Output=FuranDFT_12.log
 Initial command:
 /home/Applications/g09/g09/l1.exe "/home/Applications/g09/scratch/Gau-5540.inp" -scrdir="/home/Applications/g09/scratch/"
 Entering Link 1 = /home/Applications/g09/g09/l1.exe PID=      5542.
  
 Copyright (c) 1988,1990,1992,1993,1995,1998,2003,2009,2013,
            Gaussian, Inc.  All Rights Reserved.
  
 This is part of the Gaussian(R) 09 program.  It is based on
 the Gaussian(R) 03 system (copyright 2003, Gaussian, Inc.),
 the Gaussian(R) 98 system (copyright 1998, Gaussian, Inc.),
 the Gaussian(R) 94 system (copyright 1995, Gaussian, Inc.),
 the Gaussian 92(TM) system (copyright 1992, Gaussian, Inc.),
 the Gaussian 90(TM) system (copyright 1990, Gaussian, Inc.),
 the Gaussian 88(TM) system (copyright 1988, Gaussian, Inc.),
 the Gaussian 86(TM) system (copyright 1986, Carnegie Mellon
 University), and the Gaussian 82(TM) system (copyright 1983,
 Carnegie Mellon University). Gaussian is a federally registered
 trademark of Gaussian, Inc.
  
 This software contains proprietary and confidential information,
 including trade secrets, belonging to Gaussian, Inc.
  
 This software is provided under written license and may be
 used, copied, transmitted, or stored only in accord with that
 written license.
  
 The following legend is applicable only to US Government
 contracts under FAR:
  
                    RESTRICTED RIGHTS LEGEND
  
 Use, reproduction and disclosure by the US Government is
 subject to restrictions as set forth in subparagraphs (a)
 and (c) of the Commercial Computer Software - Restricted
 Rights clause in FAR 52.227-19.
  
 Gaussian, Inc.
 340 Quinnipiac St., Bldg. 40, Wallingford CT 06492
  
  
 ---------------------------------------------------------------
 Warning -- This program may not be used in any manner that
 competes with the business of Gaussian, Inc. or will provide
 assistance to any competitor of Gaussian, Inc.  The licensee
 of this program is prohibited from giving any competitor of
 Gaussian, Inc. access to this program.  By using this program,
 the user acknowledges that Gaussian, Inc. is engaged in the
 business of creating and licensing software in the field of
 computational chemistry and represents and warrants to the
 licensee that it is not a competitor of Gaussian, Inc. and that
 it will not use this program in any manner prohibited above.
 ---------------------------------------------------------------
  

 Cite this work as:
 Gaussian 09, Revision D.01,
 M. J. Frisch, G. W. Trucks, H. B. Schlegel, G. E. Scuseria, 
 M. A. Robb, J. R. Cheeseman, G. Scalmani, V. Barone, B. Mennucci, 
 G. A. Petersson, H. Nakatsuji, M. Caricato, X. Li, H. P. Hratchian, 
 A. F. Izmaylov, J. Bloino, G. Zheng, J. L. Sonnenberg, M. Hada, 
 M. Ehara, K. Toyota, R. Fukuda, J. Hasegawa, M. Ishida, T. Nakajima, 
 Y. Honda, O. Kitao, H. Nakai, T. Vreven, J. A. Montgomery, Jr., 
 J. E. Peralta, F. Ogliaro, M. Bearpark, J. J. Heyd, E. Brothers, 
 K. N. Kudin, V. N. Staroverov, T. Keith, R. Kobayashi, J. Normand, 
 K. Raghavachari, A. Rendell, J. C. Burant, S. S. Iyengar, J. Tomasi, 
 M. Cossi, N. Rega, J. M. Millam, M. Klene, J. E. Knox, J. B. Cross, 
 V. Bakken, C. Adamo, J. Jaramillo, R. Gomperts, R. E. Stratmann, 
 O. Yazyev, A. J. Austin, R. Cammi, C. Pomelli, J. W. Ochterski, 
 R. L. Martin, K. Morokuma, V. G. Zakrzewski, G. A. Voth, 
 P. Salvador, J. J. Dannenberg, S. Dapprich, A. D. Daniels, 
 O. Farkas, J. B. Foresman, J. V. Ortiz, J. Cioslowski, 
 and D. J. Fox, Gaussian, Inc., Wallingford CT, 2013.
 
 ******************************************
 Gaussian 09:  ES64L-G09RevD.01 24-Apr-2013
                15-Dec-2015 
 ******************************************
 -------------------------------------------------------
 #P B3LYP/3-21G CIS(Singlets,NStates=15) pop(full) force
 -------------------------------------------------------
 1/10=7,30=1,38=1/1,3;
 2/12=2,17=6,18=5,40=1/2;
 3/5=5,11=9,16=1,25=1,30=1,71=1,74=-5/1,2,8,3;
 4//1;
 5/5=2,38=5/2;
 8/6=1,10=1,108=15/1;
 9/15=2,41=15,42=1,48=1/14;
 10/5=4/2;
 6/7=3,18=1/1;
 7/12=6,13=5,29=1/1,2,3,16;
 1/10=7,30=1/3;
 99//99;
 Leave Link    1 at Tue Dec 15 16:12:58 2015, MaxMem=           0 cpu:         0.0
 (Enter /home/Applications/g09/g09/l101.exe)
 --------
 FuranDFT
 --------
 Symbolic Z-matrix:
 Charge =  0 Multiplicity = 1
 6                     0.91477  -0.70406  -0.00251 
 6                    -0.31941  -1.07223   0.00278 
 8                    -1.16233  -0.02503   0.01809 
 6                    -0.35226   1.11579   0.01818 
 6                     0.96011   0.71435   0.00276 
 1                     1.77564   1.33569  -0.03249 
 1                    -0.80082   2.08179   0.0471 
 1                    -0.83532  -1.99992  -0.00884 
 1                     1.80753  -1.34696   0.00343 
 
 NAtoms=      9 NQM=        9 NQMF=       0 NMMI=      0 NMMIF=      0
                NMic=       0 NMicF=      0.
                    Isotopes and Nuclear Properties:
 (Nuclear quadrupole moments (NQMom) in fm**2, nuclear magnetic moments (NMagM)
  in nuclear magnetons)

  Atom         1           2           3           4           5           6           7           8           9
 IAtWgt=          12          12          16          12          12           1           1           1           1
 AtmWgt=  12.0000000  12.0000000  15.9949146  12.0000000  12.0000000   1.0078250   1.0078250   1.0078250   1.0078250
 NucSpn=           0           0           0           0           0           1           1           1           1
 AtZEff=   0.0000000   0.0000000   0.0000000   0.0000000   0.0000000   0.0000000   0.0000000   0.0000000   0.0000000
 NQMom=    0.0000000   0.0000000   0.0000000   0.0000000   0.0000000   0.0000000   0.0000000   0.0000000   0.0000000
 NMagM=    0.0000000   0.0000000   0.0000000   0.0000000   0.0000000   2.7928460   2.7928460   2.7928460   2.7928460
 AtZNuc=   6.0000000   6.0000000   8.0000000   6.0000000   6.0000000   1.0000000   1.0000000   1.0000000   1.0000000
 Leave Link  101 at Tue Dec 15 16:12:58 2015, MaxMem=    33554432 cpu:         0.0
 (Enter /home/Applications/g09/g09/l103.exe)

 GradGradGradGradGradGradGradGradGradGradGradGradGradGradGradGradGradGrad
 Berny optimization.
 Initialization pass.
 Trust Radius=3.00D-01 FncErr=1.00D-07 GrdErr=1.00D-07
 Number of steps in this run=      2 maximum allowed number of steps=      2.
 GradGradGradGradGradGradGradGradGradGradGradGradGradGradGradGradGradGrad

 Leave Link  103 at Tue Dec 15 16:12:58 2015, MaxMem=    33554432 cpu:         0.0
 (Enter /home/Applications/g09/g09/l202.exe)
                          Input orientation:                          
 ---------------------------------------------------------------------
 Center     Atomic      Atomic             Coordinates (Angstroms)
 Number     Number       Type             X           Y           Z
 ---------------------------------------------------------------------
      1          6           0        0.914771   -0.704061   -0.002510
      2          6           0       -0.319413   -1.072232    0.002775
      3          8           0       -1.162329   -0.025031    0.018094
      4          6           0       -0.352258    1.115789    0.018178
      5          6           0        0.960111    0.714346    0.002755
      6          1           0        1.775637    1.335691   -0.032492
      7          1           0       -0.800824    2.081787    0.047104
      8          1           0       -0.835319   -1.999924   -0.008835
      9          1           0        1.807528   -1.346964    0.003429
 ---------------------------------------------------------------------
                    Distance matrix (angstroms):
                    1          2          3          4          5
     1  C    0.000000
     2  C    1.287939   0.000000
     3  O    2.185372   1.344385   0.000000
     4  C    2.217576   2.188322   1.399173   0.000000
     5  C    1.419141   2.197508   2.247591   1.372482   0.000000
     6  H    2.214176   3.191954   3.238173   2.139827   1.025863
     7  H    3.272106   3.190855   2.137805   1.065458   2.229967
     8  H    2.177640   1.061558   2.001965   3.153053   3.254376
     9  H    1.100170   2.144611   3.250811   3.275675   2.228703
                    6          7          8          9
     6  H    0.000000
     7  H    2.683495   0.000000
     8  H    4.236033   4.082240   0.000000
     9  H    2.683085   4.308334   2.722342   0.000000
 Stoichiometry    C4H4O
 Framework group  C1[X(C4H4O)]
 Deg. of freedom    21
 Full point group                 C1      NOp   1
 Largest Abelian subgroup         C1      NOp   1
 Largest concise Abelian subgroup C1      NOp   1
                         Standard orientation:                         
 ---------------------------------------------------------------------
 Center     Atomic      Atomic             Coordinates (Angstroms)
 Number     Number       Type             X           Y           Z
 ---------------------------------------------------------------------
      1          6           0       -0.649419    0.961871   -0.002631
      2          6           0       -1.095568   -0.246318    0.001723
      3          8           0       -0.104229   -1.154401    0.000617
      4          6           0        1.085947   -0.418762   -0.000511
      5          6           0        0.768999    0.916622    0.000003
      6          1           0        1.440928    1.691179    0.031100
      7          1           0        2.021488   -0.928274   -0.019471
      8          1           0       -2.054341   -0.701881    0.012815
      9          1           0       -1.233998    1.893702   -0.020884
 ---------------------------------------------------------------------
 Rotational constants (GHZ):      9.5964214      9.4703737      4.7666775
 Leave Link  202 at Tue Dec 15 16:12:58 2015, MaxMem=    33554432 cpu:         0.0
 (Enter /home/Applications/g09/g09/l301.exe)
 Standard basis: 3-21G (6D, 7F)
 Ernie: Thresh=  0.10000D-02 Tol=  0.10000D-05 Strict=F.
 There are    53 symmetry adapted cartesian basis functions of A   symmetry.
 There are    53 symmetry adapted basis functions of A   symmetry.
    53 basis functions,    87 primitive gaussians,    53 cartesian basis functions
    18 alpha electrons       18 beta electrons
       nuclear repulsion energy       162.2719044017 Hartrees.
 IExCor=  402 DFT=T Ex+Corr=B3LYP ExCW=0 ScaHFX=  0.200000
 ScaDFX=  0.800000  0.720000  1.000000  0.810000 ScalE2=  1.000000  1.000000
 IRadAn=      0 IRanWt=     -1 IRanGd=            0 ICorTp=0 IEmpDi=  4
 NAtoms=    9 NActive=    9 NUniq=    9 SFac= 1.00D+00 NAtFMM=   60 NAOKFM=F Big=F
 Integral buffers will be    131072 words long.
 Regular integral format.
 Two-electron integral symmetry is turned on.
 Leave Link  301 at Tue Dec 15 16:12:58 2015, MaxMem=    33554432 cpu:         0.0
 (Enter /home/Applications/g09/g09/l302.exe)
 NPDir=0 NMtPBC=     1 NCelOv=     1 NCel=       1 NClECP=     1 NCelD=      1
         NCelK=      1 NCelE2=     1 NClLst=     1 CellRange=     0.0.
 One-electron integrals computed using PRISM.
 NBasis=    53 RedAO= T EigKep=  2.82D-03  NBF=    53
 NBsUse=    53 1.00D-06 EigRej= -1.00D+00 NBFU=    53
 Precomputing XC quadrature grid using
 IXCGrd= 4 IRadAn=           0 IRanWt=          -1 IRanGd=           0 AccXCQ= 0.00D+00.
 Generated NRdTot=       0 NPtTot=           0 NUsed=           0 NTot=          32
 NSgBfM=    53    53    53    53    53 MxSgAt=     9 MxSgA2=     9.
 Leave Link  302 at Tue Dec 15 16:12:58 2015, MaxMem=    33554432 cpu:         0.1
 (Enter /home/Applications/g09/g09/l308.exe)
 Leave Link  308 at Tue Dec 15 16:12:58 2015, MaxMem=    33554432 cpu:         0.0
 (Enter /home/Applications/g09/g09/l303.exe)
 DipDrv:  MaxL=1.
 Leave Link  303 at Tue Dec 15 16:12:58 2015, MaxMem=    33554432 cpu:         0.0
 (Enter /home/Applications/g09/g09/l401.exe)
 ExpMin= 1.83D-01 ExpMax= 3.22D+02 ExpMxC= 3.22D+02 IAcc=1 IRadAn=         1 AccDes= 0.00D+00
 Harris functional with IExCor=  402 and IRadAn=       1 diagonalized for initial guess.
 HarFok:  IExCor=  402 AccDes= 0.00D+00 IRadAn=         1 IDoV= 1 UseB2=F ITyADJ=14
 ICtDFT=  3500011 ScaDFX=  1.000000  1.000000  1.000000  1.000000
 FoFCou: FMM=F IPFlag=           0 FMFlag=      100000 FMFlg1=           0
         NFxFlg=           0 DoJE=T BraDBF=F KetDBF=T FulRan=T
         wScrn=  0.000000 ICntrl=     500 IOpCl=  0 I1Cent=   200000004 NGrid=           0
         NMat0=    1 NMatS0=      1 NMatT0=    0 NMatD0=    1 NMtDS0=    0 NMtDT0=    0
 Petite list used in FoFCou.
 Harris En= -228.739544695686    
 JPrj=0 DoOrth=F DoCkMO=F.
 Leave Link  401 at Tue Dec 15 16:12:58 2015, MaxMem=    33554432 cpu:         0.2
 (Enter /home/Applications/g09/g09/l502.exe)
 Closed shell SCF:
 Using DIIS extrapolation, IDIIS=  1040.
 Integral symmetry usage will be decided dynamically.
 Keep R1 ints in memory in canonical form, NReq=1925595.
 IVT=       27707 IEndB=       27707 NGot=    33554432 MDV=    32502130
 LenX=    32502130 LenY=    32498880
 Requested convergence on RMS density matrix=1.00D-08 within 128 cycles.
 Requested convergence on MAX density matrix=1.00D-06.
 Requested convergence on             energy=1.00D-06.
 No special actions if energy rises.
 FoFCou: FMM=F IPFlag=           0 FMFlag=           0 FMFlg1=           0
         NFxFlg=           0 DoJE=F BraDBF=F KetDBF=F FulRan=T
         wScrn=  0.000000 ICntrl=     600 IOpCl=  0 I1Cent=           0 NGrid=           0
         NMat0=    1 NMatS0=   1431 NMatT0=    0 NMatD0=    1 NMtDS0=    0 NMtDT0=    0
 Symmetry not used in FoFCou.
 Integral accuracy reduced to 1.0D-05 until final iterations.

 Cycle   1  Pass 0  IDiag  1:
 E= -228.650342286088    
 DIIS: error= 3.75D-02 at cycle   1 NSaved=   1.
 NSaved= 1 IEnMin= 1 EnMin= -228.650342286088     IErMin= 1 ErrMin= 3.75D-02
 ErrMax= 3.75D-02  0.00D+00 EMaxC= 1.00D-01 BMatC= 8.66D-02 BMatP= 8.66D-02
 IDIUse=3 WtCom= 6.25D-01 WtEn= 3.75D-01
 Coeff-Com:  0.100D+01
 Coeff-En:   0.100D+01
 Coeff:      0.100D+01
 Gap=     0.232 Goal=   None    Shift=    0.000
 GapD=    0.232 DampG=1.000 DampE=0.500 DampFc=0.5000 IDamp=-1.
 Damping current iteration by 5.00D-01
 RMSDP=1.28D-02 MaxDP=1.26D-01              OVMax= 2.16D-01

 Cycle   2  Pass 0  IDiag  1:
 E= -228.684432117732     Delta-E=       -0.034089831644 Rises=F Damp=T
 DIIS: error= 1.47D-02 at cycle   2 NSaved=   2.
 NSaved= 2 IEnMin= 2 EnMin= -228.684432117732     IErMin= 2 ErrMin= 1.47D-02
 ErrMax= 1.47D-02  0.00D+00 EMaxC= 1.00D-01 BMatC= 1.01D-02 BMatP= 8.66D-02
 IDIUse=3 WtCom= 8.53D-01 WtEn= 1.47D-01
 Coeff-Com:  0.122D+00 0.878D+00
 Coeff-En:   0.214D+00 0.786D+00
 Coeff:      0.136D+00 0.864D+00
 Gap=     0.252 Goal=   None    Shift=    0.000
 RMSDP=4.70D-03 MaxDP=4.12D-02 DE=-3.41D-02 OVMax= 1.74D-01

 Cycle   3  Pass 0  IDiag  1:
 E= -228.729437778814     Delta-E=       -0.045005661081 Rises=F Damp=F
 DIIS: error= 2.01D-02 at cycle   3 NSaved=   3.
 NSaved= 3 IEnMin= 3 EnMin= -228.729437778814     IErMin= 2 ErrMin= 1.47D-02
 ErrMax= 2.01D-02  0.00D+00 EMaxC= 1.00D-01 BMatC= 1.22D-02 BMatP= 1.01D-02
 IDIUse=2 WtCom= 0.00D+00 WtEn= 1.00D+00
 Coeff-En:   0.000D+00 0.000D+00 0.100D+01
 Coeff:      0.000D+00 0.000D+00 0.100D+01
 Gap=     0.244 Goal=   None    Shift=    0.000
 RMSDP=6.01D-03 MaxDP=4.75D-02 DE=-4.50D-02 OVMax= 1.25D-01

 Cycle   4  Pass 0  IDiag  1:
 E= -228.698874115352     Delta-E=        0.030563663461 Rises=F Damp=F
 DIIS: error= 4.07D-02 at cycle   4 NSaved=   4.
 NSaved= 4 IEnMin= 3 EnMin= -228.729437778814     IErMin= 2 ErrMin= 1.47D-02
 ErrMax= 4.07D-02  0.00D+00 EMaxC= 1.00D-01 BMatC= 4.64D-02 BMatP= 1.01D-02
 IDIUse=2 WtCom= 0.00D+00 WtEn= 1.00D+00
 Coeff-En:   0.000D+00 0.000D+00 0.744D+00 0.256D+00
 Coeff:      0.000D+00 0.000D+00 0.744D+00 0.256D+00
 Gap=     0.255 Goal=   None    Shift=    0.000
 RMSDP=3.03D-03 MaxDP=2.36D-02 DE= 3.06D-02 OVMax= 6.85D-02

 Cycle   5  Pass 0  IDiag  1:
 E= -228.738351702596     Delta-E=       -0.039477587244 Rises=F Damp=F
 DIIS: error= 9.08D-03 at cycle   5 NSaved=   5.
 NSaved= 5 IEnMin= 5 EnMin= -228.738351702596     IErMin= 5 ErrMin= 9.08D-03
 ErrMax= 9.08D-03  0.00D+00 EMaxC= 1.00D-01 BMatC= 2.42D-03 BMatP= 1.01D-02
 IDIUse=3 WtCom= 9.09D-01 WtEn= 9.08D-02
 Coeff-Com: -0.892D-02 0.288D-01 0.232D+00-0.865D-01 0.835D+00
 Coeff-En:   0.000D+00 0.000D+00 0.201D+00 0.000D+00 0.799D+00
 Coeff:     -0.811D-02 0.262D-01 0.229D+00-0.787D-01 0.831D+00
 Gap=     0.259 Goal=   None    Shift=    0.000
 RMSDP=9.96D-04 MaxDP=7.94D-03 DE=-3.95D-02 OVMax= 2.06D-02

 Cycle   6  Pass 0  IDiag  1:
 E= -228.740535253281     Delta-E=       -0.002183550685 Rises=F Damp=F
 DIIS: error= 5.24D-04 at cycle   6 NSaved=   6.
 NSaved= 6 IEnMin= 6 EnMin= -228.740535253281     IErMin= 6 ErrMin= 5.24D-04
 ErrMax= 5.24D-04  0.00D+00 EMaxC= 1.00D-01 BMatC= 1.09D-05 BMatP= 2.42D-03
 IDIUse=3 WtCom= 9.95D-01 WtEn= 5.24D-03
 Coeff-Com: -0.583D-02 0.127D-01 0.404D-01-0.402D-01 0.281D+00 0.712D+00
 Coeff-En:   0.000D+00 0.000D+00 0.000D+00 0.000D+00 0.000D+00 0.100D+01
 Coeff:     -0.580D-02 0.126D-01 0.402D-01-0.400D-01 0.279D+00 0.714D+00
 Gap=     0.259 Goal=   None    Shift=    0.000
 RMSDP=7.22D-05 MaxDP=6.42D-04 DE=-2.18D-03 OVMax= 1.53D-03

 Cycle   7  Pass 0  IDiag  1:
 E= -228.740546281799     Delta-E=       -0.000011028518 Rises=F Damp=F
 DIIS: error= 8.31D-05 at cycle   7 NSaved=   7.
 NSaved= 7 IEnMin= 7 EnMin= -228.740546281799     IErMin= 7 ErrMin= 8.31D-05
 ErrMax= 8.31D-05  0.00D+00 EMaxC= 1.00D-01 BMatC= 1.83D-07 BMatP= 1.09D-05
 IDIUse=1 WtCom= 1.00D+00 WtEn= 0.00D+00
 Coeff-Com: -0.246D-02 0.480D-02 0.146D-01-0.164D-01 0.118D+00 0.408D+00
 Coeff-Com:  0.473D+00
 Coeff:     -0.246D-02 0.480D-02 0.146D-01-0.164D-01 0.118D+00 0.408D+00
 Coeff:      0.473D+00
 Gap=     0.259 Goal=   None    Shift=    0.000
 RMSDP=8.73D-06 MaxDP=9.21D-05 DE=-1.10D-05 OVMax= 2.61D-04

 Initial convergence to 1.0D-05 achieved.  Increase integral accuracy.
 Cycle   8  Pass 1  IDiag  1:
 E= -228.740580736818     Delta-E=       -0.000034455020 Rises=F Damp=F
 DIIS: error= 1.92D-05 at cycle   1 NSaved=   1.
 NSaved= 1 IEnMin= 1 EnMin= -228.740580736818     IErMin= 1 ErrMin= 1.92D-05
 ErrMax= 1.92D-05  0.00D+00 EMaxC= 1.00D-01 BMatC= 2.13D-08 BMatP= 2.13D-08
 IDIUse=1 WtCom= 1.00D+00 WtEn= 0.00D+00
 Coeff-Com:  0.100D+01
 Coeff:      0.100D+01
 Gap=     0.259 Goal=   None    Shift=    0.000
 RMSDP=8.73D-06 MaxDP=9.21D-05 DE=-3.45D-05 OVMax= 8.73D-05

 Cycle   9  Pass 1  IDiag  1:
 E= -228.740580743319     Delta-E=       -0.000000006500 Rises=F Damp=F
 DIIS: error= 2.35D-05 at cycle   2 NSaved=   2.
 NSaved= 2 IEnMin= 2 EnMin= -228.740580743319     IErMin= 1 ErrMin= 1.92D-05
 ErrMax= 2.35D-05  0.00D+00 EMaxC= 1.00D-01 BMatC= 1.97D-08 BMatP= 2.13D-08
 IDIUse=1 WtCom= 1.00D+00 WtEn= 0.00D+00
 Coeff-Com:  0.489D+00 0.511D+00
 Coeff:      0.489D+00 0.511D+00
 Gap=     0.259 Goal=   None    Shift=    0.000
 RMSDP=3.22D-06 MaxDP=3.82D-05 DE=-6.50D-09 OVMax= 7.46D-05

 Cycle  10  Pass 1  IDiag  1:
 E= -228.740580761289     Delta-E=       -0.000000017970 Rises=F Damp=F
 DIIS: error= 7.19D-06 at cycle   3 NSaved=   3.
 NSaved= 3 IEnMin= 3 EnMin= -228.740580761289     IErMin= 3 ErrMin= 7.19D-06
 ErrMax= 7.19D-06  0.00D+00 EMaxC= 1.00D-01 BMatC= 1.61D-09 BMatP= 1.97D-08
 IDIUse=1 WtCom= 1.00D+00 WtEn= 0.00D+00
 Coeff-Com:  0.135D-01 0.219D+00 0.768D+00
 Coeff:      0.135D-01 0.219D+00 0.768D+00
 Gap=     0.259 Goal=   None    Shift=    0.000
 RMSDP=1.07D-06 MaxDP=1.01D-05 DE=-1.80D-08 OVMax= 2.13D-05

 Cycle  11  Pass 1  IDiag  1:
 E= -228.740580762586     Delta-E=       -0.000000001297 Rises=F Damp=F
 DIIS: error= 4.39D-06 at cycle   4 NSaved=   4.
 NSaved= 4 IEnMin= 4 EnMin= -228.740580762586     IErMin= 4 ErrMin= 4.39D-06
 ErrMax= 4.39D-06  0.00D+00 EMaxC= 1.00D-01 BMatC= 4.61D-10 BMatP= 1.61D-09
 IDIUse=1 WtCom= 1.00D+00 WtEn= 0.00D+00
 Coeff-Com: -0.151D-01 0.126D+00 0.515D+00 0.375D+00
 Coeff:     -0.151D-01 0.126D+00 0.515D+00 0.375D+00
 Gap=     0.259 Goal=   None    Shift=    0.000
 RMSDP=3.86D-07 MaxDP=4.76D-06 DE=-1.30D-09 OVMax= 8.26D-06

 Cycle  12  Pass 1  IDiag  1:
 E= -228.740580762974     Delta-E=       -0.000000000387 Rises=F Damp=F
 DIIS: error= 2.84D-07 at cycle   5 NSaved=   5.
 NSaved= 5 IEnMin= 5 EnMin= -228.740580762974     IErMin= 5 ErrMin= 2.84D-07
 ErrMax= 2.84D-07  0.00D+00 EMaxC= 1.00D-01 BMatC= 4.88D-12 BMatP= 4.61D-10
 IDIUse=1 WtCom= 1.00D+00 WtEn= 0.00D+00
 Coeff-Com: -0.739D-02 0.472D-01 0.197D+00 0.165D+00 0.598D+00
 Coeff:     -0.739D-02 0.472D-01 0.197D+00 0.165D+00 0.598D+00
 Gap=     0.259 Goal=   None    Shift=    0.000
 RMSDP=5.97D-08 MaxDP=7.85D-07 DE=-3.87D-10 OVMax= 1.00D-06

 Cycle  13  Pass 1  IDiag  1:
 E= -228.740580762977     Delta-E=       -0.000000000003 Rises=F Damp=F
 DIIS: error= 1.21D-07 at cycle   6 NSaved=   6.
 NSaved= 6 IEnMin= 6 EnMin= -228.740580762977     IErMin= 6 ErrMin= 1.21D-07
 ErrMax= 1.21D-07  0.00D+00 EMaxC= 1.00D-01 BMatC= 7.57D-13 BMatP= 4.88D-12
 IDIUse=1 WtCom= 1.00D+00 WtEn= 0.00D+00
 Coeff-Com: -0.139D-02 0.698D-02 0.278D-01 0.319D-01 0.306D+00 0.628D+00
 Coeff:     -0.139D-02 0.698D-02 0.278D-01 0.319D-01 0.306D+00 0.628D+00
 Gap=     0.259 Goal=   None    Shift=    0.000
 RMSDP=2.31D-08 MaxDP=2.13D-07 DE=-3.01D-12 OVMax= 4.74D-07

 Cycle  14  Pass 1  IDiag  1:
 E= -228.740580762978     Delta-E=       -0.000000000001 Rises=F Damp=F
 DIIS: error= 3.50D-08 at cycle   7 NSaved=   7.
 NSaved= 7 IEnMin= 7 EnMin= -228.740580762978     IErMin= 7 ErrMin= 3.50D-08
 ErrMax= 3.50D-08  0.00D+00 EMaxC= 1.00D-01 BMatC= 4.88D-14 BMatP= 7.57D-13
 IDIUse=1 WtCom= 1.00D+00 WtEn= 0.00D+00
 Coeff-Com: -0.375D-03 0.700D-03 0.225D-02 0.668D-02 0.115D+00 0.308D+00
 Coeff-Com:  0.567D+00
 Coeff:     -0.375D-03 0.700D-03 0.225D-02 0.668D-02 0.115D+00 0.308D+00
 Coeff:      0.567D+00
 Gap=     0.259 Goal=   None    Shift=    0.000
 RMSDP=5.68D-09 MaxDP=5.73D-08 DE=-1.42D-12 OVMax= 1.28D-07

 SCF Done:  E(RB3LYP) =  -228.740580763     A.U. after   14 cycles
            NFock= 14  Conv=0.57D-08     -V/T= 2.0069
 KE= 2.271680849012D+02 PE=-8.573517555812D+02 EE= 2.391711855153D+02
 Leave Link  502 at Tue Dec 15 16:13:02 2015, MaxMem=    33554432 cpu:         4.2
 (Enter /home/Applications/g09/g09/l801.exe)
 DoSCS=F DFT=T ScalE2(SS,OS)=  1.000000  1.000000
 ExpMin= 1.83D-01 ExpMax= 3.22D+02 ExpMxC= 3.22D+02 IAcc=3 IRadAn=         5 AccDes= 0.00D+00
 HarFok:  IExCor=  205 AccDes= 0.00D+00 IRadAn=         5 IDoV=-2 UseB2=F ITyADJ=14
 ICtDFT= 12500011 ScaDFX=  1.000000  1.000000  1.000000  1.000000
 Largest valence mixing into a core orbital is  1.83D-04
 Largest core mixing into a valence orbital is  4.82D-05
 Range of M.O.s used for correlation:     6    53
 NBasis=    53 NAE=    18 NBE=    18 NFC=     5 NFV=     0
 NROrb=     48 NOA=    13 NOB=    13 NVA=    35 NVB=    35
 Leave Link  801 at Tue Dec 15 16:13:03 2015, MaxMem=    33554432 cpu:         0.2
 (Enter /home/Applications/g09/g09/l914.exe)
 RHF ground state
 MDV=    33554432 DFT=T DoStab=F Mixed=T DoRPA=F DoScal=F NonHer=F
 Keep R1, R2, and R3 ints in memory in canonical form, NReq=5596273.
 FoFCou: FMM=F IPFlag=           0 FMFlag=           0 FMFlg1=           0
         NFxFlg=           0 DoJE=F BraDBF=F KetDBF=F FulRan=T
         wScrn=  0.000000 ICntrl=     600 IOpCl=  0 I1Cent=           0 NGrid=           0
         NMat0=    1 NMatS0=   1431 NMatT0=    0 NMatD0=    1 NMtDS0=    0 NMtDT0=    0
 Symmetry not used in FoFCou.
 Making orbital integer symmetry assigments:
 Orbital symmetries:
       Occupied  (A) (A) (A) (A) (A) (A) (A) (A) (A) (A) (A) (A)
                 (A) (A) (A) (A) (A) (A)
       Virtual   (A) (A) (A) (A) (A) (A) (A) (A) (A) (A) (A) (A)
                 (A) (A) (A) (A) (A) (A) (A) (A) (A) (A) (A) (A)
                 (A) (A) (A) (A) (A) (A) (A) (A) (A) (A) (A)
    60 initial guesses have been made.
 Convergence on wavefunction:    0.000001000000000
 Davidson Disk Diagonalization:  ConvIn= 1.00D-06 SkipCon=T Conv= 1.00D-06.
 Max sub-space:   240 roots to seek:    60 dimension of matrix:          910
 Iteration     1 Dimension    60 NMult     0 NNew     60
 CISAX will form    60 AO SS matrices at one time.
 NMat=    60 NSing=    60 JSym2X= 0.
 New state      1 was old state      2
 New state      2 was old state      1
 New state      3 was old state      4
 New state      4 was old state      6
 New state      5 was old state      7
 New state      6 was old state      8
 New state      7 was old state     10
 New state      8 was old state      9
 New state      9 was old state      5
 New state     10 was old state     11
 New state     11 was old state     13
 New state     13 was old state     14
 New state     14 was old state      3
 Excitation Energies [eV] at current iteration:
 Root      1 :     7.617172408755865
 Root      2 :     8.215555091540292
 Root      3 :     8.788783111771155
 Root      4 :     8.911069583897197
 Root      5 :     9.430488389550307
 Root      6 :     9.829143319864341
 Root      7 :     9.926446279553566
 Root      8 :    10.074989585429880
 Root      9 :    10.294629004258770
 Root     10 :    10.523268954888270
 Root     11 :    10.681570719392350
 Root     12 :    10.756080229103010
 Root     13 :    11.020844789049470
 Root     14 :    11.151364969354930
 Root     15 :    11.184283870255940
 Root     16 :    11.237898825825470
 Root     17 :    11.368279604531870
 Root     18 :    11.475821575552920
 Root     19 :    11.617037421381410
 Root     20 :    11.879891220251920
 Root     21 :    12.139880790318640
 Root     22 :    12.220821946455930
 Root     23 :    12.520116851657330
 Root     24 :    12.712899692615380
 Root     25 :    12.734406364268420
 Root     26 :    13.420680559923760
 Root     27 :    13.442750395686150
 Root     28 :    13.705014631448840
 Root     29 :    13.831154821250320
 Root     30 :    14.005981224299840
 Root     31 :    14.127954891076750
 Root     32 :    14.241929431009580
 Root     33 :    14.288751533655320
 Root     34 :    14.401819246724680
 Root     35 :    14.618401923185760
 Root     36 :    14.690448230081340
 Root     37 :    14.803434391387250
 Root     38 :    14.835976919039320
 Root     39 :    14.841067990054050
 Root     40 :    14.949356765550600
 Root     41 :    15.076307760485970
 Root     42 :    15.079812474465220
 Root     43 :    15.378949050162590
 Root     44 :    15.502687682031200
 Root     45 :    15.640713450025980
 Root     46 :    15.714561084108140
 Root     47 :    15.748857124989560
 Root     48 :    15.853555947833380
 Root     49 :    15.965182319482310
 Root     50 :    16.083642049007430
 Root     51 :    16.201605731898190
 Root     52 :    16.265992525060270
 Root     53 :    16.342646899615410
 Root     54 :    16.562976445625460
 Root     55 :    16.658316779448110
 Root     56 :    17.038566497019050
 Root     57 :    17.117209727642450
 Root     58 :    17.402653563202130
 Root     59 :    17.837793171651910
 Root     60 :    19.225185393259300
 Iteration     2 Dimension   120 NMult    60 NNew     60
 CISAX will form    60 AO SS matrices at one time.
 NMat=    60 NSing=    60 JSym2X= 0.
 Root      1 not converged, maximum delta is    0.378947228750674
 Root      2 not converged, maximum delta is    0.338916807980796
 Root      3 not converged, maximum delta is    0.017211834319510
 Root      4 not converged, maximum delta is    0.015086838182149
 Root      5 not converged, maximum delta is    0.022954888087536
 New state      6 was old state      9
 Root      6 not converged, maximum delta is    0.322969338264099
 New state      7 was old state      6
 Root      7 not converged, maximum delta is    0.136017552840237
 New state      8 was old state      7
 Root      8 not converged, maximum delta is    0.100949831851586
 New state      9 was old state      8
 Root      9 not converged, maximum delta is    0.178373520338759
 New state     10 was old state     14
 Root     10 not converged, maximum delta is    0.174198538238735
 New state     11 was old state     10
 Root     11 not converged, maximum delta is    0.014964214485233
 New state     12 was old state     11
 Root     12 not converged, maximum delta is    0.067154672020107
 New state     13 was old state     12
 Root     13 not converged, maximum delta is    0.059798179553078
 New state     14 was old state     13
 Root     14 not converged, maximum delta is    0.017815128692718
 Root     15 not converged, maximum delta is    0.037094849545876
 Excitation Energies [eV] at current iteration:
 Root      1 :     7.342137748166317   Change is   -0.275034660589548
 Root      2 :     7.575709036699275   Change is   -0.639846054841016
 Root      3 :     8.781412577374871   Change is   -0.007370534396284
 Root      4 :     8.885517005296611   Change is   -0.025552578600587
 Root      5 :     9.405523588607913   Change is   -0.024964800942394
 Root      6 :     9.677735376272105   Change is   -0.616893627986667
 Root      7 :     9.828027799218193   Change is   -0.001115520646150
 Root      8 :     9.923089870520229   Change is   -0.003356409033338
 Root      9 :    10.055854115191010   Change is   -0.019135470238873
 Root     10 :    10.180534012983500   Change is   -0.970830956371425
 Root     11 :    10.511511202405020   Change is   -0.011757752483256
 Root     12 :    10.667794235512500   Change is   -0.013776483879851
 Root     13 :    10.735790831688380   Change is   -0.020289397414627
 Root     14 :    11.016453491908760   Change is   -0.004391297140701
 Root     15 :    11.160873136469170   Change is   -0.023410733786766
 Root     16 :    11.221007743945660   Change is   -0.016891081879813
 Root     17 :    11.321217572437660   Change is   -0.047062032094215
 Root     18 :    11.453227613268130   Change is   -0.022593962284797
 Root     19 :    11.597382983449840   Change is   -0.019654437931574
 Root     20 :    11.861795663715250   Change is   -0.018095556536672
 Root     21 :    11.963048526307550   Change is   -0.176832264011087
 Root     22 :    12.192005746268620   Change is   -0.028816200187313
 Root     23 :    12.483109715367290   Change is   -0.037007136290049
 Root     24 :    12.658426631270550   Change is   -0.075979732997870
 Root     25 :    12.677389450024020   Change is   -0.035510242591359
 Root     26 :    12.929190574936360   Change is   -0.775824056512485
 Root     27 :    13.385557146288950   Change is   -0.035123413634812
 Root     28 :    13.489104446994000   Change is    0.046354051307857
 Root     29 :    13.656165918930310   Change is   -0.174988902320007
 Root     30 :    13.765419892536420   Change is   -0.476509538473159
 Root     31 :    13.895959853632270   Change is   -0.110021370667570
 Root     32 :    14.096197906030660   Change is   -0.031756985046090
 Root     33 :    14.234690943211200   Change is   -0.054060590444124
 Root     34 :    14.320343734013270   Change is   -0.081475512711410
 Root     35 :    14.558819329719780   Change is   -0.059582593465979
 Root     36 :    14.605033248526930   Change is   -0.085414981554408
 Root     37 :    14.638089955823280   Change is   -0.165344435563964
 Root     38 :    14.747927390856650   Change is   -0.088049528182668
 Root     39 :    14.807911242189710   Change is   -0.033156747864347
 Root     40 :    14.909454881647200   Change is   -0.039901883903400
 Root     41 :    14.920377985998000   Change is   -0.155929774487968
 Root     42 :    14.989607246640720   Change is   -0.090205227824504
 Root     43 :    15.136439108454890   Change is   -0.366248573576304
 Root     44 :    15.312632566195240   Change is   -0.066316483967355
 Root     45 :    15.358962673178470   Change is   -0.281750776847504
 Root     46 :    15.596690594507000   Change is   -0.152166530482555
 Root     47 :    15.688007395945540   Change is   -0.026553688162600
 Root     48 :    15.755415183444380   Change is   -0.098140764388999
 Root     49 :    15.863415836017420   Change is   -0.220226212990014
 Root     50 :    15.913625208888760   Change is   -0.051557110593550
 Root     51 :    16.001946209330350   Change is   -0.199659522567841
 Root     52 :    16.095614636322860   Change is   -0.170377888737403
 Root     53 :    16.188022594739400   Change is   -0.154624304876007
 Root     54 :    16.387172158276990   Change is   -0.730037569365465
 Root     55 :    16.435943237572740   Change is   -0.127033208052718
 Root     56 :    16.593296496025950   Change is   -0.065020283422158
 Root     57 :    16.718518850587060   Change is   -0.320047646431994
 Root     58 :    16.741993700374850   Change is   -1.095799471277064
 Root     59 :    16.842829767744960   Change is   -0.559823795457165
 Root     60 :    17.079378103542530   Change is   -2.145807289716766
 Iteration     3 Dimension   135 NMult   120 NNew     15
 CISAX will form    15 AO SS matrices at one time.
 NMat=    15 NSing=    15 JSym2X= 0.
 Root      1 not converged, maximum delta is    0.001952026281388
 Root      2 not converged, maximum delta is    0.001813785794327
 Root      3 not converged, maximum delta is    0.000168298186865
 Root      4 not converged, maximum delta is    0.000248266506333
 Root      5 not converged, maximum delta is    0.000268338209542
 Root      6 not converged, maximum delta is    0.002502910660755
 Root      7 not converged, maximum delta is    0.001780163006209
 Root      8 not converged, maximum delta is    0.001434823058384
 Root      9 not converged, maximum delta is    0.004630880805753
 Root     10 not converged, maximum delta is    0.004690582213616
 Root     11 not converged, maximum delta is    0.000284444462483
 Root     12 not converged, maximum delta is    0.000357408545621
 Root     13 not converged, maximum delta is    0.000489415682832
 Root     14 not converged, maximum delta is    0.000114532363014
 Root     15 not converged, maximum delta is    0.000415962256011
 Excitation Energies [eV] at current iteration:
 Root      1 :     7.340682320297863   Change is   -0.001455427868454
 Root      2 :     7.574429469338222   Change is   -0.001279567361054
 Root      3 :     8.781396474245282   Change is   -0.000016103129588
 Root      4 :     8.885498331097013   Change is   -0.000018674199598
 Root      5 :     9.405503355139965   Change is   -0.000020233467948
 Root      6 :     9.675594484084165   Change is   -0.002140892187940
 Root      7 :     9.827937150190548   Change is   -0.000090649027643
 Root      8 :     9.923011703299659   Change is   -0.000078167220569
 Root      9 :    10.055391091404420   Change is   -0.000463023786587
 Root     10 :    10.177168732549460   Change is   -0.003365280434042
 Root     11 :    10.511494828923450   Change is   -0.000016373481565
 Root     12 :    10.667752713664170   Change is   -0.000041521848334
 Root     13 :    10.735749732944690   Change is   -0.000041098743696
 Root     14 :    11.016448613858930   Change is   -0.000004878049837
 Root     15 :    11.160841211735260   Change is   -0.000031924733914
 Iteration     4 Dimension   150 NMult   135 NNew     15
 CISAX will form    15 AO SS matrices at one time.
 NMat=    15 NSing=    15 JSym2X= 0.
 Root      1 not converged, maximum delta is    0.000061162120414
 Root      2 not converged, maximum delta is    0.000044785636069
 Root      3 not converged, maximum delta is    0.000004371715694
 Root      4 not converged, maximum delta is    0.000002943048315
 Root      5 not converged, maximum delta is    0.000004715046694
 Root      6 not converged, maximum delta is    0.000082628331023
 Root      7 not converged, maximum delta is    0.000016364310950
 Root      8 not converged, maximum delta is    0.000014916522344
 Root      9 not converged, maximum delta is    0.000031383808221
 Root     10 not converged, maximum delta is    0.000085761523944
 Root     11 not converged, maximum delta is    0.000006614908970
 Root     12 not converged, maximum delta is    0.000014140494694
 Root     13 not converged, maximum delta is    0.000011513168528
 Root     14 not converged, maximum delta is    0.000003699814346
 Root     15 not converged, maximum delta is    0.000007875684315
 Excitation Energies [eV] at current iteration:
 Root      1 :     7.340680778380625   Change is   -0.000001541917238
 Root      2 :     7.574427918879223   Change is   -0.000001550458999
 Root      3 :     8.781396454670894   Change is   -0.000000019574389
 Root      4 :     8.885498324013579   Change is   -0.000000007083434
 Root      5 :     9.405503339636670   Change is   -0.000000015503294
 Root      6 :     9.675591149390945   Change is   -0.000003334693220
 Root      7 :     9.827937012116786   Change is   -0.000000138073762
 Root      8 :     9.923011599127204   Change is   -0.000000104172456
 Root      9 :    10.055390407456080   Change is   -0.000000683948341
 Root     10 :    10.177163596615230   Change is   -0.000005135934232
 Root     11 :    10.511494814170850   Change is   -0.000000014752600
 Root     12 :    10.667752652429800   Change is   -0.000000061234371
 Root     13 :    10.735749702307280   Change is   -0.000000030637407
 Root     14 :    11.016448610382460   Change is   -0.000000003476465
 Root     15 :    11.160841190684000   Change is   -0.000000021051254
 Iteration     5 Dimension   165 NMult   150 NNew     15
 CISAX will form    15 AO SS matrices at one time.
 NMat=    15 NSing=    15 JSym2X= 0.
 Root      1 not converged, maximum delta is    0.000001593458661
 Root      2 not converged, maximum delta is    0.000001495305236
 Root      3 has converged.
 Root      4 not converged, maximum delta is    0.000001010395716
 Root      5 has converged.
 Root      6 not converged, maximum delta is    0.000002954715252
 Root      7 has converged.
 Root      8 has converged.
 Root      9 not converged, maximum delta is    0.000001035973954
 Root     10 not converged, maximum delta is    0.000002719183927
 Root     11 has converged.
 Root     12 has converged.
 Root     13 has converged.
 Root     14 has converged.
 Root     15 has converged.
 Excitation Energies [eV] at current iteration:
 Root      1 :     7.340680777122743   Change is   -0.000000001257882
 Root      2 :     7.574427917555854   Change is   -0.000000001323369
 Root      3 :     8.781396454654256   Change is   -0.000000000016637
 Root      4 :     8.885498324009887   Change is   -0.000000000003690
 Root      5 :     9.405503339622570   Change is   -0.000000000014101
 Root      6 :     9.675591145702583   Change is   -0.000000003688362
 Root      7 :     9.827937011964757   Change is   -0.000000000152029
 Root      8 :     9.923011599008406   Change is   -0.000000000118798
 Root      9 :    10.055390406725880   Change is   -0.000000000730200
 Root     10 :    10.177163591431560   Change is   -0.000000005183669
 Root     11 :    10.511494814155270   Change is   -0.000000000015580
 Root     12 :    10.667752652366930   Change is   -0.000000000062871
 Root     13 :    10.735749702275370   Change is   -0.000000000031912
 Root     14 :    11.016448610379560   Change is   -0.000000000002902
 Root     15 :    11.160841190664130   Change is   -0.000000000019867
 Iteration     6 Dimension   170 NMult   165 NNew      5
 CISAX will form     5 AO SS matrices at one time.
 NMat=     5 NSing=     5 JSym2X= 0.
 Root      1 has converged.
 Root      2 has converged.
 Root      3 has converged.
 Root      4 has converged.
 Root      5 has converged.
 Root      6 has converged.
 Root      7 has converged.
 Root      8 has converged.
 Root      9 has converged.
 Root     10 has converged.
 Root     11 has converged.
 Root     12 has converged.
 Root     13 has converged.
 Root     14 has converged.
 Root     15 has converged.
 Excitation Energies [eV] at current iteration:
 Root      1 :     7.340680777122397   Change is   -0.000000000000346
 Root      2 :     7.574427917555335   Change is   -0.000000000000518
 Root      3 :     8.781396454654264   Change is    0.000000000000006
 Root      4 :     8.885498324009887   Change is   -0.000000000000002
 Root      5 :     9.405503339622548   Change is   -0.000000000000021
 Root      6 :     9.675591145699002   Change is   -0.000000000003581
 Root      7 :     9.827937011964595   Change is   -0.000000000000162
 Root      8 :     9.923011599008280   Change is   -0.000000000000125
 Root      9 :    10.055390406725220   Change is   -0.000000000000660
 Root     10 :    10.177163591426940   Change is   -0.000000000004613
 Root     11 :    10.511494814155290   Change is    0.000000000000015
 Root     12 :    10.667752652366910   Change is   -0.000000000000012
 Root     13 :    10.735749702275360   Change is   -0.000000000000012
 Root     14 :    11.016448610379560   Change is    0.000000000000000
 Root     15 :    11.160841190664120   Change is   -0.000000000000015
 Convergence achieved on expansion vectors.
 ***********************************************************************
 Excited states from <AA,BB:AA,BB> singles matrix:
 ***********************************************************************
 
 1PDM for each excited state written to RWF  633
 Ground to excited state transition densities written to RWF  633
 Ground to excited state transition electric dipole moments (Au):
       state          X           Y           Z        Dip. S.      Osc.
         1        -0.9148      0.1185     -0.0062      0.8510      0.1530
         2         0.5732     -0.2341      0.0041      0.3833      0.0711
         3        -0.0247     -0.0739     -0.0029      0.0061      0.0013
         4         0.0099     -0.0118     -0.1416      0.0203      0.0044
         5         0.0184      0.0265      0.0994      0.0109      0.0025
         6        -0.7339     -0.7011      0.0165      1.0305      0.2443
         7        -0.1337     -0.1493      0.0611      0.0439      0.0106
         8        -0.0632     -0.1745     -0.0277      0.0352      0.0086
         9        -0.0123     -0.4640     -0.0438      0.2174      0.0535
        10        -0.3286      1.2018     -0.0159      1.5525      0.3871
        11        -0.0048      0.0352     -0.0335      0.0024      0.0006
        12         0.0114     -0.0783     -0.0694      0.0111      0.0029
        13        -0.0197      0.0235     -0.0601      0.0045      0.0012
        14        -0.0013      0.0102     -0.0005      0.0001      0.0000
        15        -0.0016      0.0032     -0.1565      0.0245      0.0067
 Ground to excited state transition velocity dipole moments (Au):
       state          X           Y           Z        Dip. S.      Osc.
         1         0.0057     -0.0294      0.0007      0.0009      0.0022
         2        -0.0105     -0.0507      0.0000      0.0027      0.0064
         3         0.0010     -0.0041     -0.0096      0.0001      0.0002
         4        -0.0010      0.0002      0.0774      0.0060      0.0122
         5        -0.0016     -0.0012     -0.0047      0.0000      0.0000
         6         0.0766      0.0076      0.0053      0.0060      0.0112
         7         0.0153      0.0021     -0.0457      0.0023      0.0043
         8         0.0070      0.0051     -0.0073      0.0001      0.0002
         9        -0.0015      0.0144      0.0134      0.0004      0.0007
        10         0.0532     -0.0485      0.0032      0.0052      0.0093
        11         0.0005     -0.0017     -0.0554      0.0031      0.0053
        12        -0.0015      0.0044      0.0229      0.0005      0.0009
        13         0.0028     -0.0019      0.0350      0.0012      0.0021
        14         0.0012     -0.0039     -0.0056      0.0000      0.0001
        15        -0.0001     -0.0007     -0.0086      0.0001      0.0001
 Ground to excited state transition magnetic dipole moments (Au):
       state          X           Y           Z
         1        -0.0162      0.0076     -0.4219
         2         0.0048      0.0146      0.3278
         3         0.0603     -0.5270     -0.0053
         4        -1.5836      0.1093     -0.0087
         5         0.0337      0.1252      0.0118
         6         0.0402      0.0405      0.1429
         7         0.0093      0.1773      0.0366
         8        -0.3713     -0.1772      0.0239
         9        -0.0098     -0.0267     -0.0982
        10        -0.0653     -0.0711      0.2860
        11         0.1063     -0.0177     -0.0105
        12        -0.0199      0.4634     -0.0083
        13         0.1327     -0.0529      0.0136
        14         0.2723      0.2197     -0.0035
        15        -0.0033     -0.5684     -0.0224
 Ground to excited state transition velocity quadrupole moments (Au):
       state          XX          YY          ZZ          XY          XZ          YZ
         1        -0.0392     -0.0034      0.0208     -0.1598     -0.0005      0.0002
         2        -0.0135     -0.0305      0.0267      0.1643     -0.0015     -0.0004
         3        -0.0152      0.0072      0.0051      0.0058      0.0498      0.0058
         4        -0.0020      0.0023      0.0004      0.0023     -0.0027     -0.1985
         5         0.0114     -0.0047     -0.0034     -0.0029      0.2018      0.0260
         6        -0.1292      0.0825      0.0275      0.2909      0.0029      0.0125
         7        -0.0264      0.0165      0.0071      0.0631     -0.0187      0.0397
         8        -0.0353      0.0263      0.0071      0.0436     -0.0164     -0.0395
         9        -0.1119      0.0897      0.0223     -0.0195      0.0130     -0.1299
        10         0.3067     -0.2636     -0.0581      0.1911      0.0081     -0.0521
        11         0.0098     -0.0082     -0.0015      0.0029     -0.0160      0.0538
        12        -0.0159      0.0116      0.0054      0.0014     -0.0233     -0.0154
        13         0.0079     -0.0071      0.0004      0.0069      0.0252      0.1019
        14        -0.0113      0.0039      0.0050     -0.0008     -0.0155      0.0394
        15        -0.0029      0.0068     -0.0030      0.0000      0.0652     -0.0933
 <0|del|b> * <b|rxdel|0> + <0|del|b> * <b|delr+rdel|0>
 Rotatory Strengths (R) in cgs (10**-40 erg-esu-cm/Gauss)
       state          XX          YY          ZZ    R(velocity)    E-M Angle
         1        -0.8333     -0.3534     -0.3979     -0.5282       92.74
         2        -1.0375     -0.0595     -0.9126     -0.6699       92.67
         3         2.5691      0.1912      2.1908      1.6504       65.98
         4        -0.5137      1.0107      1.5231      0.6734       89.56
         5         0.0490     -0.1687     -0.4036     -0.1745      112.83
         6         2.5566      3.2397      2.4332      2.7431       69.60
         7        -4.0703      1.9239     -0.1348     -0.7604       97.65
         8        -1.2706     -2.6490     -3.2075     -2.3757      142.05
         9        -2.0580     -0.8034     -0.3660     -1.0758      146.64
        10         5.0598     -5.6230      2.2269      0.5546       87.68
        11         0.3885      0.7461      0.0740      0.4028       83.69
        12         1.7857     -0.1514      1.7497      1.1280       80.03
        13         0.7724      0.8087      0.1246      0.5685       79.12
        14        -0.7710      0.3375     -0.4455     -0.2930      102.03
        15         0.5278      0.1788      0.2761      0.3276       83.33
 1/2[<0|r|b>*<b|rxdel|0> + (<0|rxdel|b>*<b|r|0>)*]
 Rotatory Strengths (R) in cgs (10**-40 erg-esu-cm/Gauss)
       state          XX          YY          ZZ     R(length)
         1       -10.4772     -0.6391     -1.8415     -4.3193
         2        -1.9376      2.4173     -0.9550     -0.1585
         3         1.0518    -27.5404     -0.0108     -8.8331
         4        11.0697      0.9160     -0.8712      3.7048
         5        -0.4375     -2.3502     -0.8301     -1.2059
         6        20.8387     20.0724     -1.6624     13.0829
         7         0.8801     18.7212     -1.5806      6.0069
         8       -16.5863    -21.8689      0.4678    -12.6625
         9        -0.0854     -8.7594     -3.0390     -3.9612
        10       -15.1751     60.4515      3.2189     16.1651
        11         0.3614      0.4397     -0.2487      0.1842
        12         0.1603     25.6684     -0.4065      8.4741
        13         1.8444      0.8798      0.5785      1.1009
        14         0.2441     -1.5853     -0.0012     -0.4474
        15        -0.0037      1.2850     -2.4809     -0.3999
  1/2[<0|del|b>*<b|r|0> + (<0|r|b>*<b|del|0>)*] (Au)
       state          X           Y           Z        Dip. S.   Osc.(frdel)
         1        -0.0052     -0.0035      0.0000      0.0087      0.0058
         2        -0.0060      0.0119      0.0000     -0.0059     -0.0039
         3         0.0000      0.0003      0.0000     -0.0003     -0.0002
         4         0.0000      0.0000     -0.0110      0.0110      0.0073
         5         0.0000      0.0000     -0.0005      0.0005      0.0003
         6        -0.0562     -0.0054      0.0001      0.0615      0.0410
         7        -0.0020     -0.0003     -0.0028      0.0051      0.0034
         8        -0.0004     -0.0009      0.0002      0.0011      0.0008
         9         0.0000     -0.0067     -0.0006      0.0073      0.0048
        10        -0.0175     -0.0583     -0.0001      0.0758      0.0505
        11         0.0000     -0.0001      0.0019     -0.0018     -0.0012
        12         0.0000     -0.0003     -0.0016      0.0020      0.0013
        13        -0.0001      0.0000     -0.0021      0.0022      0.0015
        14         0.0000      0.0000      0.0000      0.0000      0.0000
        15         0.0000      0.0000      0.0013     -0.0013     -0.0009

 Excitation energies and oscillator strengths:
 
 Excited State   1:      Singlet-A      7.3407 eV  168.90 nm  f=0.1530  <S**2>=0.000
      17 -> 19         0.31911
      18 -> 19         0.57207
      18 -> 20         0.21011
 This state for optimization and/or second-order correction.
 Total Energy, E(CIS) =  -228.470815696    
 Copying the excited state density for this state as the 1-particle RhoCI density.
 
 Excited State   2:      Singlet-A      7.5744 eV  163.69 nm  f=0.0711  <S**2>=0.000
      17 -> 19         0.42872
      18 -> 19        -0.36989
      18 -> 20         0.40316
 
 Excited State   3:      Singlet-A      8.7814 eV  141.19 nm  f=0.0013  <S**2>=0.000
      18 -> 21         0.68650
      18 -> 22        -0.12680
 
 Excited State   4:      Singlet-A      8.8855 eV  139.54 nm  f=0.0044  <S**2>=0.000
      16 -> 19         0.69942
 
 Excited State   5:      Singlet-A      9.4055 eV  131.82 nm  f=0.0025  <S**2>=0.000
      18 -> 21         0.12467
      18 -> 22         0.68181
 
 Excited State   6:      Singlet-A      9.6756 eV  128.14 nm  f=0.2443  <S**2>=0.000
      17 -> 19         0.26956
      17 -> 20         0.51243
      17 -> 21        -0.12499
      18 -> 20        -0.31624
 
 Excited State   7:      Singlet-A      9.8279 eV  126.15 nm  f=0.0106  <S**2>=0.000
      15 -> 19        -0.34499
      17 -> 21         0.24932
      18 -> 23         0.53338
 
 Excited State   8:      Singlet-A      9.9230 eV  124.95 nm  f=0.0086  <S**2>=0.000
      15 -> 19         0.55033
      17 -> 21         0.38771
      18 -> 23         0.15278
 
 Excited State   9:      Singlet-A     10.0554 eV  123.30 nm  f=0.0535  <S**2>=0.000
      15 -> 19        -0.24443
      17 -> 19         0.12098
      17 -> 20        -0.10777
      17 -> 21         0.46420
      18 -> 20        -0.14895
      18 -> 23        -0.38429
 
 Excited State  10:      Singlet-A     10.1772 eV  121.83 nm  f=0.3871  <S**2>=0.000
      17 -> 19        -0.27663
      17 -> 20         0.42999
      17 -> 21         0.19871
      18 -> 20         0.34993
      18 -> 23        -0.11018
 
 Excited State  11:      Singlet-A     10.5115 eV  117.95 nm  f=0.0006  <S**2>=0.000
      17 -> 22         0.68135
 
 Excited State  12:      Singlet-A     10.6678 eV  116.22 nm  f=0.0029  <S**2>=0.000
      14 -> 19         0.55967
      16 -> 20        -0.33653
      18 -> 24        -0.22330
 
 Excited State  13:      Singlet-A     10.7357 eV  115.49 nm  f=0.0012  <S**2>=0.000
      14 -> 19         0.19463
      16 -> 20        -0.10280
      18 -> 24         0.65483
 
 Excited State  14:      Singlet-A     11.0164 eV  112.54 nm  f=0.0000  <S**2>=0.000
      12 -> 19         0.12306
      13 -> 19        -0.17213
      14 -> 19         0.32738
      16 -> 20         0.57870
 
 Excited State  15:      Singlet-A     11.1608 eV  111.09 nm  f=0.0067  <S**2>=0.000
      13 -> 19         0.11307
      18 -> 25         0.66528
 SavETr:  write IOETrn=   770 NScale= 10 NData=  16 NLR=1 NState=   15 LETran=     280.
 The selected state is a singlet
 CISAX will form     1 AO SS matrices at one time.
 NMat=     1 NSing=     1 JSym2X= 0.
 CISAX will form     1 AO SS matrices at one time.
 NMat=     1 NSing=     1 JSym2X= 0.
 Leave Link  914 at Tue Dec 15 16:13:35 2015, MaxMem=    33554432 cpu:        32.3
 (Enter /home/Applications/g09/g09/l1002.exe)
 Minotr:  Closed shell wavefunction.
          Computing CIS/TD-HF/TD-KS derivatives.
          Using Z-Vector for PSCF gradient.
          Skipping F1 and S1 gradient terms here.
          IDoAtm=111111111
          Frozen-core window.
          Direct CPHF calculation.
          Differentiating once with respect to electric field.
                with respect to dipole field.
          Differentiating once with respect to nuclear coordinates.
          Requested convergence is 1.0D-10 RMS, and 1.0D-09 maximum.
          NewPWx=F KeepS1=T KeepF1=T KeepIn=T MapXYZ=F SortEE=F KeepMc=T.
          MDV=      33554290 using IRadAn=       0.
 Using stored XC quadrature information.
 Keep R1 ints in memory in canonical form, NReq=1898913.
 FoFCou: FMM=F IPFlag=           0 FMFlag=           0 FMFlg1=           0
         NFxFlg=           0 DoJE=F BraDBF=F KetDBF=F FulRan=T
         wScrn=  0.000000 ICntrl=     600 IOpCl=  0 I1Cent=           0 NGrid=           0
         NMat0=    1 NMatS0=   1431 NMatT0=    0 NMatD0=    1 NMtDS0=    0 NMtDT0=    0
 Symmetry not used in FoFCou.
          Solving linear equations separately, MaxMat=       0.
          There are     1 degrees of freedom in the 1st order CPHF.  IDoFFX=0 NUNeed=     1.
 LinEq1:  Iter=  0 NonCon=     1 RMS=4.62D-02 Max=7.36D-01 NDo=     1
 AX will form     1 AO Fock derivatives at one time.
 LinEq1:  Iter=  1 NonCon=     1 RMS=1.96D-02 Max=3.31D-01 NDo=     1
 LinEq1:  Iter=  2 NonCon=     1 RMS=1.53D-02 Max=2.27D-01 NDo=     1
 LinEq1:  Iter=  3 NonCon=     1 RMS=6.12D-03 Max=8.06D-02 NDo=     1
 LinEq1:  Iter=  4 NonCon=     1 RMS=4.36D-03 Max=4.43D-02 NDo=     1
 LinEq1:  Iter=  5 NonCon=     1 RMS=1.35D-03 Max=1.78D-02 NDo=     1
 LinEq1:  Iter=  6 NonCon=     1 RMS=8.22D-04 Max=4.86D-03 NDo=     1
 LinEq1:  Iter=  7 NonCon=     1 RMS=1.63D-04 Max=9.12D-04 NDo=     1
 LinEq1:  Iter=  8 NonCon=     1 RMS=3.75D-05 Max=2.67D-04 NDo=     1
 LinEq1:  Iter=  9 NonCon=     1 RMS=1.22D-05 Max=7.27D-05 NDo=     1
 LinEq1:  Iter= 10 NonCon=     1 RMS=1.26D-06 Max=7.95D-06 NDo=     1
 LinEq1:  Iter= 11 NonCon=     1 RMS=1.49D-07 Max=9.48D-07 NDo=     1
 LinEq1:  Iter= 12 NonCon=     1 RMS=1.67D-08 Max=1.02D-07 NDo=     1
 LinEq1:  Iter= 13 NonCon=     1 RMS=2.44D-09 Max=1.31D-08 NDo=     1
 LinEq1:  Iter= 14 NonCon=     1 RMS=3.03D-10 Max=2.07D-09 NDo=     1
 LinEq1:  Iter= 15 NonCon=     0 RMS=3.11D-11 Max=1.88D-10 NDo=     1
 Linear equations converged to 1.000D-10 1.000D-09 after    15 iterations.
 End of Minotr F.D. properties file   721 does not exist.
 End of Minotr F.D. properties file   722 does not exist.
 End of Minotr F.D. properties file   788 does not exist.
 Leave Link 1002 at Tue Dec 15 16:13:44 2015, MaxMem=    33554432 cpu:         9.5
 (Enter /home/Applications/g09/g09/l601.exe)
 Copying SCF densities to generalized density rwf, IOpCl= 0 IROHF=0.

 **********************************************************************

            Population analysis using the SCF density.

 **********************************************************************

 Orbital symmetries:
       Occupied  (A) (A) (A) (A) (A) (A) (A) (A) (A) (A) (A) (A)
                 (A) (A) (A) (A) (A) (A)
       Virtual   (A) (A) (A) (A) (A) (A) (A) (A) (A) (A) (A) (A)
                 (A) (A) (A) (A) (A) (A) (A) (A) (A) (A) (A) (A)
                 (A) (A) (A) (A) (A) (A) (A) (A) (A) (A) (A)
 The electronic state is 1-A.
 Alpha  occ. eigenvalues --  -19.10816 -10.17463 -10.16558 -10.12083 -10.11683
 Alpha  occ. eigenvalues --   -1.12323  -0.81314  -0.75129  -0.60508  -0.57522
 Alpha  occ. eigenvalues --   -0.54515  -0.44806  -0.44533  -0.42803  -0.39657
 Alpha  occ. eigenvalues --   -0.36257  -0.27985  -0.23593
 Alpha virt. eigenvalues --    0.02294   0.09155   0.13441   0.15146   0.17746
 Alpha virt. eigenvalues --    0.19767   0.21936   0.23355   0.36102   0.43607
 Alpha virt. eigenvalues --    0.48206   0.67767   0.69823   0.71114   0.76208
 Alpha virt. eigenvalues --    0.76757   0.79205   0.79696   0.82485   0.84218
 Alpha virt. eigenvalues --    0.93202   1.00467   1.01527   1.05142   1.19563
 Alpha virt. eigenvalues --    1.23035   1.35061   1.37430   1.50386   1.56797
 Alpha virt. eigenvalues --    1.63260   1.74420   1.97393   2.14643   3.18815
     Molecular Orbital Coefficients:
                           1         2         3         4         5
                           O         O         O         O         O
     Eigenvalues --   -19.10816 -10.17463 -10.16558 -10.12083 -10.11683
   1 1   C  1S          0.00014  -0.00005  -0.00706  -0.14997   0.97454
   2        2S          0.00058   0.00009  -0.00612  -0.02087   0.10900
   3        2PX         0.00120  -0.00009   0.00176  -0.00133   0.00088
   4        2PY         0.00073   0.00049   0.00347   0.00074  -0.00211
   5        2PZ         0.00001   0.00000  -0.00001  -0.00001  -0.00001
   6        3S         -0.00557  -0.02165   0.04251   0.05570  -0.10614
   7        3PX        -0.00518  -0.00159  -0.00543   0.02296  -0.01352
   8        3PY         0.00773   0.01292  -0.02140  -0.01533   0.03004
   9        3PZ        -0.00008  -0.00005   0.00009   0.00010  -0.00007
  10 2   C  1S         -0.00040  -0.02412   0.98508  -0.00049   0.00657
  11        2S         -0.00043  -0.00598   0.10719   0.00009  -0.00505
  12        2PX         0.00196  -0.00118   0.00270   0.00009  -0.00145
  13        2PY        -0.00185  -0.00047  -0.00020  -0.00060  -0.00316
  14        2PZ         0.00000   0.00001   0.00002   0.00000   0.00002
  15        3S          0.01952   0.02179  -0.07957  -0.01617   0.04749
  16        3PX         0.01563   0.01902  -0.01140  -0.00711   0.01977
  17        3PY        -0.00248   0.01221  -0.01825  -0.00385   0.02169
  18        3PZ        -0.00004  -0.00013   0.00004   0.00004  -0.00013
  19 3   O  1S          0.98279   0.00019   0.00030   0.00007   0.00009
  20        2S          0.10787   0.00160   0.00200   0.00034   0.00037
  21        2PX         0.00014   0.00079  -0.00038   0.00004   0.00003
  22        2PY         0.00432   0.00079   0.00061  -0.00007  -0.00010
  23        2PZ         0.00000   0.00000   0.00001   0.00000   0.00000
  24        3S         -0.06111   0.00004  -0.00073  -0.00305  -0.00466
  25        3PX        -0.00013  -0.00055   0.00090  -0.00277   0.00150
  26        3PY        -0.01414  -0.00342  -0.00360  -0.00123  -0.00235
  27        3PZ        -0.00001   0.00001  -0.00004   0.00000   0.00000
  28 4   C  1S         -0.00051   0.98521   0.02299   0.00993   0.00174
  29        2S         -0.00090   0.10650  -0.00076  -0.00317  -0.00093
  30        2PX        -0.00176  -0.00225   0.00112   0.00081   0.00007
  31        2PY        -0.00150  -0.00005  -0.00063  -0.00162  -0.00135
  32        2PZ        -0.00001  -0.00004  -0.00002  -0.00001   0.00000
  33        3S          0.01629  -0.07436   0.01382   0.03968  -0.00288
  34        3PX        -0.01593   0.00884  -0.01601  -0.01572   0.00167
  35        3PY         0.00168  -0.01686   0.01161   0.01971   0.00120
  36        3PZ         0.00005   0.00008   0.00015   0.00007   0.00002
  37 5   C  1S          0.00017  -0.01040  -0.00083   0.97459   0.14946
  38        2S          0.00077  -0.00515  -0.00030   0.10970   0.01288
  39        2PX        -0.00112  -0.00107   0.00016  -0.00124   0.00103
  40        2PY         0.00086   0.00247   0.00060  -0.00140   0.00031
  41        2PZ        -0.00001   0.00001  -0.00001   0.00004   0.00003
  42        3S         -0.00520   0.03600  -0.01497  -0.10788   0.02183
  43        3PX         0.00578   0.00196   0.00282   0.02362  -0.01872
  44        3PY         0.00718  -0.01948   0.01015   0.02714  -0.00627
  45        3PZ         0.00009  -0.00005   0.00002   0.00002  -0.00016
  46 6   H  1S         -0.00100  -0.00108  -0.00045  -0.00450  -0.00084
  47        2S         -0.00348   0.00215  -0.00161   0.00405   0.00622
  48 7   H  1S          0.00056  -0.00372   0.00134  -0.00016  -0.00013
  49        2S          0.00461   0.00898   0.00814   0.00552   0.00076
  50 8   H  1S         -0.00008   0.00156  -0.00379  -0.00001  -0.00020
  51        2S          0.00340   0.00791   0.00860  -0.00080   0.00649
  52 9   H  1S         -0.00102  -0.00044  -0.00108   0.00021  -0.00329
  53        2S         -0.00305  -0.00164   0.00215   0.00369   0.00427
                           6         7         8         9        10
                           O         O         O         O         O
     Eigenvalues --    -1.12323  -0.81314  -0.75129  -0.60508  -0.57522
   1 1   C  1S         -0.03216   0.15431   0.06735   0.08559   0.05363
   2        2S          0.03212  -0.16551  -0.07444  -0.08688  -0.05184
   3        2PX         0.00796  -0.05090   0.07603   0.11612  -0.13462
   4        2PY        -0.03967   0.07540   0.07622   0.05724  -0.09707
   5        2PZ         0.00006  -0.00016  -0.00003   0.00115   0.00059
   6        3S          0.05703  -0.30260  -0.11948  -0.30421  -0.18556
   7        3PX         0.02708  -0.01961  -0.01458   0.02465  -0.05630
   8        3PY        -0.04215   0.03290  -0.01264   0.05904  -0.01786
   9        3PZ         0.00038   0.00000   0.00016   0.00033   0.00002
  10 2   C  1S         -0.08340   0.06338   0.14422  -0.00805  -0.10409
  11        2S          0.09262  -0.07493  -0.15646   0.00371   0.11481
  12        2PX         0.08628  -0.02558  -0.01831   0.00788  -0.14087
  13        2PY        -0.04077  -0.14353  -0.00628  -0.23739  -0.01241
  14        2PZ        -0.00008   0.00029  -0.00016   0.00136   0.00112
  15        3S          0.05922  -0.09382  -0.35838   0.08510   0.33356
  16        3PX        -0.04329  -0.01550  -0.02406   0.02053  -0.07712
  17        3PY        -0.00634  -0.03551  -0.03993  -0.06777   0.00617
  18        3PZ         0.00022   0.00012   0.00000   0.00057   0.00076
  19 3   O  1S         -0.20878  -0.09310  -0.00421  -0.00673   0.04877
  20        2S          0.18923   0.08965   0.00321   0.00828  -0.04889
  21        2PX        -0.00172  -0.00233   0.19564  -0.25732  -0.03890
  22        2PY         0.11357  -0.01945  -0.01653   0.00764  -0.01149
  23        2PZ        -0.00002   0.00006  -0.00041   0.00126  -0.00024
  24        3S          0.66694   0.33517   0.01723   0.02554  -0.20975
  25        3PX         0.00242  -0.00029   0.16203  -0.22394  -0.03563
  26        3PY         0.14473  -0.00060  -0.00986   0.00349  -0.01539
  27        3PZ         0.00000   0.00003  -0.00037   0.00124  -0.00015
  28 4   C  1S         -0.06861   0.04668  -0.14778   0.03649  -0.10957
  29        2S          0.07699  -0.05503   0.15830  -0.03511   0.12112
  30        2PX        -0.07887   0.00223  -0.02492   0.04929   0.16171
  31        2PY        -0.01993  -0.11210   0.01321   0.18270   0.01382
  32        2PZ        -0.00004   0.00006  -0.00078   0.00147  -0.00239
  33        3S          0.05887  -0.06026   0.36064  -0.15768   0.33593
  34        3PX         0.03837   0.00706  -0.02182   0.04200   0.09081
  35        3PY        -0.01526  -0.02888   0.03728   0.03969   0.01187
  36        3PZ        -0.00031  -0.00003  -0.00045   0.00060  -0.00167
  37 5   C  1S         -0.02768   0.13931  -0.08349  -0.11908   0.03434
  38        2S          0.02669  -0.14890   0.08948   0.12088  -0.03456
  39        2PX        -0.01279   0.06681   0.05301   0.09680   0.14277
  40        2PY        -0.03106   0.04682  -0.07029   0.03542  -0.10975
  41        2PZ         0.00006  -0.00066   0.00062   0.00328  -0.00071
  42        3S          0.04390  -0.27715   0.17374   0.40980  -0.10755
  43        3PX        -0.02728   0.02434  -0.01849   0.01859   0.06011
  44        3PY        -0.03662   0.03469   0.00313  -0.02249  -0.03465
  45        3PZ        -0.00039  -0.00033   0.00041   0.00179  -0.00018
  46 6   H  1S          0.00830  -0.05983   0.04861   0.14080  -0.02526
  47        2S          0.01667  -0.01374   0.01254   0.07456  -0.01517
  48 7   H  1S          0.01113  -0.01391   0.08462  -0.04860   0.16418
  49        2S         -0.02425  -0.00455   0.03091  -0.03614   0.08131
  50 8   H  1S          0.01695  -0.01533  -0.08574   0.04700   0.15579
  51        2S         -0.02130  -0.00229  -0.03123   0.03443   0.07591
  52 9   H  1S          0.00794  -0.05510  -0.03131  -0.06865  -0.04715
  53        2S          0.01514  -0.01063  -0.00503  -0.04160  -0.03147
                          11        12        13        14        15
                           O         O         O         O         O
     Eigenvalues --    -0.54515  -0.44806  -0.44533  -0.42803  -0.39657
   1 1   C  1S         -0.05926   0.02557  -0.03703  -0.01206  -0.00508
   2        2S          0.05581  -0.02714   0.03975   0.00738   0.00953
   3        2PX        -0.06435  -0.02754   0.03517   0.11343   0.31144
   4        2PY         0.20668  -0.03878   0.04539   0.23798  -0.14131
   5        2PZ        -0.00144   0.11021   0.07485  -0.00014   0.00432
   6        3S          0.26755  -0.08564   0.12352   0.08361   0.03921
   7        3PX        -0.05654  -0.01293   0.01850   0.02841   0.20998
   8        3PY         0.10006  -0.03246   0.04046   0.11284  -0.12615
   9        3PZ        -0.00149   0.07656   0.05229   0.00010   0.00345
  10 2   C  1S          0.01428  -0.01757   0.02377   0.03282  -0.01746
  11        2S         -0.01716   0.01766  -0.02346  -0.04304   0.01841
  12        2PX        -0.16047  -0.13358   0.20139  -0.17521  -0.06982
  13        2PY        -0.04027   0.03945  -0.04497  -0.21752  -0.01069
  14        2PZ         0.00053   0.17298   0.11940   0.00770   0.00202
  15        3S         -0.03281   0.05987  -0.08172  -0.11425   0.04329
  16        3PX        -0.11510  -0.08831   0.13275  -0.12379  -0.05779
  17        3PY        -0.08516   0.01696  -0.01794  -0.14744  -0.05605
  18        3PZ         0.00094   0.15722   0.10957   0.00709   0.00120
  19 3   O  1S         -0.05371  -0.00042   0.00075   0.00827   0.00370
  20        2S          0.05245  -0.00056   0.00061  -0.00588   0.00037
  21        2PX         0.03755   0.15254  -0.21564  -0.02654   0.04557
  22        2PY        -0.17585  -0.01170   0.01915  -0.03799  -0.14165
  23        2PZ         0.00001   0.30111   0.21227   0.01258  -0.00256
  24        3S          0.20843   0.00229  -0.00374  -0.04763  -0.04579
  25        3PX         0.03446   0.14435  -0.20381  -0.03258   0.04798
  26        3PY        -0.15916  -0.00972   0.01622  -0.03847  -0.14726
  27        3PZ         0.00003   0.30215   0.21357   0.01272  -0.00267
  28 4   C  1S          0.01131   0.01331  -0.01861  -0.03683   0.02114
  29        2S         -0.01605  -0.01395   0.01955   0.04319  -0.02667
  30        2PX         0.10868  -0.15025   0.22174  -0.08040   0.08050
  31        2PY        -0.13740   0.01840  -0.03618   0.13192  -0.18696
  32        2PZ        -0.00047   0.14616   0.09765   0.00381  -0.00366
  33        3S          0.00003  -0.04173   0.05786   0.12326  -0.08529
  34        3PX         0.07358  -0.10120   0.14790  -0.06027   0.05831
  35        3PY        -0.11110   0.01547  -0.02615   0.07621  -0.16282
  36        3PZ        -0.00097   0.13808   0.09411   0.00437  -0.00317
  37 5   C  1S         -0.02786  -0.02069   0.03134   0.00049  -0.02450
  38        2S          0.02503   0.02223  -0.03406   0.00378   0.02537
  39        2PX         0.04520   0.05031  -0.06715  -0.19699  -0.27312
  40        2PY         0.20888   0.01201  -0.00747  -0.23291   0.11907
  41        2PZ         0.00242   0.09606   0.06271  -0.00485  -0.00151
  42        3S          0.12828   0.06828  -0.10328  -0.00866   0.10879
  43        3PX         0.05338   0.03262  -0.04078  -0.15012  -0.15246
  44        3PY         0.11561   0.01933  -0.02012  -0.13574   0.04654
  45        3PZ         0.00241   0.07119   0.04679  -0.00334  -0.00099
  46 6   H  1S          0.12237   0.05393  -0.06924  -0.21206  -0.03225
  47        2S          0.05894   0.03295  -0.04381  -0.17324  -0.03174
  48 7   H  1S          0.06892  -0.11190   0.16444  -0.04180   0.09332
  49        2S          0.02926  -0.08489   0.12831  -0.03883   0.08471
  50 8   H  1S          0.06804   0.09075  -0.13598   0.12920   0.08351
  51        2S          0.02350   0.06695  -0.10272   0.11054   0.06830
  52 9   H  1S          0.15121  -0.04069   0.05307   0.10674  -0.19972
  53        2S          0.08680  -0.02705   0.03567   0.09556  -0.18553
                          16        17        18        19        20
                           O         O         O         V         V
     Eigenvalues --    -0.36257  -0.27985  -0.23593   0.02294   0.09155
   1 1   C  1S          0.02415   0.00092  -0.00009  -0.00009  -0.00285
   2        2S         -0.02567  -0.00104   0.00026  -0.00018   0.00122
   3        2PX         0.06354   0.00087   0.00415   0.00105  -0.00690
   4        2PY         0.14377  -0.00537  -0.00116  -0.00127   0.01307
   5        2PZ        -0.00029  -0.29342  -0.18169  -0.10444   0.36256
   6        3S         -0.16955  -0.00201  -0.00015   0.00240   0.03241
   7        3PX         0.09444   0.00262   0.00225   0.00878  -0.01251
   8        3PY         0.10527  -0.00463  -0.00146  -0.00033   0.03406
   9        3PZ         0.00025  -0.30295  -0.18590  -0.18899   0.76002
  10 2   C  1S         -0.02317  -0.00093  -0.00037  -0.00065  -0.00171
  11        2S          0.02731   0.00124   0.00033   0.00067   0.00090
  12        2PX         0.00624   0.00019  -0.00170   0.00330  -0.01114
  13        2PY        -0.18133   0.00207  -0.00304   0.00167   0.00136
  14        2PZ         0.00111  -0.08251  -0.31194   0.28044  -0.27160
  15        3S          0.11092   0.00312   0.00115   0.00616   0.03090
  16        3PX        -0.00291  -0.00076  -0.00127   0.00558  -0.02458
  17        3PY         0.02724   0.00123  -0.00344   0.00500   0.00829
  18        3PZ         0.00020  -0.03177  -0.32414   0.42354  -0.55091
  19 3   O  1S          0.07164   0.00002   0.00085  -0.00012  -0.00285
  20        2S         -0.07227  -0.00004  -0.00078  -0.00005   0.00174
  21        2PX         0.06397   0.00290  -0.00084   0.00059   0.00031
  22        2PY         0.41702   0.00080  -0.00107   0.00092   0.00928
  23        2PZ        -0.00159   0.32551   0.00039  -0.28070   0.05559
  24        3S         -0.26752   0.00008  -0.00470   0.00162   0.02457
  25        3PX         0.06613   0.00322  -0.00060   0.00156   0.00043
  26        3PY         0.44916   0.00090  -0.00111   0.00137   0.01565
  27        3PZ        -0.00169   0.36727   0.00349  -0.39170   0.08528
  28 4   C  1S         -0.01738   0.00104  -0.00130  -0.00062  -0.00179
  29        2S          0.02107  -0.00135   0.00156  -0.00002   0.00068
  30        2PX        -0.05353  -0.00016   0.00256   0.00591   0.00897
  31        2PY        -0.20212  -0.00284  -0.00271  -0.00271   0.00089
  32        2PZ        -0.00165  -0.05123   0.33631   0.35124   0.15750
  33        3S          0.07546  -0.00301   0.00299   0.00847   0.03170
  34        3PX        -0.02046  -0.00087   0.00383   0.01195   0.01737
  35        3PY        -0.01738  -0.00085  -0.00432  -0.00473   0.01006
  36        3PZ        -0.00119  -0.00994   0.35889   0.54227   0.32889
  37 5   C  1S          0.02229  -0.00148   0.00087  -0.00077  -0.00371
  38        2S         -0.02175   0.00168  -0.00107   0.00042   0.00238
  39        2PX        -0.04474   0.00359  -0.00538   0.00372   0.00527
  40        2PY         0.17940   0.00632  -0.00183   0.00491   0.01179
  41        2PZ         0.00144  -0.27315   0.20964  -0.23437  -0.29967
  42        3S         -0.15355   0.00362  -0.00108   0.00524   0.03630
  43        3PX        -0.07158   0.00467  -0.00565   0.01307   0.01729
  44        3PY         0.13124   0.00584  -0.00448   0.00833   0.03534
  45        3PZ         0.00035  -0.28214   0.22741  -0.40563  -0.61961
  46 6   H  1S          0.05903   0.00227  -0.00043  -0.00386  -0.01106
  47        2S          0.08261   0.00301  -0.00027  -0.01128  -0.05916
  48 7   H  1S          0.06544  -0.00021   0.00056  -0.00362  -0.00394
  49        2S          0.07145   0.00042   0.00069  -0.01203  -0.02755
  50 8   H  1S          0.08533   0.00018   0.00077   0.00081  -0.00467
  51        2S          0.08477  -0.00035   0.00144   0.00136  -0.03675
  52 9   H  1S          0.04135  -0.00221  -0.00028  -0.00004  -0.01015
  53        2S          0.06736  -0.00287  -0.00094   0.00031  -0.06014
                          21        22        23        24        25
                           V         V         V         V         V
     Eigenvalues --     0.13441   0.15146   0.17746   0.19767   0.21936
   1 1   C  1S          0.05431  -0.02286  -0.05277  -0.09378   0.01776
   2        2S         -0.03059   0.02085   0.05107   0.07799   0.00119
   3        2PX         0.09782   0.02040   0.08072  -0.08587  -0.20478
   4        2PY        -0.19745   0.02915  -0.02768   0.13609  -0.03758
   5        2PZ         0.02496  -0.00229  -0.00027  -0.00115  -0.00092
   6        3S         -0.66358   0.11585   0.28295   0.85532  -0.30252
   7        3PX         0.29970   0.05327   0.18499  -0.55966  -1.06080
   8        3PY        -0.56854   0.18918   0.19922   0.80945  -0.19917
   9        3PZ         0.06504  -0.00455  -0.00240  -0.00094  -0.00531
  10 2   C  1S          0.02294   0.07618   0.04652   0.04884   0.10205
  11        2S         -0.00915  -0.05678  -0.03127  -0.05351  -0.06732
  12        2PX         0.19235  -0.00882   0.23606  -0.01559   0.06540
  13        2PY        -0.01363   0.12862   0.05196  -0.02295   0.09836
  14        2PZ        -0.01579  -0.00092  -0.00303   0.00004  -0.00077
  15        3S         -0.51426  -0.67899  -0.58412  -0.23935  -1.45644
  16        3PX         0.41510   0.18016   0.91439   0.30459   0.34555
  17        3PY        -0.06903   0.50939   0.26955  -0.07315   0.13449
  18        3PZ        -0.04032  -0.00322  -0.00893  -0.00138  -0.00111
  19 3   O  1S          0.04145  -0.09778  -0.01226   0.01537   0.02386
  20        2S         -0.02766   0.06969   0.00793  -0.00888  -0.00865
  21        2PX         0.01096   0.10637   0.07252  -0.09337  -0.27156
  22        2PY        -0.11713   0.13935   0.02250  -0.01562   0.01543
  23        2PZ         0.00210  -0.00115   0.00276  -0.00068  -0.00054
  24        3S         -0.35142   0.80259   0.10544  -0.15095  -0.26424
  25        3PX         0.01256   0.16408   0.16102  -0.10235  -0.55472
  26        3PY        -0.21744   0.22574   0.02574  -0.05052  -0.02397
  27        3PZ         0.00337  -0.00197   0.00528  -0.00218  -0.00004
  28 4   C  1S          0.02663   0.12931  -0.03963  -0.03463  -0.04328
  29        2S         -0.01863  -0.09559   0.02608   0.04466   0.03855
  30        2PX        -0.11343   0.04356   0.27257  -0.12473  -0.18042
  31        2PY        -0.02572   0.21237  -0.04179   0.00794  -0.13690
  32        2PZ         0.01195   0.00386  -0.00695   0.00311   0.00216
  33        3S         -0.41513  -1.24848   0.64848  -0.01984   0.33582
  34        3PX        -0.24782  -0.17923   0.92033  -0.01193  -0.53128
  35        3PY        -0.10763   0.65233  -0.18669  -0.03325  -0.40305
  36        3PZ         0.03182   0.01174  -0.02078   0.01261   0.00068
  37 5   C  1S          0.04090  -0.01451   0.03789   0.09844  -0.08635
  38        2S         -0.02343   0.02846  -0.03640  -0.08151   0.03111
  39        2PX        -0.03388   0.00622   0.10826  -0.08108  -0.00687
  40        2PY        -0.12666  -0.01939   0.06791  -0.13926   0.10164
  41        2PZ        -0.02309   0.00207   0.00470  -0.01008   0.00116
  42        3S         -0.56043  -0.06647  -0.17160  -1.02555   1.52916
  43        3PX        -0.13458   0.21498   0.27533  -0.62938  -0.33881
  44        3PY        -0.36331   0.06067   0.01976  -0.85176   0.38708
  45        3PZ        -0.06152   0.00337   0.01483  -0.03477   0.00812
  46 6   H  1S          0.07510  -0.04222  -0.02150   0.06122   0.05076
  47        2S          0.85685  -0.23897  -0.23204   1.71276  -0.73738
  48 7   H  1S          0.02289   0.08786  -0.06162  -0.01387   0.03218
  49        2S          0.44842   1.24895  -1.37681   0.04111   0.13234
  50 8   H  1S          0.04938   0.07042   0.07164   0.01067  -0.03601
  51        2S          0.73605   0.84825   1.40199   0.36178   1.05230
  52 9   H  1S          0.11015  -0.02776   0.00210  -0.04145  -0.01810
  53        2S          1.22659  -0.25197  -0.15432  -1.41724  -0.31235
                          26        27        28        29        30
                           V         V         V         V         V
     Eigenvalues --     0.23355   0.36102   0.43607   0.48206   0.67767
   1 1   C  1S         -0.07526   0.05399   0.01473  -0.13343  -0.00951
   2        2S          0.01457  -0.02143   0.01702   0.02409  -0.10960
   3        2PX        -0.04119  -0.11660   0.22190   0.12488   0.45927
   4        2PY         0.08541   0.04046   0.12541  -0.18920   0.34931
   5        2PZ         0.00089  -0.00253  -0.00081   0.00648   0.00804
   6        3S          1.59394  -1.01718  -1.12799   3.99458  -0.06609
   7        3PX         0.10913   0.24945   1.81261   1.39685  -0.36528
   8        3PY         0.13276   0.93833   1.74621  -2.43090  -0.42442
   9        3PZ        -0.00338  -0.00888  -0.00560   0.01079  -0.00294
  10 2   C  1S         -0.03947  -0.06569  -0.03782   0.10567  -0.04241
  11        2S          0.03604   0.00664   0.00588  -0.00562  -0.08767
  12        2PX         0.17689   0.13412  -0.02912  -0.25726   0.28790
  13        2PY        -0.19761   0.15460   0.19814   0.15033  -0.49092
  14        2PZ        -0.00185  -0.00158  -0.00158   0.00251   0.01580
  15        3S          0.15562   1.33531   1.77211  -2.62149  -0.05151
  16        3PX         0.45804   0.88746   0.07778  -1.74245  -0.13033
  17        3PY        -0.79236   0.51561   2.19549  -1.62873   0.70132
  18        3PZ         0.00024  -0.00259  -0.00750   0.00849  -0.01428
  19 3   O  1S          0.08127   0.05115  -0.00448  -0.01536   0.02679
  20        2S         -0.03766  -0.02056   0.00025   0.00341  -0.08329
  21        2PX         0.14475   0.02903  -0.24652  -0.18692   0.03172
  22        2PY        -0.07019  -0.15431  -0.01178   0.03411  -0.21188
  23        2PZ         0.00003  -0.00030   0.00146   0.00032   0.00179
  24        3S         -0.85597  -0.65786   0.08041   0.21899   0.17973
  25        3PX         0.28623   0.07197  -0.63097  -0.29306  -0.01559
  26        3PY        -0.22793  -0.46962  -0.03209   0.15535  -0.11988
  27        3PZ        -0.00034  -0.00025   0.00206   0.00024   0.00372
  28 4   C  1S          0.06401  -0.09111   0.00203  -0.08221  -0.05002
  29        2S         -0.04028   0.00630  -0.00611   0.03606  -0.01172
  30        2PX        -0.13162  -0.15036  -0.10400  -0.25753  -0.17454
  31        2PY        -0.06866   0.25855  -0.08996  -0.16554  -0.07815
  32        2PZ         0.00172   0.00270  -0.00104   0.00430   0.01596
  33        3S         -1.07160   1.78604  -0.53100   1.56484   0.34828
  34        3PX        -0.51625  -0.93309  -0.50509  -1.01404  -0.08771
[...]
     7  H    0.003158   0.003548  -0.022832   0.385375  -0.040133  -0.000320
     8  H   -0.042112   0.392463  -0.032552   0.004455   0.003366  -0.000032
     9  H    0.378100  -0.028637   0.002270   0.005240  -0.028286  -0.001307
               7          8          9
     1  C    0.003158  -0.042112   0.378100
     2  C    0.003548   0.392463  -0.028637
     3  O   -0.022832  -0.032552   0.002270
     4  C    0.385375   0.004455   0.005240
     5  C   -0.040133   0.003366  -0.028286
     6  H   -0.000320  -0.000032  -0.001307
     7  H    0.453873  -0.000054  -0.000032
     8  H   -0.000054   0.456815  -0.000975
     9  H   -0.000032  -0.000975   0.488615
 Mulliken charges:
               1
     1  C   -0.250124
     2  C    0.115027
     3  O   -0.486143
     4  C    0.064753
     5  C   -0.254774
     6  H    0.190209
     7  H    0.217417
     8  H    0.218624
     9  H    0.185012
 Sum of Mulliken charges =   0.00000
 Mulliken charges with hydrogens summed into heavy atoms:
               1
     1  C   -0.065112
     2  C    0.333651
     3  O   -0.486143
     4  C    0.282169
     5  C   -0.064565
 Electronic spatial extent (au):  <R**2>=            286.2541
 Charge=              0.0000 electrons
 Dipole moment (field-independent basis, Debye):
    X=              0.1314    Y=              0.7793    Z=              0.0030  Tot=              0.7903
 Quadrupole moment (field-independent basis, Debye-Ang):
   XX=            -23.5797   YY=            -28.1286   ZZ=            -31.5720
   XY=             -0.2535   XZ=             -0.0040   YZ=              0.0325
 Traceless Quadrupole moment (field-independent basis, Debye-Ang):
   XX=              4.1804   YY=             -0.3685   ZZ=             -3.8119
   XY=             -0.2535   XZ=             -0.0040   YZ=              0.0325
 Octapole moment (field-independent basis, Debye-Ang**2):
  XXX=              0.0204  YYY=              2.1373  ZZZ=              0.0155  XYY=              0.6436
  XXY=             -4.2579  XXZ=              0.0084  XZZ=             -0.4697  YZZ=             -3.2844
  YYZ=              0.0104  XYZ=              0.2139
 Hexadecapole moment (field-independent basis, Debye-Ang**3):
 XXXX=           -154.1872 YYYY=           -154.5044 ZZZZ=            -30.4845 XXXY=              1.1175
 XXXZ=             -0.1723 YYYX=             -1.0655 YYYZ=              0.0631 ZZZX=             -0.0022
 ZZZY=              0.0358 XXYY=            -45.4213 XXZZ=            -38.5291 YYZZ=            -33.6290
 XXYZ=              0.1229 YYXZ=              0.1864 ZZXY=              0.4872
 N-N= 1.622719044017D+02 E-N=-8.573517572410D+02  KE= 2.271680849012D+02
 Orbital energies and kinetic energies (alpha):
                                 1                 2
   1         O               -19.108155         28.829279
   2         O               -10.174629         15.802149
   3         O               -10.165578         15.795423
   4         O               -10.120835         15.803533
   5         O               -10.116827         15.803940
   6         O                -1.123229          2.493207
   7         O                -0.813139          1.851386
   8         O                -0.751288          1.795556
   9         O                -0.605084          1.676579
  10         O                -0.575217          1.421908
  11         O                -0.545147          1.293692
  12         O                -0.448058          1.542115
  13         O                -0.445334          1.543428
  14         O                -0.428027          1.382519
  15         O                -0.396573          1.407547
  16         O                -0.362572          2.320053
  17         O                -0.279852          1.600478
  18         O                -0.235934          1.221251
  19         V                 0.022938          1.808795
  20         V                 0.091550          1.506365
  21         V                 0.134406          1.186285
  22         V                 0.151455          1.881965
  23         V                 0.177456          1.226072
  24         V                 0.197673          1.300299
  25         V                 0.219359          1.885469
  26         V                 0.233555          1.773512
  27         V                 0.361018          1.919972
  28         V                 0.436072          1.804625
  29         V                 0.482058          2.583832
  30         V                 0.677667          2.595998
  31         V                 0.698230          2.486708
  32         V                 0.711135          2.706549
  33         V                 0.762082          2.582995
  34         V                 0.767567          2.493697
  35         V                 0.792050          2.599437
  36         V                 0.796964          2.621156
  37         V                 0.824848          2.731737
  38         V                 0.842182          2.619689
  39         V                 0.932018          2.762227
  40         V                 1.004674          3.092966
  41         V                 1.015268          3.398165
  42         V                 1.051417          3.257101
  43         V                 1.195625          2.767248
  44         V                 1.230350          2.927395
  45         V                 1.350613          2.585791
  46         V                 1.374298          2.871861
  47         V                 1.503860          4.963203
  48         V                 1.567971          3.353463
  49         V                 1.632605          3.890503
  50         V                 1.744195          4.290464
  51         V                 1.973932          4.253764
  52         V                 2.146427          4.114038
  53         V                 3.188154          6.834071
 Total kinetic energy from orbitals= 2.271680849012D+02
 No NMR shielding tensors so no spin-rotation constants.
 Leave Link  601 at Tue Dec 15 16:13:45 2015, MaxMem=    33554432 cpu:         0.1
 (Enter /home/Applications/g09/g09/l701.exe)
 Compute integral first derivatives.
 ... and contract with generalized density number  6.
 Leave Link  701 at Tue Dec 15 16:13:45 2015, MaxMem=    33554432 cpu:         0.0
 (Enter /home/Applications/g09/g09/l702.exe)
 L702 exits ... SP integral derivatives will be done elsewhere.
 Leave Link  702 at Tue Dec 15 16:13:45 2015, MaxMem=    33554432 cpu:         0.0
 (Enter /home/Applications/g09/g09/l703.exe)
 Compute integral first derivatives, UseDBF=F ICtDFT=           0.
 Integral derivatives from FoFJK, PRISM(SPDF).
 Calling FoFJK, ICntrl=  10005127 FMM=F ISym2X=0 I1Cent= 0 IOpClX= 0 NMat=1 NMatS=1 NMatT=0.
 FoFJK:  IHMeth= 1 ICntrl=10005127 DoSepK=F KAlg= 0 I1Cent=   0 FoldK=F
 IRaf=         0 NMat=   1 IRICut=       1 DoRegI=T DoRafI=F ISym2E= 0.
 FoFCou: FMM=F IPFlag=           0 FMFlag=      100000 FMFlg1=         800
         NFxFlg=           0 DoJE=F BraDBF=F KetDBF=F FulRan=T
         wScrn=  0.000000 ICntrl=10005127 IOpCl=  0 I1Cent=           0 NGrid=           0
         NMat0=    1 NMatS0=      1 NMatT0=    0 NMatD0=    1 NMtDS0=    0 NMtDT0=    0
 Symmetry not used in FoFCou.
 Leave Link  703 at Tue Dec 15 16:13:46 2015, MaxMem=    33554432 cpu:         1.2
 (Enter /home/Applications/g09/g09/l716.exe)
 Dipole        =-6.99653528D-01 3.85137391D-01 4.23419204D-03
 ***** Axes restored to original set *****
 -------------------------------------------------------------------
 Center     Atomic                   Forces (Hartrees/Bohr)
 Number     Number              X              Y              Z
 -------------------------------------------------------------------
      1        6           0.165979416    0.023360028    0.000261803
      2        6          -0.129797597   -0.070757779    0.000426645
      3        8          -0.090554389   -0.024365447   -0.000204356
      4        6          -0.002758959    0.066613447    0.000595836
      5        6           0.042910005   -0.008410353    0.000494570
      6        1           0.034418726    0.019859678   -0.001864052
      7        1          -0.007976767    0.002155439    0.000742468
      8        1           0.001788073   -0.014308589   -0.000079681
      9        1          -0.014008507    0.005853577   -0.000373232
 -------------------------------------------------------------------
 Cartesian Forces:  Max     0.165979416 RMS     0.049885240
 Z-matrix is all fixed cartesians, so copy forces.
 Force constants in Cartesian coordinates: 
                1             2             3             4             5 
      1  0.106620D+01
      2  0.371527D-01  0.824150D+00
      3 -0.231061D-02  0.517029D-03  0.243291D+00
      4 -0.664974D+00 -0.150690D+00  0.241744D-02  0.113560D+01
      5 -0.124859D+00 -0.250153D+00  0.437134D-03  0.561631D-01  0.937647D+00
      6  0.301150D-02  0.281396D-03 -0.138979D+00 -0.448978D-02  0.702826D-02
      7 -0.900101D-02  0.301782D-01  0.389028D-03 -0.319128D+00  0.187371D+00
      8 -0.724700D-02  0.242963D-01  0.170233D-03  0.231522D+00 -0.382625D+00
      9  0.129183D-03 -0.356246D-03  0.978036D-02  0.370817D-02 -0.406142D-02
     10  0.105112D-01 -0.335689D-03 -0.271443D-04  0.236359D-01  0.190279D-01
     11  0.343544D-01 -0.109810D-02 -0.533075D-04 -0.167834D-01 -0.135112D-01
     12  0.213130D-03  0.181746D-04 -0.935043D-03 -0.312586D-03 -0.239225D-03
     13 -0.171100D+00  0.437547D-02  0.985842D-03  0.109401D-01 -0.366817D-01
     14 -0.189846D-01 -0.425682D+00 -0.235548D-02 -0.349087D-03  0.117088D-02
     15  0.124226D-02 -0.187557D-02 -0.867897D-01 -0.144951D-03  0.434624D-03
     16  0.186005D-01 -0.594256D-03 -0.855667D-04  0.135550D-05  0.000000D+00
     17 -0.244468D-01  0.776956D-03  0.121130D-02  0.000000D+00  0.000000D+00
     18 -0.587363D-03 -0.531372D-04  0.193734D-01  0.287198D-04 -0.205096D-04
     19  0.000000D+00  0.000000D+00  0.191032D-04  0.000000D+00  0.000000D+00
     20 -0.189718D-05  0.000000D+00 -0.180447D-03  0.000000D+00  0.000000D+00
     21  0.664718D-04 -0.255928D-04  0.632235D-02  0.382400D-04 -0.274465D-04
     22  0.818468D-02 -0.274400D-01 -0.224965D-03 -0.180797D+00 -0.118726D+00
     23 -0.455253D-02  0.152555D-01 -0.384180D-03 -0.112528D+00 -0.317113D+00
     24  0.706143D-04  0.347443D-03  0.406943D-01 -0.152544D-02 -0.310540D-02
     25 -0.258425D+00  0.107354D+00 -0.116312D-02 -0.528280D-02  0.177062D-01
     26  0.108585D+00 -0.187547D+00  0.637717D-03 -0.733329D-02  0.245833D-01
     27 -0.183518D-02  0.114650D-02 -0.927575D-01  0.280194D-03 -0.446011D-03
                6             7             8             9            10 
      6  0.249944D+00
      7  0.363388D-02  0.546515D+00
      8 -0.472696D-02 -0.509977D-01  0.690217D+00
      9 -0.516399D-01 -0.516477D-02  0.529173D-02  0.563721D-01
     10 -0.206833D-03 -0.253277D+00 -0.180881D+00  0.167573D-02  0.863559D+00
     11  0.135944D-03 -0.136564D+00 -0.335179D+00 -0.453976D-03 -0.472607D-01
     12 -0.222781D-02  0.149048D-02 -0.581964D-03 -0.432105D-01 -0.974865D-02
     13 -0.562614D-03 -0.869535D-02  0.617450D-02  0.746789D-04 -0.476513D+00
     14  0.314244D-04 -0.284260D-01  0.201846D-01  0.129393D-04  0.101967D+00
     15 -0.141327D-02 -0.223530D-04  0.394472D-04  0.341667D-02  0.393975D-02
     16  0.249110D-03  0.124141D-05  0.000000D+00  0.128825D-03 -0.562593D-02
     17 -0.275545D-04  0.176169D-05 -0.126440D-05  0.182816D-03  0.739392D-02
     18  0.527804D-02  0.597786D-04 -0.429043D-04  0.620341D-02  0.172598D-03
     19  0.101236D-03  0.222105D-01 -0.157711D-01 -0.791277D-03 -0.162291D+00
     20 -0.721789D-04  0.103206D-01 -0.732842D-02 -0.533065D-03  0.100090D+00
     21  0.398036D-02 -0.237445D-03  0.168197D-03  0.553135D-02  0.410056D-02
     22 -0.154069D-02  0.213748D-01  0.172017D-01  0.229509D-03  0.000000D+00
     23 -0.269585D-02 -0.118842D-01 -0.956322D-02 -0.181771D-03  0.000000D+00
     24 -0.993036D-01 -0.212884D-03 -0.234636D-03  0.432583D-02  0.493052D-04
     25 -0.195808D-03  0.000000D+00  0.000000D+00  0.995227D-05  0.000000D+00
     26  0.455211D-04  0.000000D+00  0.000000D+00  0.989992D-04  0.000000D+00
     27  0.343618D-01  0.642865D-04 -0.831401D-04  0.922074D-02  0.446872D-04
               11            12            13            14            15 
     11  0.865691D+00
     12  0.990508D-02  0.179076D+00
     13  0.813055D-01  0.315688D-02  0.939112D+00
     14 -0.210244D+00 -0.137556D-02  0.687796D-01  0.841119D+00
     15 -0.743795D-03 -0.961703D-01 -0.158648D-01 -0.432620D-02  0.212717D+00
     16 -0.184417D-01  0.129602D-02 -0.318636D+00 -0.149013D+00  0.980696D-02
     17  0.241823D-01 -0.275974D-03 -0.150991D+00 -0.238130D+00  0.682390D-02
     18 -0.400904D-03  0.251218D-01  0.111395D-01  0.784212D-02 -0.869549D-01
     19  0.103390D+00  0.393549D-02  0.813620D-02  0.265627D-01  0.925077D-03
     20 -0.329842D+00 -0.736734D-02  0.376592D-02  0.123256D-01 -0.373485D-03
     21 -0.833645D-02 -0.710363D-01  0.406117D-03  0.297323D-03  0.268182D-01
     22  0.000000D+00  0.796978D-05  0.000000D+00  0.000000D+00  0.962246D-04
     23  0.000000D+00 -0.686602D-04  0.000000D+00  0.000000D+00 -0.178827D-03
     24 -0.353884D-04  0.513212D-02  0.544857D-04 -0.389099D-04  0.100132D-01
     25  0.000000D+00 -0.387446D-04  0.167555D-01 -0.535679D-03  0.217940D-04
     26  0.000000D+00 -0.145384D-04  0.232730D-01 -0.744672D-03  0.199901D-03
     27 -0.172053D-04  0.425034D-02  0.609853D-03 -0.876574D-04  0.183634D-01
               16            17            18            19            20 
     16  0.305657D+00
     17  0.168044D+00  0.213163D+00
     18 -0.108463D-01 -0.764528D-02  0.484289D-01
     19  0.000000D+00  0.000000D+00 -0.313836D-04  0.131944D+00
     20  0.615620D-05  0.873631D-05  0.296445D-03 -0.114180D+00  0.324835D+00
     21 -0.215696D-03 -0.306096D-03 -0.103866D-01 -0.415825D-02  0.823007D-02
     22  0.000000D+00  0.000000D+00  0.000000D+00  0.000000D+00  0.000000D+00
     23  0.000000D+00  0.000000D+00  0.000000D+00  0.000000D+00  0.000000D+00
     24  0.000000D+00  0.000000D+00  0.000000D+00  0.000000D+00  0.000000D+00
     25  0.303920D-05  0.000000D+00  0.643933D-04  0.000000D+00  0.000000D+00
     26  0.114042D-05  0.000000D+00  0.241627D-04  0.000000D+00  0.000000D+00
     27 -0.333405D-03  0.368785D-04 -0.706403D-02  0.000000D+00  0.000000D+00
               21            22            23            24            25 
     21  0.387707D-01
     22  0.000000D+00  0.151238D+00
     23  0.000000D+00  0.128966D+00  0.311416D+00
     24  0.000000D+00  0.158062D-02  0.323300D-02  0.546089D-01
     25  0.000000D+00  0.000000D+00  0.000000D+00 -0.166982D-04  0.246950D+00
     26  0.000000D+00 -0.159621D-05  0.296646D-05 -0.166103D-03 -0.124525D+00
     27  0.000000D+00 -0.148670D-03  0.276294D-03 -0.154708D-01  0.131823D-02
               26            27 
     26  0.163706D+00
     27 -0.825659D-03  0.490961D-01
 Leave Link  716 at Tue Dec 15 16:13:46 2015, MaxMem=    33554432 cpu:         0.0
 (Enter /home/Applications/g09/g09/l103.exe)

 GradGradGradGradGradGradGradGradGradGradGradGradGradGradGradGradGradGrad
 Berny optimization.
 Search for a local minimum.
 Step number   1 out of a maximum of    2
 All quantities printed in internal units (Hartrees-Bohrs-Radians)
 Second derivative matrix not updated -- first step.
 ITU=  0
     Eigenvalues ---    0.02036   0.03247   0.07253   0.07581   0.08150
     Eigenvalues ---    0.08811   0.13460   0.14202   0.16442   0.23372
     Eigenvalues ---    0.27188   0.32248   0.43839   0.45579   0.66195
     Eigenvalues ---    0.85838   1.09125   1.38883   1.45902   1.53474
     Eigenvalues ---    1.92447
 Quadratic step=4.541D-01 exceeds max=3.000D-01 adjusted using Lamda=-1.335D-01.
 Angle between NR and scaled steps=  12.64 degrees.
 Angle between quadratic step and forces=  39.08 degrees.
 Linear search not attempted -- first point.
 TrRot= -0.010501  0.000087  0.000093 -0.094154 -0.000414  0.093784
 Variable       Old X    -DE/DX   Delta X   Delta X   Delta X     New X
                                 (Linear)    (Quad)   (Total)
    X1        1.72867   0.16598   0.00000   0.10468   0.09369   1.82236
    Y1       -1.33048   0.02336   0.00000   0.00850   0.00791  -1.32258
    Z1       -0.00474   0.00026   0.00000   0.00170   0.00260  -0.00214
    X2       -0.60360  -0.12980   0.00000  -0.08466  -0.09594  -0.69954
    Y2       -2.02622  -0.07076   0.00000  -0.05690  -0.05656  -2.08279
    Z2        0.00524   0.00043   0.00000   0.00124   0.00113   0.00638
    X3       -2.19648  -0.09055   0.00000  -0.14439  -0.15493  -2.35141
    Y3       -0.04730  -0.02437   0.00000  -0.02490  -0.02394  -0.07124
    Z3        0.03419  -0.00020   0.00000  -0.00215  -0.00302   0.03117
    X4       -0.66567  -0.00276   0.00000  -0.00185  -0.01157  -0.67724
    Y4        2.10854   0.06661   0.00000   0.04625   0.04658   2.15512
    Z4        0.03435   0.00060   0.00000   0.00202   0.00176   0.03611
    X5        1.81435   0.04291   0.00000   0.09879   0.08880   1.90314
    Y5        1.34992  -0.00841   0.00000   0.03312   0.03250   1.38242
    Z5        0.00521   0.00049   0.00000  -0.00058   0.00025   0.00546
    X6        3.35547   0.03442   0.00000   0.13673   0.12721   3.48268
    Y6        2.52409   0.01986   0.00000   0.06115   0.05994   2.58403
    Z6       -0.06140  -0.00186   0.00000  -0.00776  -0.00633  -0.06773
    X7       -1.51334  -0.00798   0.00000  -0.02869  -0.03776  -1.55110
    Y7        3.93401   0.00216   0.00000   0.03222   0.03288   3.96689
    Z7        0.08901   0.00074   0.00000   0.00492   0.00422   0.09323
    X8       -1.57852   0.00179   0.00000  -0.01564  -0.02757  -1.60609
    Y8       -3.77931  -0.01431   0.00000  -0.09333  -0.09266  -3.87197
    Z8       -0.01670  -0.00008   0.00000  -0.00022  -0.00064  -0.01733
    X9        3.41573  -0.01401   0.00000   0.02951   0.01807   3.43380
    Y9       -2.54539   0.00585   0.00000  -0.00546  -0.00665  -2.55204
    Z9        0.00648  -0.00037   0.00000  -0.00158   0.00003   0.00651
         Item               Value     Threshold  Converged?
 Maximum Force            0.165979     0.000450     NO 
 RMS     Force            0.049885     0.000300     NO 
 Maximum Displacement     0.154928     0.001800     NO 
 RMS     Displacement     0.057459     0.001200     NO 
 Predicted change in Energy=-3.622577D-02
 GradGradGradGradGradGradGradGradGradGradGradGradGradGradGradGradGradGrad

 Leave Link  103 at Tue Dec 15 16:13:46 2015, MaxMem=    33554432 cpu:         0.0
 (Enter /home/Applications/g09/g09/l9999.exe)
 1\1\GINC-DUSTIN-DESKTOP\Force\RB3LYP-FC\3-21G\C4H4O1\DUSTIN\15-Dec-201
 5\0\\#P B3LYP/3-21G CIS(Singlets,NStates=15) pop(full) force\\FuranDFT
 \\0,1\C,0.914771,-0.704061,-0.00251\C,-0.319413,-1.072232,0.002775\O,-
 1.162329,-0.025031,0.018094\C,-0.352258,1.115789,0.018178\C,0.960111,0
 .714346,0.002755\H,1.775637,1.335691,-0.032492\H,-0.800824,2.081787,0.
 047104\H,-0.835319,-1.999924,-0.008835\H,1.807528,-1.346964,0.003429\\
 Version=ES64L-G09RevD.01\State=1-A\HF=-228.7405808\RMSD=5.679e-09\RMSF
 =4.989e-02\Dipole=0.3396443,-0.7227503,-0.0117288\PG=C01 [X(C4H4O1)]\\
 @


 CHARLIE BROWN.."I CAN'T GET THAT STUPID KITE IN THE
 AIR... I CAN'T... I C A N N O T..."
 LUCY.."OH COME NOW CHARLIE BROWN...THAT'S NO WAY TO TALK...
 THE TROUBLE WITH YOU IS YOU DON'T BELIEVE IN YOURSELF... YOU
 DON'T BELIEVE IN YOUR OWN ABILITIES...  YOU'VE GOT TO SAY TO
 YOURSELF...'I BELIEVE I CAN FLY THIS KITE.'... GO AHEAD SAY
 IT...."
 CHARLIE BROWN.."I BELIEVE THAT I CAN FLY THIS STUPID
 KITE.....I BELIEVE THAT I CAN FLY THIS KITE........
 I  A C T U A L L Y  B E L I E V E  T H A T  I  C A N ******"
 LUCY.."I'LL BET YOU TEN-TO-ONE YOU'RE WRONG......."    SCHULZ
 Job cpu time:       0 days  0 hours  0 minutes 48.2 seconds.
 File lengths (MBytes):  RWF=     14 Int=      0 D2E=      0 Chk=      3 Scr=      1
 Normal termination of Gaussian 09 at Tue Dec 15 16:13:46 2015.
