 Entering Gaussian System, Link 0=g09
 Input=FuranBestInput.com
 Output=FuranBestInput.log
 Initial command:
 /home/Applications/g09/g09/l1.exe "/home/Applications/g09/scratch/Gau-19251.inp" -scrdir="/home/Applications/g09/scratch/"
 Entering Link 1 = /home/Applications/g09/g09/l1.exe PID=     19253.
  
 Copyright (c) 1988,1990,1992,1993,1995,1998,2003,2009,2013,
            Gaussian, Inc.  All Rights Reserved.
  
 This is part of the Gaussian(R) 09 program.  It is based on
 the Gaussian(R) 03 system (copyright 2003, Gaussian, Inc.),
 the Gaussian(R) 98 system (copyright 1998, Gaussian, Inc.),
 the Gaussian(R) 94 system (copyright 1995, Gaussian, Inc.),
 the Gaussian 92(TM) system (copyright 1992, Gaussian, Inc.),
 the Gaussian 90(TM) system (copyright 1990, Gaussian, Inc.),
 the Gaussian 88(TM) system (copyright 1988, Gaussian, Inc.),
 the Gaussian 86(TM) system (copyright 1986, Carnegie Mellon
 University), and the Gaussian 82(TM) system (copyright 1983,
 Carnegie Mellon University). Gaussian is a federally registered
 trademark of Gaussian, Inc.
  
 This software contains proprietary and confidential information,
 including trade secrets, belonging to Gaussian, Inc.
  
 This software is provided under written license and may be
 used, copied, transmitted, or stored only in accord with that
 written license.
  
 The following legend is applicable only to US Government
 contracts under FAR:
  
                    RESTRICTED RIGHTS LEGEND
  
 Use, reproduction and disclosure by the US Government is
 subject to restrictions as set forth in subparagraphs (a)
 and (c) of the Commercial Computer Software - Restricted
 Rights clause in FAR 52.227-19.
  
 Gaussian, Inc.
 340 Quinnipiac St., Bldg. 40, Wallingford CT 06492
  
  
 ---------------------------------------------------------------
 Warning -- This program may not be used in any manner that
 competes with the business of Gaussian, Inc. or will provide
 assistance to any competitor of Gaussian, Inc.  The licensee
 of this program is prohibited from giving any competitor of
 Gaussian, Inc. access to this program.  By using this program,
 the user acknowledges that Gaussian, Inc. is engaged in the
 business of creating and licensing software in the field of
 computational chemistry and represents and warrants to the
 licensee that it is not a competitor of Gaussian, Inc. and that
 it will not use this program in any manner prohibited above.
 ---------------------------------------------------------------
  

 Cite this work as:
 Gaussian 09, Revision D.01,
 M. J. Frisch, G. W. Trucks, H. B. Schlegel, G. E. Scuseria, 
 M. A. Robb, J. R. Cheeseman, G. Scalmani, V. Barone, B. Mennucci, 
 G. A. Petersson, H. Nakatsuji, M. Caricato, X. Li, H. P. Hratchian, 
 A. F. Izmaylov, J. Bloino, G. Zheng, J. L. Sonnenberg, M. Hada, 
 M. Ehara, K. Toyota, R. Fukuda, J. Hasegawa, M. Ishida, T. Nakajima, 
 Y. Honda, O. Kitao, H. Nakai, T. Vreven, J. A. Montgomery, Jr., 
 J. E. Peralta, F. Ogliaro, M. Bearpark, J. J. Heyd, E. Brothers, 
 K. N. Kudin, V. N. Staroverov, T. Keith, R. Kobayashi, J. Normand, 
 K. Raghavachari, A. Rendell, J. C. Burant, S. S. Iyengar, J. Tomasi, 
 M. Cossi, N. Rega, J. M. Millam, M. Klene, J. E. Knox, J. B. Cross, 
 V. Bakken, C. Adamo, J. Jaramillo, R. Gomperts, R. E. Stratmann, 
 O. Yazyev, A. J. Austin, R. Cammi, C. Pomelli, J. W. Ochterski, 
 R. L. Martin, K. Morokuma, V. G. Zakrzewski, G. A. Voth, 
 P. Salvador, J. J. Dannenberg, S. Dapprich, A. D. Daniels, 
 O. Farkas, J. B. Foresman, J. V. Ortiz, J. Cioslowski, 
 and D. J. Fox, Gaussian, Inc., Wallingford CT, 2013.
 
 ******************************************
 Gaussian 09:  ES64L-G09RevD.01 24-Apr-2013
                24-Dec-2015 
 ******************************************
 ----------------------------
 #P AM1(Input,print) Opt Freq
 ----------------------------
 1/14=-1,18=20,19=15,26=1,38=1/1,3;
 2/9=110,12=2,17=6,18=5,40=1/2;
 3/5=2,16=1,25=1,41=700000,71=1,135=100,136=1/1,2,3;
 4/35=1/1;
 5/5=2,35=1,38=5/2;
 6/7=2,8=2,9=2,10=2,28=1/1;
 7//1,2,3,16;
 1/14=-1,18=20,19=15,26=1/3(2);
 2/9=110/2;
 99//99;
 2/9=110/2;
 3/5=2,16=1,25=1,41=700000,71=1,135=20,136=1/1,2,3;
 4/5=5,16=3,35=1/1;
 5/5=2,35=1,38=5/2;
 7//1,2,3,16;
 1/14=-1,18=20,19=15,26=1/3(-5);
 2/9=110/2;
 6/7=2,8=2,9=2,10=2,19=2,28=1/1;
 99/9=1/99;
 Leave Link    1 at Thu Dec 24 04:40:00 2015, MaxMem=           0 cpu:         0.0
 (Enter /home/Applications/g09/g09/l101.exe)
 -----------------
 AM1-Reparam Input
 -----------------
 Symbolic Z-matrix:
 Charge =  0 Multiplicity = 1
 6                     0.96996  -0.73082   0.00318 
 6                    -0.33135  -1.08864   0.00402 
 8                    -1.14762  -0.00644  -0.01522 
 6                    -0.32082   1.09384  -0.00679 
 6                     0.94175   0.70691  -0.01605 
 1                     1.81209   1.39395  -0.00011 
 1                    -0.85038   2.06252   0.02149 
 1                    -0.85043  -2.0238   -0.01261 
 1                     1.8253   -1.38329   0.01578 
 
 NAtoms=      9 NQM=        9 NQMF=       0 NMMI=      0 NMMIF=      0
                NMic=       0 NMicF=      0.
                    Isotopes and Nuclear Properties:
 (Nuclear quadrupole moments (NQMom) in fm**2, nuclear magnetic moments (NMagM)
  in nuclear magnetons)

  Atom         1           2           3           4           5           6           7           8           9
 IAtWgt=          12          12          16          12          12           1           1           1           1
 AtmWgt=  12.0000000  12.0000000  15.9949146  12.0000000  12.0000000   1.0078250   1.0078250   1.0078250   1.0078250
 NucSpn=           0           0           0           0           0           1           1           1           1
 AtZEff=   0.0000000   0.0000000   0.0000000   0.0000000   0.0000000   0.0000000   0.0000000   0.0000000   0.0000000
 NQMom=    0.0000000   0.0000000   0.0000000   0.0000000   0.0000000   0.0000000   0.0000000   0.0000000   0.0000000
 NMagM=    0.0000000   0.0000000   0.0000000   0.0000000   0.0000000   2.7928460   2.7928460   2.7928460   2.7928460
 AtZNuc=   6.0000000   6.0000000   8.0000000   6.0000000   6.0000000   1.0000000   1.0000000   1.0000000   1.0000000
 Leave Link  101 at Thu Dec 24 04:40:00 2015, MaxMem=    33554432 cpu:         0.0
 (Enter /home/Applications/g09/g09/l103.exe)

 GradGradGradGradGradGradGradGradGradGradGradGradGradGradGradGradGradGrad
 Berny optimization.
 Initialization pass.
                           ----------------------------
                           !    Initial Parameters    !
                           ! (Angstroms and Degrees)  !
 --------------------------                            --------------------------
 ! Name  Definition              Value          Derivative Info.                !
 --------------------------------------------------------------------------------
 ! R1    R(1,2)                  1.3496         estimate D2E/DX2                !
 ! R2    R(1,5)                  1.4381         estimate D2E/DX2                !
 ! R3    R(1,9)                  1.0759         estimate D2E/DX2                !
 ! R4    R(2,3)                  1.3557         estimate D2E/DX2                !
 ! R5    R(2,8)                  1.0697         estimate D2E/DX2                !
 ! R6    R(3,4)                  1.3763         estimate D2E/DX2                !
 ! R7    R(4,5)                  1.3206         estimate D2E/DX2                !
 ! R8    R(4,7)                  1.1044         estimate D2E/DX2                !
 ! R9    R(5,6)                  1.109          estimate D2E/DX2                !
 ! A1    A(2,1,5)              104.2496         estimate D2E/DX2                !
 ! A2    A(2,1,9)              127.2853         estimate D2E/DX2                !
 ! A3    A(5,1,9)              128.4651         estimate D2E/DX2                !
 ! A4    A(1,2,3)              111.6488         estimate D2E/DX2                !
 ! A5    A(1,2,8)              134.3997         estimate D2E/DX2                !
 ! A6    A(3,2,8)              113.9216         estimate D2E/DX2                !
 ! A7    A(2,3,4)              106.0439         estimate D2E/DX2                !
 ! A8    A(3,4,5)              109.8811         estimate D2E/DX2                !
 ! A9    A(3,4,7)              114.4129         estimate D2E/DX2                !
 ! A10   A(5,4,7)              135.6973         estimate D2E/DX2                !
 ! A11   A(1,5,4)              108.1545         estimate D2E/DX2                !
 ! A12   A(1,5,6)              127.1411         estimate D2E/DX2                !
 ! A13   A(4,5,6)              124.6624         estimate D2E/DX2                !
 ! D1    D(5,1,2,3)              0.107          estimate D2E/DX2                !
 ! D2    D(5,1,2,8)            177.9371         estimate D2E/DX2                !
 ! D3    D(9,1,2,3)           -179.9812         estimate D2E/DX2                !
 ! D4    D(9,1,2,8)             -2.1511         estimate D2E/DX2                !
 ! D5    D(2,1,5,4)              0.8322         estimate D2E/DX2                !
 ! D6    D(2,1,5,6)            178.5445         estimate D2E/DX2                !
 ! D7    D(9,1,5,4)           -179.0781         estimate D2E/DX2                !
 ! D8    D(9,1,5,6)             -1.3659         estimate D2E/DX2                !
 ! D9    D(1,2,3,4)             -0.9595         estimate D2E/DX2                !
 ! D10   D(8,2,3,4)           -179.2636         estimate D2E/DX2                !
 ! D11   D(2,3,4,5)              1.5007         estimate D2E/DX2                !
 ! D12   D(2,3,4,7)           -177.6006         estimate D2E/DX2                !
 ! D13   D(3,4,5,1)             -1.4565         estimate D2E/DX2                !
 ! D14   D(3,4,5,6)           -179.2393         estimate D2E/DX2                !
 ! D15   D(7,4,5,1)            177.3719         estimate D2E/DX2                !
 ! D16   D(7,4,5,6)             -0.411          estimate D2E/DX2                !
 --------------------------------------------------------------------------------
 Trust Radius=3.00D-01 FncErr=1.00D-07 GrdErr=1.00D-07
 Number of steps in this run=     48 maximum allowed number of steps=    100.
 GradGradGradGradGradGradGradGradGradGradGradGradGradGradGradGradGradGrad

 Leave Link  103 at Thu Dec 24 04:40:00 2015, MaxMem=    33554432 cpu:         0.0
 (Enter /home/Applications/g09/g09/l202.exe)
                          Input orientation:                          
 ---------------------------------------------------------------------
 Center     Atomic      Atomic             Coordinates (Angstroms)
 Number     Number       Type             X           Y           Z
 ---------------------------------------------------------------------
      1          6           0        0.969955   -0.730822    0.003184
      2          6           0       -0.331354   -1.088635    0.004015
      3          8           0       -1.147617   -0.006439   -0.015219
      4          6           0       -0.320815    1.093838   -0.006793
      5          6           0        0.941749    0.706909   -0.016050
      6          1           0        1.812092    1.393948   -0.000113
      7          1           0       -0.850384    2.062523    0.021494
      8          1           0       -0.850426   -2.023798   -0.012613
      9          1           0        1.825304   -1.383294    0.015778
 ---------------------------------------------------------------------
                    Distance matrix (angstroms):
                    1          2          3          4          5
     1  C    0.000000
     2  C    1.349606   0.000000
     3  O    2.238120   1.355656   0.000000
     4  C    2.235077   2.182525   1.376329   0.000000
     5  C    1.438136   2.201175   2.207785   1.320556   0.000000
     6  H    2.285575   3.279877   3.274323   2.153927   1.108952
     7  H    3.334178   3.193665   2.090526   1.104352   2.247407
     8  H    2.232896   1.069693   2.039134   3.162305   3.266292
     9  H    1.075872   2.176726   3.276423   3.277578   2.269500
                    6          7          8          9
     6  H    0.000000
     7  H    2.745221   0.000000
     8  H    4.332453   4.086463   0.000000
     9  H    2.777319   4.362682   2.751469   0.000000
 Stoichiometry    C4H4O
 Framework group  C1[X(C4H4O)]
 Deg. of freedom    21
 Full point group                 C1      NOp   1
 Largest Abelian subgroup         C1      NOp   1
 Largest concise Abelian subgroup C1      NOp   1
                         Standard orientation:                         
 ---------------------------------------------------------------------
 Center     Atomic      Atomic             Coordinates (Angstroms)
 Number     Number       Type             X           Y           Z
 ---------------------------------------------------------------------
      1          6           0        0.812350    0.890867    0.003215
      2          6           0        1.049925   -0.437658    0.006907
      3          8           0       -0.102301   -1.151803   -0.006366
      4          6           0       -1.122505   -0.228018    0.003026
      5          6           0       -0.622014    0.993935   -0.011347
      6          1           0       -1.226707    1.923387    0.004105
      7          1           0       -2.135369   -0.666894    0.036030
      8          1           0        1.933757   -1.039953   -0.011107
      9          1           0        1.540192    1.683133    0.011098
 ---------------------------------------------------------------------
 Rotational constants (GHZ):      9.5163937      9.3863182      4.7258438
 Leave Link  202 at Thu Dec 24 04:40:00 2015, MaxMem=    33554432 cpu:         0.0
 (Enter /home/Applications/g09/g09/l301.exe)

 Semi-emprical parameters in input format:
 Method=8 CoreType=1 PeptideFC=0.0111920000 RIJScale=0.6126540000
 ****
 H       
 PQN=1 NValence=1 F0ss=0.3657200000 ZetaOverlap=1.1898590000 U=-0.3271920000
 Beta=-0.2566630000 CoreKO=1.0512780000 KON=0,0,0,0.9781540000 KON=1,0,1,0.9891250000
 KON=0,1,1,1.0267330000 KON=2,1,1,1.1475120000 EISol=-0.4188110042 EHeat=0.0830298228
 Alpha=1.5252600000
 GCore=0.0087860000,1.3438120000,2.2676710000
 GCore=0.0003540000,1.2763360000,2.5068130000
 GCore=-0.0012860000,0.6642910000,3.7092900000
 ****
 C       
 PQN=2,2 NValence=4 F0ss=0.4593770000 F0sp=0.3789850000 F0pp=0.3911740000 F2pp=0.1891150000
 G1sp=0.2794120000
 ZetaOverlap=1.7545260000,1.3966830000
 U=-1.7553130000,-1.4457960000
 Beta=-0.6059280000,-0.3278770000 DDN=0,1,0.8249730000 DDN=1,1,0.7707940000
 CoreKO=1.0982170000 KON=0,0,0,1.0185120000 KON=1,0,1,0.7597990000 KON=0,1,1,0.9165830000
 KON=2,1,1,0.8455180000 EISol=-4.4398989268 EHeat=0.2723305520 Alpha=1.4014060000
 DipHyp=1.6498510772
 GCore=0.0008410000,1.3150300000,2.9551730000
 GCore=0.0026390000,1.4897280000,3.1116680000
 GCore=-0.0014350000,1.3724060000,4.5540710000
 GCore=-0.0001010000,1.0527030000,4.6044920000
 ****
 O       
 PQN=2,2 NValence=6 F0ss=0.5057590000 F0sp=0.5412450000 F0pp=0.4592300000 F2pp=0.2358450000
 G1sp=0.4248810000
 ZetaOverlap=2.7344710000,1.9794440000
 U=-3.6315870000,-3.2361800000
 Beta=-1.0226630000,-1.2989790000 DDN=0,1,0.4988900000 DDN=1,1,0.4321610000
 CoreKO=1.0809880000 KON=0,0,0,0.7052230000 KON=1,0,1,0.4239620000 KON=0,1,1,0.7866010000
 KON=2,1,1,0.6324260000 EISol=-11.6164441184 EHeat=0.0949133088 Alpha=2.9491300000
 DipHyp=0.9977225968
 GCore=0.0195990000,1.2257140000,2.0315570000
 GCore=0.0045750000,1.9507830000,2.5903420000
 ****
 
 Standard basis: VSTO-6G (5D, 7F)
 Ernie: Thresh=  0.10000D-02 Tol=  0.10000D-05 Strict=F.
  NNHCO=     0 NNPyr=     0 NCTC=     0               EPep=         0.000000000
    EC=        68.251278288  ECS=         1.801605234   EG=         0.508848476
   EHC=         0.000000000  EAt=       -31.051283842  AtH=         1.516354808
 EPDDG=         0.000000000  ECC=        70.561731998 EAtT=        32.567638650
 There are    24 symmetry adapted cartesian basis functions of A   symmetry.
 There are    24 symmetry adapted basis functions of A   symmetry.
    24 basis functions,   144 primitive gaussians,    24 cartesian basis functions
    13 alpha electrons       13 beta electrons
       nuclear repulsion energy       103.1293706488 Hartrees.
 IExCor=    0 DFT=F Ex=HF Corr=None ExCW=0 ScaHFX=  1.000000
 ScaDFX=  1.000000  1.000000  1.000000  1.000000 ScalE2=  1.000000  1.000000
 IRadAn=      0 IRanWt=     -1 IRanGd=            0 ICorTp=0 IEmpDi=  4
 Integral buffers will be    131072 words long.
 Regular integral format.
 Two-electron integral symmetry is turned off.
 Leave Link  301 at Thu Dec 24 04:40:00 2015, MaxMem=    33554432 cpu:         0.0
 (Enter /home/Applications/g09/g09/l302.exe)
 Do NDO integrals.
 NPDir=0 NMtPBC=     1 NCelOv=     1 NCel=       1 NClECP=     1 NCelD=      1
         NCelK=      1 NCelE2=     1 NClLst=     1 CellRange=     0.0.
 One-electron integrals computed using PRISM.
 NBasis=    24 RedAO= F EigKep=  0.00D+00  NBF=    24
 NBsUse=    24 1.00D-04 EigRej=  0.00D+00 NBFU=    24
 Leave Link  302 at Thu Dec 24 04:40:00 2015, MaxMem=    33554432 cpu:         0.0
 (Enter /home/Applications/g09/g09/l303.exe)
 DipDrv:  MaxL=1.
 Leave Link  303 at Thu Dec 24 04:40:00 2015, MaxMem=    33554432 cpu:         0.0
 (Enter /home/Applications/g09/g09/l401.exe)
 Simple Huckel Guess.
 JPrj=0 DoOrth=F DoCkMO=F.
 Leave Link  401 at Thu Dec 24 04:40:00 2015, MaxMem=    33554432 cpu:         0.0
 (Enter /home/Applications/g09/g09/l502.exe)
 Closed shell SCF:
 Using DIIS extrapolation, IDIIS=  1040.
 Overlap will be assumed to be unity.
 Two-electron integral symmetry not used.
 Keep J ints in memory in canonical form, NReq=888082.
 IVT=       79475 IEndB=       79475 NGot=    33554432 MDV=    33473473
 LenX=    33473473 LenY=    33472456
 Requested convergence on RMS density matrix=1.00D-08 within 128 cycles.
 Requested convergence on MAX density matrix=1.00D-06.
 Requested convergence on             energy=1.00D-06.
 No special actions if energy rises.
 FoFCou: FMM=F IPFlag=           0 FMFlag=           0 FMFlg1=           0
         NFxFlg=           0 DoJE=F BraDBF=F KetDBF=F FulRan=T
         wScrn=  0.000000 ICntrl=     600 IOpCl=  2 I1Cent=           0 NGrid=           0
         NMat0=    1 NMatS0=     54 NMatT0=    0 NMatD0=    1 NMtDS0=    0 NMtDT0=    0
 Symmetry not used in FoFCou.

 Cycle   1  Pass 1  IDiag  1:
 E= -2.76283418974848    
 DIIS: error= 7.36D-02 at cycle   1 NSaved=   1.
 NSaved= 1 IEnMin= 1 EnMin= -2.76283418974848     IErMin= 1 ErrMin= 7.36D-02
 ErrMax= 7.36D-02  0.00D+00 EMaxC= 1.00D-01 BMatC= 1.96D-01 BMatP= 1.96D-01
 IDIUse=3 WtCom= 2.64D-01 WtEn= 7.36D-01
 Coeff-Com:  0.100D+01
 Coeff-En:   0.100D+01
 Coeff:      0.100D+01
 GapD=    2.000 DampG=2.000 DampE=0.500 DampFc=1.0000 IDamp=-1.
 RMSDP=1.84D-02 MaxDP=1.28D-01              OVMax= 0.00D+00

 Cycle   2  Pass 1  IDiag  1:
 E= -3.09743407045644     Delta-E=       -0.334599880708 Rises=F Damp=F
 DIIS: error= 1.76D-02 at cycle   2 NSaved=   2.
 NSaved= 2 IEnMin= 2 EnMin= -3.09743407045644     IErMin= 2 ErrMin= 1.76D-02
 ErrMax= 1.76D-02  0.00D+00 EMaxC= 1.00D-01 BMatC= 1.37D-02 BMatP= 1.96D-01
 IDIUse=3 WtCom= 8.24D-01 WtEn= 1.76D-01
 Coeff-Com: -0.313D+00 0.131D+01
 Coeff-En:   0.000D+00 0.100D+01
 Coeff:     -0.257D+00 0.126D+01
 RMSDP=7.15D-03 MaxDP=4.28D-02 DE=-3.35D-01 OVMax= 0.00D+00

 Cycle   3  Pass 1  IDiag  3:
 E= -3.12794200414308     Delta-E=       -0.030507933687 Rises=F Damp=F
 DIIS: error= 3.42D-03 at cycle   3 NSaved=   3.
 NSaved= 3 IEnMin= 3 EnMin= -3.12794200414308     IErMin= 3 ErrMin= 3.42D-03
 ErrMax= 3.42D-03  0.00D+00 EMaxC= 1.00D-01 BMatC= 5.94D-04 BMatP= 1.37D-02
 IDIUse=3 WtCom= 9.66D-01 WtEn= 3.42D-02
 Coeff-Com:  0.823D-01-0.491D+00 0.141D+01
 Coeff-En:   0.000D+00 0.000D+00 0.100D+01
 Coeff:      0.795D-01-0.474D+00 0.139D+01
 Gap=     0.454 Goal=   None    Shift=    0.000
 RMSDP=2.43D-03 MaxDP=1.69D-02 DE=-3.05D-02 OVMax= 2.22D-02

 Cycle   4  Pass 1  IDiag  3:
 E= -3.13034127110500     Delta-E=       -0.002399266962 Rises=F Damp=F
 DIIS: error= 1.12D-03 at cycle   4 NSaved=   4.
 NSaved= 4 IEnMin= 4 EnMin= -3.13034127110500     IErMin= 4 ErrMin= 1.12D-03
 ErrMax= 1.12D-03  0.00D+00 EMaxC= 1.00D-01 BMatC= 5.78D-05 BMatP= 5.94D-04
 IDIUse=3 WtCom= 9.89D-01 WtEn= 1.12D-02
 Coeff-Com: -0.295D-02 0.660D-01-0.561D+00 0.150D+01
 Coeff-En:   0.000D+00 0.000D+00 0.000D+00 0.100D+01
 Coeff:     -0.291D-02 0.653D-01-0.555D+00 0.149D+01
 Gap=     0.456 Goal=   None    Shift=    0.000
 RMSDP=1.03D-03 MaxDP=7.37D-03 DE=-2.40D-03 OVMax= 8.52D-03

 Cycle   5  Pass 1  IDiag  3:
 E= -3.13063868627688     Delta-E=       -0.000297415172 Rises=F Damp=F
 DIIS: error= 3.23D-04 at cycle   5 NSaved=   5.
 NSaved= 5 IEnMin= 5 EnMin= -3.13063868627688     IErMin= 5 ErrMin= 3.23D-04
 ErrMax= 3.23D-04  0.00D+00 EMaxC= 1.00D-01 BMatC= 3.48D-06 BMatP= 5.78D-05
 IDIUse=3 WtCom= 9.97D-01 WtEn= 3.23D-03
 Coeff-Com: -0.255D-02-0.513D-02 0.170D+00-0.700D+00 0.154D+01
 Coeff-En:   0.000D+00 0.000D+00 0.000D+00 0.000D+00 0.100D+01
 Coeff:     -0.254D-02-0.511D-02 0.170D+00-0.697D+00 0.154D+01
 Gap=     0.456 Goal=   None    Shift=    0.000
 RMSDP=2.56D-04 MaxDP=2.01D-03 DE=-2.97D-04 OVMax= 1.36D-03

 Cycle   6  Pass 1  IDiag  3:
 E= -3.13065549214591     Delta-E=       -0.000016805869 Rises=F Damp=F
 DIIS: error= 7.67D-05 at cycle   6 NSaved=   6.
 NSaved= 6 IEnMin= 6 EnMin= -3.13065549214591     IErMin= 6 ErrMin= 7.67D-05
 ErrMax= 7.67D-05  0.00D+00 EMaxC= 1.00D-01 BMatC= 1.27D-07 BMatP= 3.48D-06
 IDIUse=1 WtCom= 1.00D+00 WtEn= 0.00D+00
 Coeff-Com:  0.133D-02 0.118D-02-0.730D-01 0.327D+00-0.827D+00 0.157D+01
 Coeff:      0.133D-02 0.118D-02-0.730D-01 0.327D+00-0.827D+00 0.157D+01
 Gap=     0.456 Goal=   None    Shift=    0.000
 RMSDP=4.41D-05 MaxDP=5.01D-04 DE=-1.68D-05 OVMax= 3.48D-04

 Cycle   7  Pass 1  IDiag  3:
 E= -3.13065607793149     Delta-E=       -0.000000585786 Rises=F Damp=F
 DIIS: error= 1.28D-05 at cycle   7 NSaved=   7.
 NSaved= 7 IEnMin= 7 EnMin= -3.13065607793149     IErMin= 7 ErrMin= 1.28D-05
 ErrMax= 1.28D-05  0.00D+00 EMaxC= 1.00D-01 BMatC= 4.20D-09 BMatP= 1.27D-07
 IDIUse=1 WtCom= 1.00D+00 WtEn= 0.00D+00
 Coeff-Com: -0.308D-03-0.868D-03 0.235D-01-0.104D+00 0.267D+00-0.630D+00
 Coeff-Com:  0.144D+01
 Coeff:     -0.308D-03-0.868D-03 0.235D-01-0.104D+00 0.267D+00-0.630D+00
 Coeff:      0.144D+01
 Gap=     0.456 Goal=   None    Shift=    0.000
 RMSDP=8.63D-06 MaxDP=9.13D-05 DE=-5.86D-07 OVMax= 6.37D-05

 Cycle   8  Pass 1  IDiag  3:
 E= -3.13065609779204     Delta-E=       -0.000000019861 Rises=F Damp=F
 DIIS: error= 1.71D-06 at cycle   8 NSaved=   8.
 NSaved= 8 IEnMin= 8 EnMin= -3.13065609779204     IErMin= 8 ErrMin= 1.71D-06
 ErrMax= 1.71D-06  0.00D+00 EMaxC= 1.00D-01 BMatC= 1.19D-10 BMatP= 4.20D-09
 IDIUse=1 WtCom= 1.00D+00 WtEn= 0.00D+00
 Coeff-Com:  0.191D-04 0.469D-03-0.617D-02 0.255D-01-0.631D-01 0.153D+00
 Coeff-Com: -0.449D+00 0.134D+01
 Coeff:      0.191D-04 0.469D-03-0.617D-02 0.255D-01-0.631D-01 0.153D+00
 Coeff:     -0.449D+00 0.134D+01
 Gap=     0.456 Goal=   None    Shift=    0.000
 RMSDP=1.21D-06 MaxDP=9.55D-06 DE=-1.99D-08 OVMax= 7.05D-06

 Cycle   9  Pass 1  IDiag  3:
 E= -3.13065609828840     Delta-E=       -0.000000000496 Rises=F Damp=F
 DIIS: error= 5.38D-07 at cycle   9 NSaved=   9.
 NSaved= 9 IEnMin= 9 EnMin= -3.13065609828840     IErMin= 9 ErrMin= 5.38D-07
 ErrMax= 5.38D-07  0.00D+00 EMaxC= 1.00D-01 BMatC= 1.10D-11 BMatP= 1.19D-10
 IDIUse=1 WtCom= 1.00D+00 WtEn= 0.00D+00
 Coeff-Com:  0.468D-06-0.295D-03 0.332D-02-0.134D-01 0.328D-01-0.796D-01
 Coeff-Com:  0.247D+00-0.876D+00 0.169D+01
 Coeff:      0.468D-06-0.295D-03 0.332D-02-0.134D-01 0.328D-01-0.796D-01
 Coeff:      0.247D+00-0.876D+00 0.169D+01
 Gap=     0.456 Goal=   None    Shift=    0.000
 RMSDP=4.60D-07 MaxDP=4.16D-06 DE=-4.96D-10 OVMax= 4.01D-06

 Cycle  10  Pass 1  IDiag  3:
 E= -3.13065609835293     Delta-E=       -0.000000000065 Rises=F Damp=F
 DIIS: error= 2.01D-07 at cycle  10 NSaved=  10.
 NSaved=10 IEnMin=10 EnMin= -3.13065609835293     IErMin=10 ErrMin= 2.01D-07
 ErrMax= 2.01D-07  0.00D+00 EMaxC= 1.00D-01 BMatC= 1.73D-12 BMatP= 1.10D-11
 IDIUse=1 WtCom= 1.00D+00 WtEn= 0.00D+00
 Coeff-Com: -0.670D-05 0.174D-03-0.167D-02 0.652D-02-0.157D-01 0.385D-01
 Coeff-Com: -0.127D+00 0.494D+00-0.135D+01 0.196D+01
 Coeff:     -0.670D-05 0.174D-03-0.167D-02 0.652D-02-0.157D-01 0.385D-01
 Coeff:     -0.127D+00 0.494D+00-0.135D+01 0.196D+01
 Gap=     0.456 Goal=   None    Shift=    0.000
 RMSDP=2.53D-07 MaxDP=1.73D-06 DE=-6.45D-11 OVMax= 2.12D-06

 Cycle  11  Pass 1  IDiag  3:
 E= -3.13065609836433     Delta-E=       -0.000000000011 Rises=F Damp=F
 DIIS: error= 3.80D-08 at cycle  11 NSaved=  11.
 NSaved=11 IEnMin=11 EnMin= -3.13065609836433     IErMin=11 ErrMin= 3.80D-08
 ErrMax= 3.80D-08  0.00D+00 EMaxC= 1.00D-01 BMatC= 5.74D-14 BMatP= 1.73D-12
 IDIUse=1 WtCom= 1.00D+00 WtEn= 0.00D+00
 Coeff-Com:  0.343D-05-0.641D-04 0.574D-03-0.219D-02 0.522D-02-0.128D-01
 Coeff-Com:  0.429D-01-0.170D+00 0.506D+00-0.876D+00 0.151D+01
 Coeff:      0.343D-05-0.641D-04 0.574D-03-0.219D-02 0.522D-02-0.128D-01
 Coeff:      0.429D-01-0.170D+00 0.506D+00-0.876D+00 0.151D+01
 Gap=     0.456 Goal=   None    Shift=    0.000
 RMSDP=3.71D-08 MaxDP=2.72D-07 DE=-1.14D-11 OVMax= 2.57D-07

 Cycle  12  Pass 1  IDiag  3:
 E= -3.13065609836438     Delta-E=        0.000000000000 Rises=F Damp=F
 DIIS: error= 1.12D-08 at cycle  12 NSaved=  12.
 NSaved=12 IEnMin=12 EnMin= -3.13065609836438     IErMin=12 ErrMin= 1.12D-08
 ErrMax= 1.12D-08  0.00D+00 EMaxC= 1.00D-01 BMatC= 2.51D-15 BMatP= 5.74D-14
 IDIUse=1 WtCom= 1.00D+00 WtEn= 0.00D+00
 Coeff-Com: -0.746D-06 0.121D-04-0.103D-03 0.389D-03-0.920D-03 0.226D-02
 Coeff-Com: -0.769D-02 0.296D-01-0.941D-01 0.189D+00-0.519D+00 0.140D+01
 Coeff:     -0.746D-06 0.121D-04-0.103D-03 0.389D-03-0.920D-03 0.226D-02
 Coeff:     -0.769D-02 0.296D-01-0.941D-01 0.189D+00-0.519D+00 0.140D+01
 Gap=     0.456 Goal=   None    Shift=    0.000
 RMSDP=7.65D-09 MaxDP=6.53D-08 DE=-5.68D-14 OVMax= 8.71D-08

 Cycle  13  Pass 2  IDiag  1:
 SCF Done:  E(RAM1) =  -3.13065609836     A.U. after   13 cycles
            NFock= 12  Conv=0.76D-08     -V/T= 0.8461
 KE=-2.034556182126D+01 PE=-1.720127597060D+02 EE= 8.609829478011D+01
 Leave Link  502 at Thu Dec 24 04:40:00 2015, MaxMem=    33554432 cpu:         0.0
 (Enter /home/Applications/g09/g09/l601.exe)
 Copying SCF densities to generalized density rwf, IOpCl= 0 IROHF=0.

 **********************************************************************

            Population analysis using the SCF density.

 **********************************************************************

 Orbital symmetries:
       Occupied  (A) (A) (A) (A) (A) (A) (A) (A) (A) (A) (A) (A)
                 (A)
       Virtual   (A) (A) (A) (A) (A) (A) (A) (A) (A) (A) (A)
 The electronic state is 1-A.
 Alpha  occ. eigenvalues --   -1.70609  -1.30441  -1.21823  -1.00660  -0.91883
 Alpha  occ. eigenvalues --   -0.88386  -0.73236  -0.49655  -0.46483  -0.39796
 Alpha  occ. eigenvalues --   -0.36612  -0.35304  -0.23198
 Alpha virt. eigenvalues --    0.22422   0.25177   0.32087   0.33323   0.33619
 Alpha virt. eigenvalues --    0.36304   0.39002   0.40089   0.44480   0.45247
 Alpha virt. eigenvalues --    0.51723
          Condensed to atoms (all electrons):
               1          2          3          4          5          6
     1  C    4.553150   0.000000   0.000000   0.000000   0.000000   0.000000
     2  C    0.000000   3.198001   0.000000   0.000000   0.000000   0.000000
     3  O    0.000000   0.000000   7.140365   0.000000   0.000000   0.000000
     4  C    0.000000   0.000000   0.000000   3.259866   0.000000   0.000000
     5  C    0.000000   0.000000   0.000000   0.000000   4.480560   0.000000
     6  H    0.000000   0.000000   0.000000   0.000000   0.000000   0.781997
     7  H    0.000000   0.000000   0.000000   0.000000   0.000000   0.000000
     8  H    0.000000   0.000000   0.000000   0.000000   0.000000   0.000000
     9  H    0.000000   0.000000   0.000000   0.000000   0.000000   0.000000
               7          8          9
     1  C    0.000000   0.000000   0.000000
     2  C    0.000000   0.000000   0.000000
     3  O    0.000000   0.000000   0.000000
     4  C    0.000000   0.000000   0.000000
     5  C    0.000000   0.000000   0.000000
     6  H    0.000000   0.000000   0.000000
     7  H    0.908177   0.000000   0.000000
     8  H    0.000000   0.914846   0.000000
     9  H    0.000000   0.000000   0.763039
 Mulliken charges:
               1
     1  C   -0.553150
     2  C    0.801999
     3  O   -1.140365
     4  C    0.740134
     5  C   -0.480560
     6  H    0.218003
     7  H    0.091823
     8  H    0.085154
     9  H    0.236961
 Sum of Mulliken charges =   0.00000
 Mulliken charges with hydrogens summed into heavy atoms:
               1
     1  C   -0.316189
     2  C    0.887153
     3  O   -1.140365
     4  C    0.831957
     5  C   -0.262556
 Charge=              0.0000 electrons
 Dipole moment (field-independent basis, Debye):
    X=              0.0807    Y=              1.4158    Z=              0.1033  Tot=              1.4218
 N-N= 1.031293706488D+02 E-N=-1.720127597431D+02  KE=-2.034556182126D+01
 Leave Link  601 at Thu Dec 24 04:40:00 2015, MaxMem=    33554432 cpu:         0.0
 (Enter /home/Applications/g09/g09/l701.exe)
 Compute integral first derivatives.
 ... and contract with generalized density number  0.
 Leave Link  701 at Thu Dec 24 04:40:00 2015, MaxMem=    33554432 cpu:         0.0
 (Enter /home/Applications/g09/g09/l702.exe)
 L702 exits ... SP integral derivatives will be done elsewhere.
 Leave Link  702 at Thu Dec 24 04:40:00 2015, MaxMem=    33554432 cpu:         0.0
 (Enter /home/Applications/g09/g09/l703.exe)
 Compute integral first derivatives, UseDBF=F ICtDFT=           0.
 Integral derivatives from FoFJK, PRISM(SPDF).
 Calling FoFJK, ICntrl=      2127 FMM=F ISym2X=0 I1Cent= 0 IOpClX= 0 NMat=1 NMatS=1 NMatT=0.
 FoFJK:  IHMeth= 8 ICntrl=    2127 DoSepK=F KAlg= 0 I1Cent=   0 FoldK=F
 IRaf=         0 NMat=   1 IRICut=       1 DoRegI=T DoRafI=F ISym2E= 0.
 FoFCou: FMM=F IPFlag=           0 FMFlag=      100000 FMFlg1=         800
         NFxFlg=           0 DoJE=F BraDBF=F KetDBF=F FulRan=T
         wScrn=  0.000000 ICntrl=    2127 IOpCl=  0 I1Cent=           0 NGrid=           0
         NMat0=    1 NMatS0=      1 NMatT0=    0 NMatD0=    1 NMtDS0=    0 NMtDT0=    0
 Symmetry not used in FoFCou.
 Leave Link  703 at Thu Dec 24 04:40:00 2015, MaxMem=    33554432 cpu:         0.0
 (Enter /home/Applications/g09/g09/l716.exe)
 Dipole        = 3.17549742D-02 5.57008142D-01 4.06452401D-02
 ***** Axes restored to original set *****
 -------------------------------------------------------------------
 Center     Atomic                   Forces (Hartrees/Bohr)
 Number     Number              X              Y              Z
 -------------------------------------------------------------------
      1        6           0.022641462   -0.072631367    0.000014366
      2        6          -0.015188581   -0.057288503   -0.003655425
      3        8          -0.031501373   -0.002097381    0.002611485
      4        6          -0.051107696    0.081743449   -0.000384236
      5        6           0.083810016    0.089160229    0.003808906
      6        1          -0.013873292   -0.021082176   -0.001421611
      7        1           0.007998406   -0.023289365   -0.002168020
      8        1          -0.003208681   -0.002352297    0.001372766
      9        1           0.000429738    0.007837411   -0.000178231
 -------------------------------------------------------------------
 Cartesian Forces:  Max     0.089160229 RMS     0.036478921
 Leave Link  716 at Thu Dec 24 04:40:00 2015, MaxMem=    33554432 cpu:         0.0
 (Enter /home/Applications/g09/g09/l103.exe)

 GradGradGradGradGradGradGradGradGradGradGradGradGradGradGradGradGradGrad
 Berny optimization.
 FormGI is forming the generalized inverse of G from B-inverse, IUseBI=4.
 Internal  Forces:  Max     0.082881974 RMS     0.022003575
 Search for a local minimum.
 Step number   1 out of a maximum of   48
 All quantities printed in internal units (Hartrees-Bohrs-Radians)
 RMS Force = .22004D-01 SwitMx=.10000D-02 MixMth= 1
 Mixed Optimization -- RFO/linear search
 Second derivative matrix not updated -- first step.
 ITU=  0
     Eigenvalues ---    0.02008   0.02197   0.02375   0.02565   0.02657
     Eigenvalues ---    0.02919   0.15982   0.15992   0.15998   0.16000
     Eigenvalues ---    0.21998   0.22887   0.32711   0.33205   0.36498
     Eigenvalues ---    0.37269   0.38004   0.46217   0.49600   0.53555
     Eigenvalues ---    0.59777
 RFO step:  Lambda=-3.93192975D-02 EMin= 2.00813099D-02
 Linear search not attempted -- first point.
 Maximum step size (   0.300) exceeded in Quadratic search.
    -- Step size scaled by   0.999
 Iteration  1 RMS(Cart)=  0.04842461 RMS(Int)=  0.00137965
 Iteration  2 RMS(Cart)=  0.00128088 RMS(Int)=  0.00052069
 Iteration  3 RMS(Cart)=  0.00000145 RMS(Int)=  0.00052068
 Iteration  4 RMS(Cart)=  0.00000000 RMS(Int)=  0.00052068
 ITry= 1 IFail=0 DXMaxC= 1.26D-01 DCOld= 1.00D+10 DXMaxT= 3.00D-01 DXLimC= 3.00D+00 Rises=F
 Variable       Old X    -DE/DX   Delta X   Delta X   Delta X     New X
                                 (Linear)    (Quad)   (Total)
    R1        2.55039   0.03621   0.00000   0.05855   0.05824   2.60863
    R2        2.71768   0.08288   0.00000   0.19117   0.19132   2.90901
    R3        2.03310  -0.00441   0.00000  -0.01091  -0.01091   2.02220
    R4        2.56182   0.04148   0.00000   0.06861   0.06827   2.63008
    R5        2.02143   0.00359   0.00000   0.00871   0.00871   2.03014
    R6        2.60089   0.04515   0.00000   0.08487   0.08494   2.68583
    R7        2.49549   0.06223   0.00000   0.09773   0.09813   2.59362
    R8        2.08692  -0.02432   0.00000  -0.06543  -0.06543   2.02149
    R9        2.09561  -0.02397   0.00000  -0.06536  -0.06536   2.03026
    A1        1.81950   0.00900   0.00000   0.03386   0.03367   1.85317
    A2        2.22155   0.00210   0.00000   0.01615   0.01624   2.23779
    A3        2.24214  -0.01110   0.00000  -0.05002  -0.04993   2.19221
    A4        1.94864  -0.00964   0.00000  -0.04642  -0.04710   1.90154
    A5        2.34572   0.00654   0.00000   0.03202   0.03230   2.37801
    A6        1.98831   0.00313   0.00000   0.01492   0.01519   2.00350
    A7        1.85081   0.02214   0.00000   0.07281   0.07241   1.92322
    A8        1.91779  -0.00929   0.00000  -0.02504  -0.02460   1.89319
    A9        1.99688   0.00029   0.00000  -0.00931  -0.00951   1.98737
   A10        2.36836   0.00898   0.00000   0.03425   0.03401   2.40238
   A11        1.88765  -0.01217   0.00000  -0.03440  -0.03399   1.85366
   A12        2.21903  -0.00218   0.00000  -0.02394  -0.02434   2.19469
   A13        2.17577   0.01441   0.00000   0.05934   0.05898   2.23475
    D1        0.00187  -0.00019   0.00000  -0.00121  -0.00079   0.00108
    D2        3.10559   0.00101   0.00000   0.01729   0.01777   3.12336
    D3       -3.14127  -0.00038   0.00000  -0.00591  -0.00618   3.13574
    D4       -0.03754   0.00082   0.00000   0.01258   0.01238  -0.02517
    D5        0.01453  -0.00099   0.00000  -0.01590  -0.01600  -0.00148
    D6        3.11619   0.00094   0.00000   0.01236   0.01110   3.12729
    D7       -3.12550  -0.00081   0.00000  -0.01121  -0.01087  -3.13637
    D8       -0.02384   0.00112   0.00000   0.01706   0.01623  -0.00760
    D9       -0.01675   0.00095   0.00000   0.01634   0.01641  -0.00033
   D10       -3.12874  -0.00014   0.00000   0.00116   0.00153  -3.12721
   D11        0.02619  -0.00155   0.00000  -0.02635  -0.02686  -0.00067
   D12       -3.09971  -0.00120   0.00000  -0.02179  -0.02305  -3.12276
   D13       -0.02542   0.00197   0.00000   0.02770   0.02669   0.00127
   D14       -3.12832   0.00055   0.00000   0.00260   0.00121  -3.12710
   D15        3.09572   0.00133   0.00000   0.02095   0.02068   3.11640
   D16       -0.00717  -0.00010   0.00000  -0.00415  -0.00480  -0.01198
         Item               Value     Threshold  Converged?
 Maximum Force            0.082882     0.000450     NO 
 RMS     Force            0.022004     0.000300     NO 
 Maximum Displacement     0.126479     0.001800     NO 
 RMS     Displacement     0.048066     0.001200     NO 
 Predicted change in Energy=-2.149411D-02
 Lowest energy point so far.  Saving SCF results.
 GradGradGradGradGradGradGradGradGradGradGradGradGradGradGradGradGradGrad

 Leave Link  103 at Thu Dec 24 04:40:00 2015, MaxMem=    33554432 cpu:         0.0
 (Enter /home/Applications/g09/g09/l202.exe)
                          Input orientation:                          
 ---------------------------------------------------------------------
 Center     Atomic      Atomic             Coordinates (Angstroms)
 Number     Number       Type             X           Y           Z
 ---------------------------------------------------------------------
      1          6           0        0.977580   -0.765530   -0.000542
      2          6           0       -0.349222   -1.146550    0.000769
      3          8           0       -1.146973   -0.006100   -0.003711
      4          6           0       -0.335126    1.160486   -0.007661
      5          6           0        0.981768    0.773839   -0.004869
      6          1           0        1.855350    1.399142    0.005684
      7          1           0       -0.890692    2.074514    0.007201
      8          1           0       -0.890098   -2.074699   -0.010072
      9          1           0        1.845916   -1.390871    0.006884
 ---------------------------------------------------------------------
                    Distance matrix (angstroms):
                    1          2          3          4          5
     1  C    0.000000
     2  C    1.380428   0.000000
     3  O    2.256207   1.391781   0.000000
     4  C    2.330834   2.307095   1.421280   0.000000
     5  C    1.539381   2.336549   2.267123   1.372485   0.000000
     6  H    2.335878   3.367597   3.314927   2.203480   1.074365
     7  H    3.399463   3.266264   2.096366   1.069729   2.279914
     8  H    2.280841   1.074302   2.084497   3.282442   3.408530
     9  H    1.070100   2.208701   3.297740   3.356573   2.330850
                    6          7          8          9
     6  H    0.000000
     7  H    2.827875   0.000000
     8  H    4.427788   4.149249   0.000000
     9  H    2.790030   4.415644   2.820226   0.000000
 Stoichiometry    C4H4O
 Framework group  C1[X(C4H4O)]
 Deg. of freedom    21
 Full point group                 C1      NOp   1
 RotChk:  IX=0 Diff= 2.13D-01
 Largest Abelian subgroup         C1      NOp   1
 Largest concise Abelian subgroup C1      NOp   1
                         Standard orientation:                         
 ---------------------------------------------------------------------
 Center     Atomic      Atomic             Coordinates (Angstroms)
 Number     Number       Type             X           Y           Z
 ---------------------------------------------------------------------
      1          6           0        0.709729    1.010259   -0.000202
      2          6           0        1.168382   -0.291744    0.002427
      3          8           0        0.076991   -1.155408    0.000449
      4          6           0       -1.135474   -0.413821   -0.003142
      5          6           0       -0.827208    0.923597   -0.002613
      6          1           0       -1.502960    1.758773    0.007540
      7          1           0       -2.015106   -1.022333    0.013612
      8          1           0        2.126818   -0.776923   -0.008842
      9          1           0        1.282748    1.913992    0.005270
 ---------------------------------------------------------------------
 Rotational constants (GHZ):      9.1354040      8.5943748      4.4283618
 Leave Link  202 at Thu Dec 24 04:40:00 2015, MaxMem=    33554432 cpu:         0.0
 (Enter /home/Applications/g09/g09/l301.exe)

 Semi-emprical parameters in input format:
 Method=8 CoreType=1 PeptideFC=0.0111920000 RIJScale=0.6126540000
 ****
 H       
 PQN=1 NValence=1 F0ss=0.3657200000 ZetaOverlap=1.1898590000 U=-0.3271920000
 Beta=-0.2566630000 CoreKO=1.0512780000 KON=0,0,0,0.9781540000 KON=1,0,1,0.9891250000
 KON=0,1,1,1.0267330000 KON=2,1,1,1.1475120000 EISol=-0.4188110042 EHeat=0.0830298228
 Alpha=1.5252600000
 GCore=0.0087860000,1.3438120000,2.2676710000
 GCore=0.0003540000,1.2763360000,2.5068130000
 GCore=-0.0012860000,0.6642910000,3.7092900000
 ****
 C       
 PQN=2,2 NValence=4 F0ss=0.4593770000 F0sp=0.3789850000 F0pp=0.3911740000 F2pp=0.1891150000
 G1sp=0.2794120000
 ZetaOverlap=1.7545260000,1.3966830000
 U=-1.7553130000,-1.4457960000
 Beta=-0.6059280000,-0.3278770000 DDN=0,1,0.8249730000 DDN=1,1,0.7707940000
 CoreKO=1.0982170000 KON=0,0,0,1.0185120000 KON=1,0,1,0.7597990000 KON=0,1,1,0.9165830000
 KON=2,1,1,0.8455180000 EISol=-4.4398989268 EHeat=0.2723305520 Alpha=1.4014060000
 DipHyp=1.6498510772
 GCore=0.0008410000,1.3150300000,2.9551730000
 GCore=0.0026390000,1.4897280000,3.1116680000
 GCore=-0.0014350000,1.3724060000,4.5540710000
 GCore=-0.0001010000,1.0527030000,4.6044920000
 ****
 O       
 PQN=2,2 NValence=6 F0ss=0.5057590000 F0sp=0.5412450000 F0pp=0.4592300000 F2pp=0.2358450000
 G1sp=0.4248810000
 ZetaOverlap=2.7344710000,1.9794440000
 U=-3.6315870000,-3.2361800000
 Beta=-1.0226630000,-1.2989790000 DDN=0,1,0.4988900000 DDN=1,1,0.4321610000
 CoreKO=1.0809880000 KON=0,0,0,0.7052230000 KON=1,0,1,0.4239620000 KON=0,1,1,0.7866010000
 KON=2,1,1,0.6324260000 EISol=-11.6164441184 EHeat=0.0949133088 Alpha=2.9491300000
 DipHyp=0.9977225968
 GCore=0.0195990000,1.2257140000,2.0315570000
 GCore=0.0045750000,1.9507830000,2.5903420000
 ****
 
 Standard basis: VSTO-6G (5D, 7F)
 Ernie: Thresh=  0.10000D-02 Tol=  0.10000D-05 Strict=F.
  NNHCO=     0 NNPyr=     0 NCTC=     0               EPep=         0.000000000
    EC=        66.911669181  ECS=         1.639487150   EG=         0.467592196
   EHC=         0.000000000  EAt=       -31.051283842  AtH=         1.516354808
 EPDDG=         0.000000000  ECC=        69.018748527 EAtT=        32.567638650
 There are    24 symmetry adapted cartesian basis functions of A   symmetry.
 There are    24 symmetry adapted basis functions of A   symmetry.
    24 basis functions,   144 primitive gaussians,    24 cartesian basis functions
    13 alpha electrons       13 beta electrons
       nuclear repulsion energy       101.5863871776 Hartrees.
 IExCor=    0 DFT=F Ex=HF Corr=None ExCW=0 ScaHFX=  1.000000
 ScaDFX=  1.000000  1.000000  1.000000  1.000000 ScalE2=  1.000000  1.000000
 IRadAn=      0 IRanWt=     -1 IRanGd=            0 ICorTp=0 IEmpDi=  4
 Integral buffers will be    131072 words long.
 Regular integral format.
 Two-electron integral symmetry is turned off.
 Leave Link  301 at Thu Dec 24 04:40:00 2015, MaxMem=    33554432 cpu:         0.0
 (Enter /home/Applications/g09/g09/l302.exe)
 Do NDO integrals.
 NPDir=0 NMtPBC=     1 NCelOv=     1 NCel=       1 NClECP=     1 NCelD=      1
         NCelK=      1 NCelE2=     1 NClLst=     1 CellRange=     0.0.
 One-electron integrals computed using PRISM.
 NBasis=    24 RedAO= F EigKep=  0.00D+00  NBF=    24
 NBsUse=    24 1.00D-04 EigRej=  0.00D+00 NBFU=    24
 Leave Link  302 at Thu Dec 24 04:40:00 2015, MaxMem=    33554432 cpu:         0.0
 (Enter /home/Applications/g09/g09/l303.exe)
 DipDrv:  MaxL=1.
 Leave Link  303 at Thu Dec 24 04:40:00 2015, MaxMem=    33554432 cpu:         0.0
 (Enter /home/Applications/g09/g09/l401.exe)
 Initial guess from the checkpoint file:  "/home/Applications/g09/scratch/Gau-19253.chk"
 B after Tr=     0.000000    0.000000    0.000000
         Rot=    0.997174   -0.000075   -0.000116   -0.075132 Ang=  -8.62 deg.
 Guess basis will be translated and rotated to current coordinates.
 JPrj=0 DoOrth=T DoCkMO=T.
 Leave Link  401 at Thu Dec 24 04:40:00 2015, MaxMem=    33554432 cpu:         0.0
 (Enter /home/Applications/g09/g09/l502.exe)
 Closed shell SCF:
 Using DIIS extrapolation, IDIIS=  1040.
 Overlap will be assumed to be unity.
 Two-electron integral symmetry not used.
 Keep J ints in memory in canonical form, NReq=888082.
 IVT=       79475 IEndB=       79475 NGot=    33554432 MDV=    33473473
 LenX=    33473473 LenY=    33472456
 Requested convergence on RMS density matrix=1.00D-08 within 128 cycles.
 Requested convergence on MAX density matrix=1.00D-06.
 Requested convergence on             energy=1.00D-06.
 No special actions if energy rises.
 FoFCou: FMM=F IPFlag=           0 FMFlag=           0 FMFlg1=           0
         NFxFlg=           0 DoJE=F BraDBF=F KetDBF=F FulRan=T
         wScrn=  0.000000 ICntrl=     600 IOpCl=  2 I1Cent=           0 NGrid=           0
         NMat0=    1 NMatS0=     54 NMatT0=    0 NMatD0=    1 NMtDS0=    0 NMtDT0=    0
 Symmetry not used in FoFCou.

 Cycle   1  Pass 1  IDiag  1:
 E= -3.13644789069478    
 DIIS: error= 7.96D-03 at cycle   1 NSaved=   1.
 NSaved= 1 IEnMin= 1 EnMin= -3.13644789069478     IErMin= 1 ErrMin= 7.96D-03
 ErrMax= 7.96D-03  0.00D+00 EMaxC= 1.00D-01 BMatC= 3.80D-03 BMatP= 3.80D-03
 IDIUse=3 WtCom= 9.20D-01 WtEn= 7.96D-02
 Coeff-Com:  0.100D+01
 Coeff-En:   0.100D+01
 Coeff:      0.100D+01
 GapD=    2.000 DampG=2.000 DampE=1.000 DampFc=2.0000 IDamp=-1.
 RMSDP=2.97D-03 MaxDP=1.26D-02              OVMax= 0.00D+00

 Cycle   2  Pass 1  IDiag  3:
 E= -3.14370504650353     Delta-E=       -0.007257155809 Rises=F Damp=F
 DIIS: error= 1.98D-03 at cycle   2 NSaved=   2.
 NSaved= 2 IEnMin= 2 EnMin= -3.14370504650353     IErMin= 2 ErrMin= 1.98D-03
 ErrMax= 1.98D-03  0.00D+00 EMaxC= 1.00D-01 BMatC= 2.05D-04 BMatP= 3.80D-03
 IDIUse=3 WtCom= 9.80D-01 WtEn= 1.98D-02
 Coeff-Com: -0.251D+00 0.125D+01
 Coeff-En:   0.000D+00 0.100D+01
 Coeff:     -0.246D+00 0.125D+01
 Gap=     0.452 Goal=   None    Shift=    0.000
 RMSDP=1.10D-03 MaxDP=5.06D-03 DE=-7.26D-03 OVMax= 6.44D-03

 Cycle   3  Pass 1  IDiag  3:
 E= -3.14429679396066     Delta-E=       -0.000591747457 Rises=F Damp=F
 DIIS: error= 4.63D-04 at cycle   3 NSaved=   3.
 NSaved= 3 IEnMin= 3 EnMin= -3.14429679396066     IErMin= 3 ErrMin= 4.63D-04
 ErrMax= 4.63D-04  0.00D+00 EMaxC= 1.00D-01 BMatC= 8.60D-06 BMatP= 2.05D-04
 IDIUse=3 WtCom= 9.95D-01 WtEn= 4.63D-03
 Coeff-Com:  0.112D+00-0.628D+00 0.152D+01
 Coeff-En:   0.000D+00 0.000D+00 0.100D+01
 Coeff:      0.112D+00-0.626D+00 0.151D+01
 Gap=     0.452 Goal=   None    Shift=    0.000
 RMSDP=3.50D-04 MaxDP=2.28D-03 DE=-5.92D-04 OVMax= 2.17D-03

 Cycle   4  Pass 1  IDiag  3:
 E= -3.14433545200477     Delta-E=       -0.000038658044 Rises=F Damp=F
 DIIS: error= 9.65D-05 at cycle   4 NSaved=   4.
 NSaved= 4 IEnMin= 4 EnMin= -3.14433545200477     IErMin= 4 ErrMin= 9.65D-05
 ErrMax= 9.65D-05  0.00D+00 EMaxC= 1.00D-01 BMatC= 3.40D-07 BMatP= 8.60D-06
 IDIUse=1 WtCom= 1.00D+00 WtEn= 0.00D+00
 Coeff-Com: -0.248D-01 0.149D+00-0.491D+00 0.137D+01
 Coeff:     -0.248D-01 0.149D+00-0.491D+00 0.137D+01
 Gap=     0.452 Goal=   None    Shift=    0.000
 RMSDP=6.85D-05 MaxDP=5.35D-04 DE=-3.87D-05 OVMax= 3.49D-04

 Cycle   5  Pass 1  IDiag  3:
 E= -3.14433695857008     Delta-E=       -0.000001506565 Rises=F Damp=F
 DIIS: error= 2.53D-05 at cycle   5 NSaved=   5.
 NSaved= 5 IEnMin= 5 EnMin= -3.14433695857008     IErMin= 5 ErrMin= 2.53D-05
 ErrMax= 2.53D-05  0.00D+00 EMaxC= 1.00D-01 BMatC= 2.26D-08 BMatP= 3.40D-07
 IDIUse=1 WtCom= 1.00D+00 WtEn= 0.00D+00
 Coeff-Com:  0.300D-02-0.193D-01 0.918D-01-0.484D+00 0.141D+01
 Coeff:      0.300D-02-0.193D-01 0.918D-01-0.484D+00 0.141D+01
 Gap=     0.452 Goal=   None    Shift=    0.000
 RMSDP=1.79D-05 MaxDP=1.30D-04 DE=-1.51D-06 OVMax= 9.93D-05

 Cycle   6  Pass 1  IDiag  3:
 E= -3.14433706735156     Delta-E=       -0.000000108781 Rises=F Damp=F
 DIIS: error= 9.88D-06 at cycle   6 NSaved=   6.
 NSaved= 6 IEnMin= 6 EnMin= -3.14433706735156     IErMin= 6 ErrMin= 9.88D-06
 ErrMax= 9.88D-06  0.00D+00 EMaxC= 1.00D-01 BMatC= 2.64D-09 BMatP= 2.26D-08
 IDIUse=1 WtCom= 1.00D+00 WtEn= 0.00D+00
 Coeff-Com: -0.136D-03 0.197D-02-0.289D-01 0.255D+00-0.105D+01 0.182D+01
 Coeff:     -0.136D-03 0.197D-02-0.289D-01 0.255D+00-0.105D+01 0.182D+01
 Gap=     0.452 Goal=   None    Shift=    0.000
 RMSDP=7.98D-06 MaxDP=5.93D-05 DE=-1.09D-07 OVMax= 4.87D-05

 Cycle   7  Pass 1  IDiag  3:
 E= -3.14433708275321     Delta-E=       -0.000000015402 Rises=F Damp=F
 DIIS: error= 2.37D-06 at cycle   7 NSaved=   7.
 NSaved= 7 IEnMin= 7 EnMin= -3.14433708275321     IErMin= 7 ErrMin= 2.37D-06
 ErrMax= 2.37D-06  0.00D+00 EMaxC= 1.00D-01 BMatC= 1.56D-10 BMatP= 2.64D-09
 IDIUse=1 WtCom= 1.00D+00 WtEn= 0.00D+00
 Coeff-Com: -0.173D-03 0.533D-03 0.719D-02-0.895D-01 0.415D+00-0.916D+00
 Coeff-Com:  0.158D+01
 Coeff:     -0.173D-03 0.533D-03 0.719D-02-0.895D-01 0.415D+00-0.916D+00
 Coeff:      0.158D+01
 Gap=     0.452 Goal=   None    Shift=    0.000
 RMSDP=1.93D-06 MaxDP=1.58D-05 DE=-1.54D-08 OVMax= 1.36D-05

 Cycle   8  Pass 1  IDiag  3:
 E= -3.14433708362132     Delta-E=       -0.000000000868 Rises=F Damp=F
 DIIS: error= 6.12D-07 at cycle   8 NSaved=   8.
 NSaved= 8 IEnMin= 8 EnMin= -3.14433708362132     IErMin= 8 ErrMin= 6.12D-07
 ErrMax= 6.12D-07  0.00D+00 EMaxC= 1.00D-01 BMatC= 8.68D-12 BMatP= 1.56D-10
 IDIUse=1 WtCom= 1.00D+00 WtEn= 0.00D+00
 Coeff-Com:  0.693D-04-0.177D-03-0.372D-02 0.444D-01-0.206D+00 0.468D+00
 Coeff-Com: -0.962D+00 0.166D+01
 Coeff:      0.693D-04-0.177D-03-0.372D-02 0.444D-01-0.206D+00 0.468D+00
 Coeff:     -0.962D+00 0.166D+01
 Gap=     0.452 Goal=   None    Shift=    0.000
 RMSDP=4.40D-07 MaxDP=3.88D-06 DE=-8.68D-10 OVMax= 2.94D-06

 Cycle   9  Pass 1  IDiag  3:
 E= -3.14433708366802     Delta-E=       -0.000000000047 Rises=F Damp=F
 DIIS: error= 1.07D-07 at cycle   9 NSaved=   9.
 NSaved= 9 IEnMin= 9 EnMin= -3.14433708366802     IErMin= 9 ErrMin= 1.07D-07
 ErrMax= 1.07D-07  0.00D+00 EMaxC= 1.00D-01 BMatC= 3.96D-13 BMatP= 8.68D-12
 IDIUse=1 WtCom= 1.00D+00 WtEn= 0.00D+00
 Coeff-Com: -0.369D-04 0.107D-03 0.169D-02-0.208D-01 0.973D-01-0.224D+00
 Coeff-Com:  0.478D+00-0.953D+00 0.162D+01
 Coeff:     -0.369D-04 0.107D-03 0.169D-02-0.208D-01 0.973D-01-0.224D+00
 Coeff:      0.478D+00-0.953D+00 0.162D+01
 Gap=     0.452 Goal=   None    Shift=    0.000
 RMSDP=9.27D-08 MaxDP=8.46D-07 DE=-4.67D-11 OVMax= 6.71D-07

 Cycle  10  Pass 1  IDiag  3:
 E= -3.14433708367028     Delta-E=       -0.000000000002 Rises=F Damp=F
 DIIS: error= 2.69D-08 at cycle  10 NSaved=  10.
 NSaved=10 IEnMin=10 EnMin= -3.14433708367028     IErMin=10 ErrMin= 2.69D-08
 ErrMax= 2.69D-08  0.00D+00 EMaxC= 1.00D-01 BMatC= 2.01D-14 BMatP= 3.96D-13
 IDIUse=1 WtCom= 1.00D+00 WtEn= 0.00D+00
 Coeff-Com:  0.156D-04-0.435D-04-0.739D-03 0.902D-02-0.420D-01 0.968D-01
 Coeff-Com: -0.207D+00 0.424D+00-0.886D+00 0.161D+01
 Coeff:      0.156D-04-0.435D-04-0.739D-03 0.902D-02-0.420D-01 0.968D-01
 Coeff:     -0.207D+00 0.424D+00-0.886D+00 0.161D+01
 Gap=     0.452 Goal=   None    Shift=    0.000
 RMSDP=2.12D-08 MaxDP=1.76D-07 DE=-2.26D-12 OVMax= 1.06D-07

 Cycle  11  Pass 1  IDiag  3:
 E= -3.14433708367037     Delta-E=        0.000000000000 Rises=F Damp=F
 DIIS: error= 3.75D-09 at cycle  11 NSaved=  11.
 NSaved=11 IEnMin=11 EnMin= -3.14433708367037     IErMin=11 ErrMin= 3.75D-09
 ErrMax= 3.75D-09  0.00D+00 EMaxC= 1.00D-01 BMatC= 4.62D-16 BMatP= 2.01D-14
 IDIUse=1 WtCom= 1.00D+00 WtEn= 0.00D+00
 Coeff-Com: -0.568D-05 0.150D-04 0.287D-03-0.345D-02 0.161D-01-0.370D-01
 Coeff-Com:  0.792D-01-0.163D+00 0.350D+00-0.715D+00 0.147D+01
 Coeff:     -0.568D-05 0.150D-04 0.287D-03-0.345D-02 0.161D-01-0.370D-01
 Coeff:      0.792D-01-0.163D+00 0.350D+00-0.715D+00 0.147D+01
 Gap=     0.452 Goal=   None    Shift=    0.000
 RMSDP=2.56D-09 MaxDP=2.42D-08 DE=-8.53D-14 OVMax= 1.35D-08

 Cycle  12  Pass 2  IDiag  1:
 SCF Done:  E(RAM1) =  -3.14433708367     A.U. after   12 cycles
            NFock= 11  Conv=0.26D-08     -V/T= 0.8441
 KE=-2.016467340358D+01 PE=-1.694462557358D+02 EE= 8.488020487810D+01
 Leave Link  502 at Thu Dec 24 04:40:00 2015, MaxMem=    33554432 cpu:         0.0
 (Enter /home/Applications/g09/g09/l701.exe)
 Compute integral first derivatives.
 ... and contract with generalized density number  0.
 Leave Link  701 at Thu Dec 24 04:40:00 2015, MaxMem=    33554432 cpu:         0.0
 (Enter /home/Applications/g09/g09/l702.exe)
 L702 exits ... SP integral derivatives will be done elsewhere.
 Leave Link  702 at Thu Dec 24 04:40:00 2015, MaxMem=    33554432 cpu:         0.0
 (Enter /home/Applications/g09/g09/l703.exe)
 Compute integral first derivatives, UseDBF=F ICtDFT=           0.
 Integral derivatives from FoFJK, PRISM(SPDF).
 Calling FoFJK, ICntrl=      2127 FMM=F ISym2X=0 I1Cent= 0 IOpClX= 0 NMat=1 NMatS=1 NMatT=0.
 FoFJK:  IHMeth= 8 ICntrl=    2127 DoSepK=F KAlg= 0 I1Cent=   0 FoldK=F
 IRaf=         0 NMat=   1 IRICut=       1 DoRegI=T DoRafI=F ISym2E= 0.
 FoFCou: FMM=F IPFlag=           0 FMFlag=      100000 FMFlg1=         800
         NFxFlg=           0 DoJE=F BraDBF=F KetDBF=F FulRan=T
         wScrn=  0.000000 ICntrl=    2127 IOpCl=  0 I1Cent=           0 NGrid=           0
         NMat0=    1 NMatS0=      1 NMatT0=    0 NMatD0=    1 NMtDS0=    0 NMtDT0=    0
 Symmetry not used in FoFCou.
 Leave Link  703 at Thu Dec 24 04:40:00 2015, MaxMem=    33554432 cpu:         0.0
 (Enter /home/Applications/g09/g09/l716.exe)
 Dipole        =-4.70047522D-02 5.29451950D-01 9.43760779D-03
 ***** Axes restored to original set *****
 -------------------------------------------------------------------
 Center     Atomic                   Forces (Hartrees/Bohr)
 Number     Number              X              Y              Z
 -------------------------------------------------------------------
      1        6          -0.031152253   -0.005596763    0.000421134
      2        6           0.034840470    0.021286510   -0.001612407
      3        8          -0.004237159    0.000318416   -0.000366889
      4        6           0.030843748   -0.019194165    0.002037311
      5        6          -0.028602618    0.003642742    0.000824166
      6        1          -0.001983941   -0.009782839   -0.000741898
      7        1          -0.000629048   -0.006982570   -0.001077510
      8        1           0.000580203    0.008436575    0.000772954
      9        1           0.000340599    0.007872094   -0.000256860
 -------------------------------------------------------------------
 Cartesian Forces:  Max     0.034840470 RMS     0.013784659
 Leave Link  716 at Thu Dec 24 04:40:00 2015, MaxMem=    33554432 cpu:         0.0
 (Enter /home/Applications/g09/g09/l103.exe)

 GradGradGradGradGradGradGradGradGradGradGradGradGradGradGradGradGradGrad
 Berny optimization.
 Using GEDIIS/GDIIS optimizer.
 FormGI is forming the generalized inverse of G from B-inverse, IUseBI=4.
 Internal  Forces:  Max     0.035227089 RMS     0.009559357
 Search for a local minimum.
 Step number   2 out of a maximum of   48
 All quantities printed in internal units (Hartrees-Bohrs-Radians)
 RMS Force = .95594D-02 SwitMx=.10000D-02 MixMth= 1
 Mixed Optimization -- RFO/linear search
 Update second derivatives using D2CorX and points    1    2
 DE= -1.37D-02 DEPred=-2.15D-02 R= 6.36D-01
 TightC=F SS=  1.41D+00  RLast= 3.06D-01 DXNew= 5.0454D-01 9.1936D-01
 Trust test= 6.36D-01 RLast= 3.06D-01 DXMaxT set to 5.05D-01
 ITU=  1  0
 Use linear search instead of GDIIS.
     Eigenvalues ---    0.02027   0.02208   0.02372   0.02567   0.02660
     Eigenvalues ---    0.02937   0.15057   0.15996   0.15999   0.16005
     Eigenvalues ---    0.22026   0.23779   0.31381   0.33021   0.36394
     Eigenvalues ---    0.37161   0.40371   0.46039   0.50708   0.54423
     Eigenvalues ---    0.81989
 RFO step:  Lambda=-3.34018554D-03 EMin= 2.02688616D-02
 Quartic linear search produced a step of -0.22187.
 Iteration  1 RMS(Cart)=  0.02425760 RMS(Int)=  0.00034275
 Iteration  2 RMS(Cart)=  0.00031876 RMS(Int)=  0.00012905
 Iteration  3 RMS(Cart)=  0.00000008 RMS(Int)=  0.00012905
 ITry= 1 IFail=0 DXMaxC= 8.21D-02 DCOld= 1.00D+10 DXMaxT= 5.05D-01 DXLimC= 3.00D+00 Rises=F
 Variable       Old X    -DE/DX   Delta X   Delta X   Delta X     New X
                                 (Linear)    (Quad)   (Total)
    R1        2.60863  -0.03523  -0.01292  -0.03229  -0.04516   2.56347
    R2        2.90901  -0.01799  -0.04245   0.02047  -0.02207   2.88694
    R3        2.02220  -0.00433   0.00242  -0.01234  -0.00992   2.01228
    R4        2.63008  -0.00960  -0.01515   0.00731  -0.00771   2.62237
    R5        2.03014  -0.00759  -0.00193  -0.01311  -0.01505   2.01509
    R6        2.68583  -0.01122  -0.01885   0.00867  -0.01016   2.67567
    R7        2.59362  -0.03141  -0.02177  -0.01019  -0.03207   2.56155
    R8        2.02149  -0.00565   0.01452  -0.03231  -0.01780   2.00370
    R9        2.03026  -0.00731   0.01450  -0.03638  -0.02188   2.00838
    A1        1.85317  -0.00112  -0.00747   0.00164  -0.00584   1.84732
    A2        2.23779   0.00722  -0.00360   0.04022   0.03662   2.27441
    A3        2.19221  -0.00610   0.01108  -0.04184  -0.03076   2.16145
    A4        1.90154   0.00780   0.01045   0.01293   0.02355   1.92509
    A5        2.37801  -0.00009  -0.00717   0.01415   0.00690   2.38491
    A6        2.00350  -0.00771  -0.00337  -0.02690  -0.03036   1.97314
    A7        1.92322  -0.01269  -0.01607  -0.01528  -0.03113   1.89209
    A8        1.89319   0.00480   0.00546   0.00985   0.01518   1.90837
    A9        1.98737  -0.00661   0.00211  -0.03096  -0.02887   1.95850
   A10        2.40238   0.00183  -0.00755   0.02149   0.01392   2.41630
   A11        1.85366   0.00120   0.00754  -0.00914  -0.00177   1.85189
   A12        2.19469  -0.00750   0.00540  -0.03989  -0.03439   2.16030
   A13        2.23475   0.00630  -0.01309   0.04924   0.03624   2.27100
    D1        0.00108   0.00000   0.00017  -0.00120  -0.00116  -0.00008
    D2        3.12336   0.00030  -0.00394   0.01141   0.00741   3.13076
    D3        3.13574   0.00013   0.00137   0.00145   0.00287   3.13862
    D4       -0.02517   0.00044  -0.00275   0.01407   0.01144  -0.01372
    D5       -0.00148   0.00009   0.00355   0.00008   0.00365   0.00217
    D6        3.12729   0.00057  -0.00246   0.01670   0.01424   3.14153
    D7       -3.13637  -0.00012   0.00241  -0.00291  -0.00039  -3.13677
    D8       -0.00760   0.00037  -0.00360   0.01371   0.01020   0.00259
    D9       -0.00033  -0.00008  -0.00364   0.00193  -0.00164  -0.00197
   D10       -3.12721  -0.00037  -0.00034  -0.00808  -0.00833  -3.13554
   D11       -0.00067   0.00014   0.00596  -0.00189   0.00411   0.00344
   D12       -3.12276  -0.00055   0.00511  -0.01768  -0.01208  -3.13484
   D13        0.00127  -0.00013  -0.00592   0.00106  -0.00464  -0.00337
   D14       -3.12710  -0.00050  -0.00027  -0.01518  -0.01543   3.14065
   D15        3.11640   0.00067  -0.00459   0.02151   0.01720   3.13360
   D16       -0.01198   0.00030   0.00107   0.00527   0.00641  -0.00557
         Item               Value     Threshold  Converged?
 Maximum Force            0.035227     0.000450     NO 
 RMS     Force            0.009559     0.000300     NO 
 Maximum Displacement     0.082149     0.001800     NO 
 RMS     Displacement     0.024330     0.001200     NO 
 Predicted change in Energy=-2.835163D-03
 Lowest energy point so far.  Saving SCF results.
 GradGradGradGradGradGradGradGradGradGradGradGradGradGradGradGradGradGrad

 Leave Link  103 at Thu Dec 24 04:40:00 2015, MaxMem=    33554432 cpu:         0.0
 (Enter /home/Applications/g09/g09/l202.exe)
                          Input orientation:                          
 ---------------------------------------------------------------------
 Center     Atomic      Atomic             Coordinates (Angstroms)
 Number     Number       Type             X           Y           Z
 ---------------------------------------------------------------------
      1          6           0        0.968137   -0.760467    0.001105
      2          6           0       -0.337860   -1.127260   -0.001769
      3          8           0       -1.153273   -0.004405   -0.004799
      4          6           0       -0.328974    1.146813   -0.001180
      5          6           0        0.972309    0.767231   -0.000403
      6          1           0        1.857324    1.355671    0.001261
      7          1           0       -0.893715    2.044202    0.003381
      8          1           0       -0.886388   -2.041660   -0.010149
      9          1           0        1.850944   -1.355893    0.006235
 ---------------------------------------------------------------------
                    Distance matrix (angstroms):
                    1          2          3          4          5
     1  C    0.000000
     2  C    1.356530   0.000000
     3  O    2.252120   1.387700   0.000000
     4  C    2.306560   2.274091   1.415904   0.000000
     5  C    1.527704   2.303398   2.261313   1.355515   0.000000
     6  H    2.295363   3.314180   3.303564   2.196252   1.062787
     7  H    3.366402   3.219809   2.065000   1.060311   2.261131
     8  H    2.254073   1.066340   2.054670   3.236843   3.368192
     9  H    1.064851   2.200728   3.294232   3.318981   2.297759
                    6          7          8          9
     6  H    0.000000
     7  H    2.835894   0.000000
     8  H    4.366915   4.085891   0.000000
     9  H    2.711576   4.369646   2.821973   0.000000
 Stoichiometry    C4H4O
 Framework group  C1[X(C4H4O)]
 Deg. of freedom    21
 Full point group                 C1      NOp   1
 RotChk:  IX=0 Diff= 2.82D-02
 Largest Abelian subgroup         C1      NOp   1
 Largest concise Abelian subgroup C1      NOp   1
                         Standard orientation:                         
 ---------------------------------------------------------------------
 Center     Atomic      Atomic             Coordinates (Angstroms)
 Number     Number       Type             X           Y           Z
 ---------------------------------------------------------------------
      1          6           0        0.725779    0.987800    0.000670
      2          6           0        1.143479   -0.302820    0.001055
      3          8           0        0.053447   -1.161621   -0.000642
      4          6           0       -1.129195   -0.383071    0.000443
      5          6           0       -0.800907    0.932087   -0.001641
      6          1           0       -1.423583    1.793360   -0.002361
      7          1           0       -2.003762   -0.982539    0.005865
      8          1           0        2.078681   -0.815104   -0.005562
      9          1           0        1.286144    1.893276    0.004035
 ---------------------------------------------------------------------
 Rotational constants (GHZ):      9.1865317      8.8387821      4.5046628
 Leave Link  202 at Thu Dec 24 04:40:00 2015, MaxMem=    33554432 cpu:         0.0
 (Enter /home/Applications/g09/g09/l301.exe)

 Semi-emprical parameters in input format:
 Method=8 CoreType=1 PeptideFC=0.0111920000 RIJScale=0.6126540000
 ****
 H       
 PQN=1 NValence=1 F0ss=0.3657200000 ZetaOverlap=1.1898590000 U=-0.3271920000
 Beta=-0.2566630000 CoreKO=1.0512780000 KON=0,0,0,0.9781540000 KON=1,0,1,0.9891250000
 KON=0,1,1,1.0267330000 KON=2,1,1,1.1475120000 EISol=-0.4188110042 EHeat=0.0830298228
 Alpha=1.5252600000
 GCore=0.0087860000,1.3438120000,2.2676710000
 GCore=0.0003540000,1.2763360000,2.5068130000
 GCore=-0.0012860000,0.6642910000,3.7092900000
 ****
 C       
 PQN=2,2 NValence=4 F0ss=0.4593770000 F0sp=0.3789850000 F0pp=0.3911740000 F2pp=0.1891150000
 G1sp=0.2794120000
 ZetaOverlap=1.7545260000,1.3966830000
 U=-1.7553130000,-1.4457960000
 Beta=-0.6059280000,-0.3278770000 DDN=0,1,0.8249730000 DDN=1,1,0.7707940000
 CoreKO=1.0982170000 KON=0,0,0,1.0185120000 KON=1,0,1,0.7597990000 KON=0,1,1,0.9165830000
 KON=2,1,1,0.8455180000 EISol=-4.4398989268 EHeat=0.2723305520 Alpha=1.4014060000
 DipHyp=1.6498510772
 GCore=0.0008410000,1.3150300000,2.9551730000
 GCore=0.0026390000,1.4897280000,3.1116680000
 GCore=-0.0014350000,1.3724060000,4.5540710000
 GCore=-0.0001010000,1.0527030000,4.6044920000
 ****
 O       
 PQN=2,2 NValence=6 F0ss=0.5057590000 F0sp=0.5412450000 F0pp=0.4592300000 F2pp=0.2358450000
 G1sp=0.4248810000
 ZetaOverlap=2.7344710000,1.9794440000
 U=-3.6315870000,-3.2361800000
 Beta=-1.0226630000,-1.2989790000 DDN=0,1,0.4988900000 DDN=1,1,0.4321610000
 CoreKO=1.0809880000 KON=0,0,0,0.7052230000 KON=1,0,1,0.4239620000 KON=0,1,1,0.7866010000
 KON=2,1,1,0.6324260000 EISol=-11.6164441184 EHeat=0.0949133088 Alpha=2.9491300000
 DipHyp=0.9977225968
 GCore=0.0195990000,1.2257140000,2.0315570000
 GCore=0.0045750000,1.9507830000,2.5903420000
 ****
 
 Standard basis: VSTO-6G (5D, 7F)
 Ernie: Thresh=  0.10000D-02 Tol=  0.10000D-05 Strict=F.
  NNHCO=     0 NNPyr=     0 NCTC=     0               EPep=         0.000000000
    EC=        67.306327218  ECS=         1.703731743   EG=         0.471644277
   EHC=         0.000000000  EAt=       -31.051283842  AtH=         1.516354808
 EPDDG=         0.000000000  ECC=        69.481703237 EAtT=        32.567638650
 There are    24 symmetry adapted cartesian basis functions of A   symmetry.
 There are    24 symmetry adapted basis functions of A   symmetry.
    24 basis functions,   144 primitive gaussians,    24 cartesian basis functions
    13 alpha electrons       13 beta electrons
       nuclear repulsion energy       102.0493418878 Hartrees.
 IExCor=    0 DFT=F Ex=HF Corr=None ExCW=0 ScaHFX=  1.000000
 ScaDFX=  1.000000  1.000000  1.000000  1.000000 ScalE2=  1.000000  1.000000
 IRadAn=      0 IRanWt=     -1 IRanGd=            0 ICorTp=0 IEmpDi=  4
 Integral buffers will be    131072 words long.
 Regular integral format.
 Two-electron integral symmetry is turned off.
 Leave Link  301 at Thu Dec 24 04:40:00 2015, MaxMem=    33554432 cpu:         0.0
 (Enter /home/Applications/g09/g09/l302.exe)
 Do NDO integrals.
 NPDir=0 NMtPBC=     1 NCelOv=     1 NCel=       1 NClECP=     1 NCelD=      1
         NCelK=      1 NCelE2=     1 NClLst=     1 CellRange=     0.0.
 One-electron integrals computed using PRISM.
 NBasis=    24 RedAO= F EigKep=  0.00D+00  NBF=    24
 NBsUse=    24 1.00D-04 EigRej=  0.00D+00 NBFU=    24
 Leave Link  302 at Thu Dec 24 04:40:00 2015, MaxMem=    33554432 cpu:         0.0
 (Enter /home/Applications/g09/g09/l303.exe)
 DipDrv:  MaxL=1.
 Leave Link  303 at Thu Dec 24 04:40:00 2015, MaxMem=    33554432 cpu:         0.0
 (Enter /home/Applications/g09/g09/l401.exe)
 Initial guess from the checkpoint file:  "/home/Applications/g09/scratch/Gau-19253.chk"
 B after Tr=     0.000000    0.000000    0.000000
         Rot=    0.999951    0.000005   -0.000002    0.009942 Ang=   1.14 deg.
 Guess basis will be translated and rotated to current coordinates.
 JPrj=0 DoOrth=T DoCkMO=T.
 Leave Link  401 at Thu Dec 24 04:40:00 2015, MaxMem=    33554432 cpu:         0.0
 (Enter /home/Applications/g09/g09/l502.exe)
 Closed shell SCF:
 Using DIIS extrapolation, IDIIS=  1040.
 Overlap will be assumed to be unity.
 Two-electron integral symmetry not used.
 Keep J ints in memory in canonical form, NReq=888082.
 IVT=       79475 IEndB=       79475 NGot=    33554432 MDV=    33473473
 LenX=    33473473 LenY=    33472456
 Requested convergence on RMS density matrix=1.00D-08 within 128 cycles.
 Requested convergence on MAX density matrix=1.00D-06.
 Requested convergence on             energy=1.00D-06.
 No special actions if energy rises.
 FoFCou: FMM=F IPFlag=           0 FMFlag=           0 FMFlg1=           0
         NFxFlg=           0 DoJE=F BraDBF=F KetDBF=F FulRan=T
         wScrn=  0.000000 ICntrl=     600 IOpCl=  2 I1Cent=           0 NGrid=           0
         NMat0=    1 NMatS0=     54 NMatT0=    0 NMatD0=    1 NMtDS0=    0 NMtDT0=    0
 Symmetry not used in FoFCou.

 Cycle   1  Pass 1  IDiag  1:
 E= -3.14680250061011    
 DIIS: error= 2.10D-03 at cycle   1 NSaved=   1.
 NSaved= 1 IEnMin= 1 EnMin= -3.14680250061011     IErMin= 1 ErrMin= 2.10D-03
 ErrMax= 2.10D-03  0.00D+00 EMaxC= 1.00D-01 BMatC= 3.66D-04 BMatP= 3.66D-04
 IDIUse=3 WtCom= 9.79D-01 WtEn= 2.10D-02
 Coeff-Com:  0.100D+01
 Coeff-En:   0.100D+01
 Coeff:      0.100D+01
 GapD=    2.000 DampG=2.000 DampE=1.000 DampFc=2.0000 IDamp=-1.
 RMSDP=9.16D-04 MaxDP=3.55D-03              OVMax= 0.00D+00

 Cycle   2  Pass 1  IDiag  3:
 E= -3.14750388541290     Delta-E=       -0.000701384803 Rises=F Damp=F
 DIIS: error= 4.63D-04 at cycle   2 NSaved=   2.
 NSaved= 2 IEnMin= 2 EnMin= -3.14750388541290     IErMin= 2 ErrMin= 4.63D-04
 ErrMax= 4.63D-04  0.00D+00 EMaxC= 1.00D-01 BMatC= 2.25D-05 BMatP= 3.66D-04
 IDIUse=3 WtCom= 9.95D-01 WtEn= 4.63D-03
 Coeff-Com: -0.283D+00 0.128D+01
 Coeff-En:   0.000D+00 0.100D+01
 Coeff:     -0.281D+00 0.128D+01
 Gap=     0.459 Goal=   None    Shift=    0.000
 RMSDP=3.75D-04 MaxDP=1.59D-03 DE=-7.01D-04 OVMax= 2.57D-03

 Cycle   3  Pass 1  IDiag  3:
 E= -3.14756935382414     Delta-E=       -0.000065468411 Rises=F Damp=F
 DIIS: error= 1.22D-04 at cycle   3 NSaved=   3.
 NSaved= 3 IEnMin= 3 EnMin= -3.14756935382414     IErMin= 3 ErrMin= 1.22D-04
 ErrMax= 1.22D-04  0.00D+00 EMaxC= 1.00D-01 BMatC= 9.25D-07 BMatP= 2.25D-05
 IDIUse=3 WtCom= 9.99D-01 WtEn= 1.22D-03
 Coeff-Com:  0.140D+00-0.701D+00 0.156D+01
 Coeff-En:   0.000D+00 0.000D+00 0.100D+01
 Coeff:      0.140D+00-0.700D+00 0.156D+01
 Gap=     0.459 Goal=   None    Shift=    0.000
 RMSDP=1.23D-04 MaxDP=7.19D-04 DE=-6.55D-05 OVMax= 1.14D-03

 Cycle   4  Pass 1  IDiag  3:
 E= -3.14757389140402     Delta-E=       -0.000004537580 Rises=F Damp=F
 DIIS: error= 4.98D-05 at cycle   4 NSaved=   4.
 NSaved= 4 IEnMin= 4 EnMin= -3.14757389140402     IErMin= 4 ErrMin= 4.98D-05
 ErrMax= 4.98D-05  0.00D+00 EMaxC= 1.00D-01 BMatC= 6.61D-08 BMatP= 9.25D-07
 IDIUse=1 WtCom= 1.00D+00 WtEn= 0.00D+00
 Coeff-Com: -0.795D-01 0.406D+00-0.106D+01 0.174D+01
 Coeff:     -0.795D-01 0.406D+00-0.106D+01 0.174D+01
 Gap=     0.459 Goal=   None    Shift=    0.000
 RMSDP=3.71D-05 MaxDP=2.88D-04 DE=-4.54D-06 OVMax= 3.10D-04

 Cycle   5  Pass 1  IDiag  3:
 E= -3.14757422331257     Delta-E=       -0.000000331909 Rises=F Damp=F
 DIIS: error= 8.59D-06 at cycle   5 NSaved=   5.
 NSaved= 5 IEnMin= 5 EnMin= -3.14757422331257     IErMin= 5 ErrMin= 8.59D-06
 ErrMax= 8.59D-06  0.00D+00 EMaxC= 1.00D-01 BMatC= 2.15D-09 BMatP= 6.61D-08
 IDIUse=1 WtCom= 1.00D+00 WtEn= 0.00D+00
 Coeff-Com:  0.344D-01-0.176D+00 0.475D+00-0.883D+00 0.155D+01
 Coeff:      0.344D-01-0.176D+00 0.475D+00-0.883D+00 0.155D+01
 Gap=     0.459 Goal=   None    Shift=    0.000
 RMSDP=5.98D-06 MaxDP=5.19D-05 DE=-3.32D-07 OVMax= 3.44D-05

 Cycle   6  Pass 1  IDiag  3:
 E= -3.14757423359055     Delta-E=       -0.000000010278 Rises=F Damp=F
 DIIS: error= 1.26D-06 at cycle   6 NSaved=   6.
 NSaved= 6 IEnMin= 6 EnMin= -3.14757423359055     IErMin= 6 ErrMin= 1.26D-06
 ErrMax= 1.26D-06  0.00D+00 EMaxC= 1.00D-01 BMatC= 7.27D-11 BMatP= 2.15D-09
 IDIUse=1 WtCom= 1.00D+00 WtEn= 0.00D+00
 Coeff-Com: -0.896D-02 0.460D-01-0.125D+00 0.242D+00-0.557D+00 0.140D+01
 Coeff:     -0.896D-02 0.460D-01-0.125D+00 0.242D+00-0.557D+00 0.140D+01
 Gap=     0.459 Goal=   None    Shift=    0.000
 RMSDP=1.12D-06 MaxDP=7.84D-06 DE=-1.03D-08 OVMax= 7.51D-06

 Cycle   7  Pass 1  IDiag  3:
 E= -3.14757423394357     Delta-E=       -0.000000000353 Rises=F Damp=F
 DIIS: error= 2.54D-07 at cycle   7 NSaved=   7.
 NSaved= 7 IEnMin= 7 EnMin= -3.14757423394357     IErMin= 7 ErrMin= 2.54D-07
 ErrMax= 2.54D-07  0.00D+00 EMaxC= 1.00D-01 BMatC= 3.33D-12 BMatP= 7.27D-11
 IDIUse=1 WtCom= 1.00D+00 WtEn= 0.00D+00
 Coeff-Com:  0.187D-02-0.960D-02 0.264D-01-0.516D-01 0.135D+00-0.473D+00
 Coeff-Com:  0.137D+01
 Coeff:      0.187D-02-0.960D-02 0.264D-01-0.516D-01 0.135D+00-0.473D+00
 Coeff:      0.137D+01
 Gap=     0.459 Goal=   None    Shift=    0.000
 RMSDP=2.29D-07 MaxDP=1.32D-06 DE=-3.53D-10 OVMax= 1.54D-06

 Cycle   8  Pass 1  IDiag  3:
 E= -3.14757423396057     Delta-E=       -0.000000000017 Rises=F Damp=F
 DIIS: error= 1.08D-07 at cycle   8 NSaved=   8.
 NSaved= 8 IEnMin= 8 EnMin= -3.14757423396057     IErMin= 8 ErrMin= 1.08D-07
 ErrMax= 1.08D-07  0.00D+00 EMaxC= 1.00D-01 BMatC= 5.07D-13 BMatP= 3.33D-12
 IDIUse=1 WtCom= 1.00D+00 WtEn= 0.00D+00
 Coeff-Com: -0.498D-03 0.256D-02-0.720D-02 0.141D-01-0.432D-01 0.198D+00
 Coeff-Com: -0.908D+00 0.174D+01
 Coeff:     -0.498D-03 0.256D-02-0.720D-02 0.141D-01-0.432D-01 0.198D+00
 Coeff:     -0.908D+00 0.174D+01
 Gap=     0.459 Goal=   None    Shift=    0.000
 RMSDP=1.07D-07 MaxDP=7.10D-07 DE=-1.70D-11 OVMax= 8.31D-07

 Cycle   9  Pass 1  IDiag  3:
 E= -3.14757423396351     Delta-E=       -0.000000000003 Rises=F Damp=F
 DIIS: error= 3.03D-08 at cycle   9 NSaved=   9.
 NSaved= 9 IEnMin= 9 EnMin= -3.14757423396351     IErMin= 9 ErrMin= 3.03D-08
 ErrMax= 3.03D-08  0.00D+00 EMaxC= 1.00D-01 BMatC= 4.78D-14 BMatP= 5.07D-13
 IDIUse=1 WtCom= 1.00D+00 WtEn= 0.00D+00
 Coeff-Com:  0.438D-04-0.228D-03 0.735D-03-0.146D-02 0.784D-02-0.554D-01
 Coeff-Com:  0.356D+00-0.101D+01 0.170D+01
 Coeff:      0.438D-04-0.228D-03 0.735D-03-0.146D-02 0.784D-02-0.554D-01
 Coeff:      0.356D+00-0.101D+01 0.170D+01
 Gap=     0.459 Goal=   None    Shift=    0.000
 RMSDP=3.81D-08 MaxDP=2.78D-07 DE=-2.94D-12 OVMax= 2.87D-07

 Cycle  10  Pass 1  IDiag  3:
 E= -3.14757423396397     Delta-E=        0.000000000000 Rises=F Damp=F
 DIIS: error= 4.55D-09 at cycle  10 NSaved=  10.
 NSaved=10 IEnMin=10 EnMin= -3.14757423396397     IErMin=10 ErrMin= 4.55D-09
 ErrMax= 4.55D-09  0.00D+00 EMaxC= 1.00D-01 BMatC= 1.41D-15 BMatP= 4.78D-14
 IDIUse=1 WtCom= 1.00D+00 WtEn= 0.00D+00
 Coeff-Com:  0.834D-05-0.417D-04 0.682D-04-0.117D-03-0.139D-02 0.166D-01
 Coeff-Com: -0.127D+00 0.400D+00-0.804D+00 0.152D+01
 Coeff:      0.834D-05-0.417D-04 0.682D-04-0.117D-03-0.139D-02 0.166D-01
 Coeff:     -0.127D+00 0.400D+00-0.804D+00 0.152D+01
 Gap=     0.459 Goal=   None    Shift=    0.000
 RMSDP=5.70D-09 MaxDP=3.05D-08 DE=-4.55D-13 OVMax= 2.82D-08

 Cycle  11  Pass 2  IDiag  1:
 SCF Done:  E(RAM1) =  -3.14757423396     A.U. after   11 cycles
            NFock= 10  Conv=0.57D-08     -V/T= 0.8444
 KE=-2.022784475334D+01 PE=-1.702011285392D+02 EE= 8.523205717073D+01
 Leave Link  502 at Thu Dec 24 04:40:00 2015, MaxMem=    33554432 cpu:         0.0
 (Enter /home/Applications/g09/g09/l701.exe)
 Compute integral first derivatives.
 ... and contract with generalized density number  0.
 Leave Link  701 at Thu Dec 24 04:40:00 2015, MaxMem=    33554432 cpu:         0.0
 (Enter /home/Applications/g09/g09/l702.exe)
 L702 exits ... SP integral derivatives will be done elsewhere.
 Leave Link  702 at Thu Dec 24 04:40:00 2015, MaxMem=    33554432 cpu:         0.0
 (Enter /home/Applications/g09/g09/l703.exe)
 Compute integral first derivatives, UseDBF=F ICtDFT=           0.
 Integral derivatives from FoFJK, PRISM(SPDF).
 Calling FoFJK, ICntrl=      2127 FMM=F ISym2X=0 I1Cent= 0 IOpClX= 0 NMat=1 NMatS=1 NMatT=0.
 FoFJK:  IHMeth= 8 ICntrl=    2127 DoSepK=F KAlg= 0 I1Cent=   0 FoldK=F
 IRaf=         0 NMat=   1 IRICut=       1 DoRegI=T DoRafI=F ISym2E= 0.
 FoFCou: FMM=F IPFlag=           0 FMFlag=      100000 FMFlg1=         800
         NFxFlg=           0 DoJE=F BraDBF=F KetDBF=F FulRan=T
         wScrn=  0.000000 ICntrl=    2127 IOpCl=  0 I1Cent=           0 NGrid=           0
         NMat0=    1 NMatS0=      1 NMatT0=    0 NMatD0=    1 NMtDS0=    0 NMtDT0=    0
 Symmetry not used in FoFCou.
 Leave Link  703 at Thu Dec 24 04:40:00 2015, MaxMem=    33554432 cpu:         0.0
 (Enter /home/Applications/g09/g09/l716.exe)
 Dipole        =-4.40286564D-02 5.85027107D-01 5.05773738D-03
 ***** Axes restored to original set *****
 -------------------------------------------------------------------
 Center     Atomic                   Forces (Hartrees/Bohr)
 Number     Number              X              Y              Z
 -------------------------------------------------------------------
      1        6          -0.007210777   -0.006591980    0.000043417
      2        6           0.008629787   -0.000244460   -0.000855407
      3        8          -0.003859976    0.000688089    0.000364809
      4        6           0.012735859   -0.003170001   -0.000041819
      5        6          -0.012689021    0.005990001    0.000456922
      6        1           0.004514833   -0.001236293   -0.000012471
      7        1          -0.003164471    0.003314012   -0.000250419
      8        1          -0.001849619   -0.001211698    0.000401036
      9        1           0.002893384    0.002462330   -0.000106067
 -------------------------------------------------------------------
 Cartesian Forces:  Max     0.012735859 RMS     0.004784398
 Leave Link  716 at Thu Dec 24 04:40:00 2015, MaxMem=    33554432 cpu:         0.0
 (Enter /home/Applications/g09/g09/l103.exe)

 GradGradGradGradGradGradGradGradGradGradGradGradGradGradGradGradGradGrad
 Berny optimization.
 Using GEDIIS/GDIIS optimizer.
 FormGI is forming the generalized inverse of G from B-inverse, IUseBI=4.
 Internal  Forces:  Max     0.007928409 RMS     0.002371215
 Search for a local minimum.
 Step number   3 out of a maximum of   48
 All quantities printed in internal units (Hartrees-Bohrs-Radians)
 RMS Force = .23712D-02 SwitMx=.10000D-02 MixMth= 1
 Mixed Optimization -- RFO/linear search
 Update second derivatives using D2CorX and points    1    2    3
 DE= -3.24D-03 DEPred=-2.84D-03 R= 1.14D+00
 TightC=F SS=  1.41D+00  RLast= 1.21D-01 DXNew= 8.4853D-01 3.6443D-01
 Trust test= 1.14D+00 RLast= 1.21D-01 DXMaxT set to 5.05D-01
 ITU=  1  1  0
 Use linear search instead of GDIIS.
     Eigenvalues ---    0.02050   0.02226   0.02388   0.02591   0.02662
     Eigenvalues ---    0.02946   0.11864   0.16000   0.16003   0.16082
     Eigenvalues ---    0.22074   0.24142   0.32825   0.34822   0.36563
     Eigenvalues ---    0.37556   0.40895   0.44916   0.50118   0.55814
     Eigenvalues ---    0.75785
 RFO step:  Lambda=-8.03055094D-04 EMin= 2.05042238D-02
 Quartic linear search produced a step of  0.13797.
 Iteration  1 RMS(Cart)=  0.01415453 RMS(Int)=  0.00027797
 Iteration  2 RMS(Cart)=  0.00025051 RMS(Int)=  0.00007313
 Iteration  3 RMS(Cart)=  0.00000003 RMS(Int)=  0.00007313
 ITry= 1 IFail=0 DXMaxC= 4.98D-02 DCOld= 1.00D+10 DXMaxT= 5.05D-01 DXLimC= 3.00D+00 Rises=F
 Variable       Old X    -DE/DX   Delta X   Delta X   Delta X     New X
                                 (Linear)    (Quad)   (Total)
    R1        2.56347  -0.00503  -0.00623  -0.00897  -0.01520   2.54828
    R2        2.88694   0.00271  -0.00304   0.01283   0.00978   2.89673
    R3        2.01228   0.00102  -0.00137   0.00289   0.00152   2.01380
    R4        2.62237   0.00347  -0.00106   0.01079   0.00973   2.63211
    R5        2.01509   0.00199  -0.00208   0.00645   0.00438   2.01947
    R6        2.67567   0.00289  -0.00140   0.00997   0.00856   2.68423
    R7        2.56155  -0.00793  -0.00442  -0.01276  -0.01719   2.54436
    R8        2.00370   0.00449  -0.00246   0.01380   0.01135   2.01504
    R9        2.00838   0.00308  -0.00302   0.00894   0.00592   2.01429
    A1        1.84732   0.00052  -0.00081   0.00224   0.00144   1.84877
    A2        2.27441   0.00342   0.00505   0.02662   0.03167   2.30608
    A3        2.16145  -0.00394  -0.00424  -0.02887  -0.03312   2.12833
    A4        1.92509  -0.00118   0.00325  -0.00513  -0.00189   1.92321
    A5        2.38491   0.00156   0.00095   0.00990   0.01083   2.39575
    A6        1.97314  -0.00038  -0.00419  -0.00470  -0.00891   1.96423
    A7        1.89209  -0.00050  -0.00429   0.00324  -0.00106   1.89104
    A8        1.90837  -0.00045   0.00209  -0.00417  -0.00210   1.90627
    A9        1.95850  -0.00069  -0.00398  -0.00511  -0.00910   1.94940
   A10        2.41630   0.00114   0.00192   0.00928   0.01120   2.42750
   A11        1.85189   0.00161  -0.00024   0.00386   0.00359   1.85548
   A12        2.16030  -0.00435  -0.00475  -0.02886  -0.03361   2.12669
   A13        2.27100   0.00274   0.00500   0.02502   0.03001   2.30100
    D1       -0.00008   0.00001  -0.00016   0.00057   0.00036   0.00027
    D2        3.13076   0.00028   0.00102   0.01092   0.01201  -3.14041
    D3        3.13862  -0.00006   0.00040  -0.00219  -0.00193   3.13669
[...]
     19 -0.440266D-01  0.418811D-01  0.415481D-02 -0.501910D-02 -0.565592D-02
     20 -0.130313D-01 -0.718159D-01  0.820560D-02 -0.210297D-01 -0.628624D-01
     21  0.503692D-02  0.159131D-01 -0.515888D-02  0.762204D-02  0.301121D-01
     22  0.799441D-02  0.559028D-01 -0.304672D-02  0.134076D-01  0.327503D-01
     23  0.502145D-05 -0.215497D-04  0.000000D+00 -0.229474D-05 -0.177422D-05
     24  0.145415D-05 -0.598300D-05  0.000000D+00  0.000000D+00 -0.108310D-05
     25  0.000000D+00 -0.192423D-04  0.000000D+00 -0.198390D-05 -0.315296D-05
     26 -0.332779D-05 -0.367557D-05  0.000000D+00  0.000000D+00 -0.246184D-05
     27 -0.358687D-05 -0.140612D-04  0.192092D-05 -0.162327D-05  0.000000D+00
     28  0.000000D+00 -0.490133D-05  0.182308D-05  0.000000D+00  0.541320D-05
     29 -0.123318D-05 -0.156038D-04  0.000000D+00 -0.199396D-05 -0.211946D-05
     30  0.307726D-05 -0.644391D-05  0.000000D+00  0.000000D+00  0.353373D-05
     31 -0.146391D-05 -0.123066D-04 -0.191684D-05  0.000000D+00 -0.333261D-05
     32  0.000000D+00 -0.204358D-04 -0.110611D-05  0.000000D+00 -0.457577D-05
     33 -0.541030D-05 -0.137434D-04 -0.206152D-05  0.165995D-05  0.200567D-05
     34 -0.232119D-05 -0.629110D-05  0.000000D+00  0.129241D-05  0.898338D-05
     35  0.126718D-04  0.924839D-05  0.259570D-05  0.131333D-05  0.176592D-04
     36  0.781371D-05  0.000000D+00  0.272094D-05 -0.116820D-05  0.115270D-04
     37  0.000000D+00  0.366060D-05 -0.101734D-05  0.136130D-05  0.648074D-05
     38 -0.480348D-05 -0.543200D-05  0.000000D+00 -0.112024D-05  0.000000D+00
               11            12            13            14            15 
     11  0.738388D-01
     12 -0.234584D-01  0.765441D-01
     13  0.271209D-01  0.300012D-01  0.126554D+00
     14 -0.981316D-02 -0.111870D-01 -0.501786D-01  0.848800D-01
     15 -0.173078D-01 -0.188142D-01 -0.763758D-01 -0.347014D-01  0.111077D+00
     16 -0.174910D-01 -0.266680D-02 -0.876783D-01  0.416189D-01  0.460594D-01
     17  0.794789D-02 -0.430842D-02  0.219198D-01 -0.664724D-02 -0.152726D-01
     18 -0.678549D-02 -0.250990D-02 -0.152137D-01  0.434940D-02  0.108643D-01
     19 -0.116241D-02  0.681832D-02 -0.670613D-02  0.229784D-02  0.440828D-02
     20  0.328026D-01  0.300598D-01 -0.367379D-02 -0.579315D-02  0.946694D-02
     21 -0.154770D-01 -0.146351D-01 -0.430864D-02  0.690668D-02 -0.259803D-02
     22 -0.173256D-01 -0.154247D-01  0.798243D-02 -0.111352D-02 -0.686891D-02
     23  0.358695D-05  0.000000D+00 -0.495502D-05  0.000000D+00  0.410921D-05
     24  0.000000D+00  0.402209D-05  0.000000D+00  0.000000D+00  0.000000D+00
     25  0.740874D-05 -0.563220D-05 -0.575403D-05  0.000000D+00  0.380588D-05
     26  0.304984D-05 -0.192479D-05  0.000000D+00  0.125231D-05  0.000000D+00
     27 -0.464080D-05  0.237730D-05 -0.680228D-05  0.253107D-05  0.498097D-05
     28 -0.853809D-05  0.140994D-05 -0.812819D-05  0.384058D-05  0.448061D-05
     29  0.924603D-05 -0.663266D-05 -0.465028D-05  0.111251D-05  0.426181D-05
     30  0.534874D-05 -0.760002D-05 -0.597619D-05  0.242202D-05  0.376145D-05
     31  0.000000D+00  0.134009D-05  0.000000D+00  0.316182D-05 -0.237450D-05
     32  0.442991D-05  0.000000D+00 -0.123181D-05 -0.683577D-05  0.775499D-05
     33 -0.379427D-05  0.113144D-05 -0.371093D-05  0.000000D+00  0.268222D-05
     34 -0.530735D-05 -0.334451D-05 -0.874430D-05  0.349027D-05  0.485013D-05
     35 -0.664441D-05 -0.913902D-05 -0.119136D-04  0.712861D-05  0.490498D-05
     36 -0.235453D-05 -0.821529D-05 -0.999472D-05  0.540809D-05  0.530856D-05
     37 -0.432905D-05 -0.168875D-05 -0.494162D-05  0.245235D-05  0.191229D-05
     38  0.000000D+00  0.000000D+00 -0.302273D-05  0.000000D+00  0.231588D-05
               16            17            18            19            20 
     16  0.135104D+00
     17 -0.870763D-01  0.125201D+00
     18  0.455598D-01 -0.752759D-01  0.108230D+00
     19  0.415164D-01 -0.499248D-01 -0.329538D-01  0.828787D-01
     20  0.194928D-01 -0.564048D-01  0.356344D-01  0.207704D-01  0.103448D+00
     21 -0.251554D-02  0.298486D-01 -0.186895D-01 -0.111591D-01 -0.531365D-01
     22 -0.169773D-01  0.265562D-01 -0.169449D-01 -0.961133D-02 -0.503117D-01
     23  0.183590D-05 -0.293668D-05  0.341422D-05  0.000000D+00  0.106955D-04
     24 -0.380318D-05  0.603881D-05 -0.335553D-05 -0.214905D-05  0.104657D-05
     25  0.531716D-05 -0.962150D-05  0.715976D-05  0.179217D-05  0.122301D-04
     26  0.000000D+00  0.000000D+00  0.000000D+00  0.000000D+00  0.258115D-05
     27  0.814179D-05 -0.129924D-04  0.952633D-05  0.281865D-05  0.601018D-05
     28  0.117083D-04 -0.130725D-04  0.785979D-05  0.454155D-05  0.181311D-05
     29  0.212890D-05 -0.520395D-05  0.532947D-05  0.000000D+00  0.725276D-05
     30  0.569541D-05 -0.528397D-05  0.366293D-05  0.142424D-05  0.305570D-05
     31 -0.442476D-05  0.109631D-04 -0.728868D-05 -0.286945D-05 -0.284530D-05
     32 -0.271432D-05  0.452235D-05 -0.238962D-05 -0.180057D-05  0.509157D-05
     33  0.000000D+00  0.402063D-05  0.000000D+00 -0.438848D-05 -0.728473D-05
     34  0.900698D-05 -0.276868D-05 -0.325660D-05  0.623050D-05 -0.789105D-05
     35  0.166929D-04 -0.965835D-05  0.555203D-05  0.524116D-05 -0.628879D-05
     36  0.120068D-04 -0.932083D-05  0.732938D-05  0.315385D-05 -0.193994D-05
     37  0.740268D-05 -0.335283D-05  0.000000D+00  0.299076D-05 -0.420842D-05
     38  0.271658D-05 -0.301531D-05  0.120261D-05  0.000000D+00  0.000000D+00
               21            22            23            24            25 
     21  0.765128D-01
     22 -0.233763D-01  0.736880D-01
     23 -0.510603D-05 -0.529573D-05  0.178672D-01
     24  0.000000D+00  0.000000D+00  0.270974D-02  0.153925D-01
     25 -0.570161D-05 -0.637784D-05  0.717679D-02 -0.817981D-02  0.140934D-01
     26 -0.118157D-05 -0.147160D-05 -0.798066D-02  0.450295D-02 -0.126317D-02
     27 -0.212075D-05 -0.427936D-05 -0.146926D-01 -0.622532D-02 -0.211239D-02
     28  0.000000D+00  0.000000D+00 -0.655956D-02 -0.425700D-02  0.205820D-02
     29 -0.276034D-05 -0.475994D-05 -0.554738D-02  0.309030D-02 -0.802932D-02
     30 -0.150800D-05 -0.134394D-05  0.258569D-02  0.505862D-02 -0.385873D-02
     31  0.245495D-05  0.000000D+00 -0.150024D-01  0.153963D-02 -0.964267D-02
     32 -0.160644D-05 -0.342801D-05 -0.396592D-02 -0.769496D-02  0.153881D-02
     33  0.508466D-05  0.203693D-05  0.483513D-02 -0.580165D-02  0.813740D-02
     34  0.487652D-05  0.284372D-05  0.380368D-02 -0.101477D-02  0.213778D-02
     35  0.356774D-05  0.304997D-05  0.575298D-02  0.718436D-02 -0.367294D-02
     36  0.000000D+00  0.215515D-05 -0.372098D-02  0.489152D-02 -0.853113D-02
     37  0.319197D-05  0.135631D-05  0.722695D-02  0.343762D-03  0.490069D-02
     38  0.000000D+00  0.000000D+00 -0.224701D-02 -0.194907D-02  0.424905D-04
               26            27            28            29            30 
     26  0.112204D-01
     27  0.635492D-02  0.183490D-01
     28  0.436076D-02  0.755160D-02  0.980414D-02
     29  0.608356D-03  0.758703D-02  0.179423D-03  0.971024D-02
     30 -0.138580D-02 -0.321033D-02  0.243196D-02  0.230264D-02  0.794492D-02
     31  0.689935D-02  0.635554D-02  0.344861D-02  0.177049D-02 -0.113644D-02
     32 -0.219023D-02  0.190304D-03  0.177206D-02 -0.451879D-02 -0.293703D-02
     33 -0.249938D-02  0.626996D-02  0.175232D-02  0.344499D-02 -0.107266D-02
     34 -0.268066D-02  0.468483D-03 -0.426121D-02  0.189359D-02 -0.283610D-02
     35 -0.224156D-02 -0.146270D-01 -0.551910D-02 -0.656352D-02  0.254443D-02
     36  0.813752D-04 -0.204952D-02 -0.814300D-02  0.206538D-02 -0.402810D-02
     37 -0.198251D-02 -0.633657D-02  0.307441D-02 -0.434653D-02  0.506445D-02
     38  0.340428D-03  0.624095D-02  0.450502D-03  0.428237D-02 -0.150808D-02
               31            32            33            34            35 
     31  0.183057D-01
     32  0.626107D-02  0.897626D-02
     33 -0.138390D-01 -0.609412D-02  0.180602D-01
     34 -0.662626D-02 -0.311785D-02  0.690917D-02  0.874797D-02
     35  0.461473D-02  0.357251D-02 -0.146230D-01 -0.445438D-02  0.174799D-01
     36  0.800093D-02  0.172998D-02 -0.936054D-02  0.105510D-02  0.687032D-02
     37 -0.569247D-02 -0.680667D-03  0.131210D-02 -0.708209D-02  0.294863D-02
     38 -0.230627D-02 -0.252321D-02  0.657457D-02 -0.157261D-02 -0.766095D-02
               36            37            38 
     36  0.139684D-01
     37 -0.801393D-02  0.149442D-01
     38 -0.915823D-03  0.398160D-02  0.107267D-01
 Leave Link  716 at Thu Dec 24 04:40:01 2015, MaxMem=    33554432 cpu:         0.0
 (Enter /home/Applications/g09/g09/l103.exe)

 GradGradGradGradGradGradGradGradGradGradGradGradGradGradGradGradGradGrad
 Berny optimization.
 Red2BG is reusing G-inverse.
 Internal  Forces:  Max     0.000314674 RMS     0.000106824
 Search for a local minimum.
 Step number   1 out of a maximum of    2
 All quantities printed in internal units (Hartrees-Bohrs-Radians)
 Second derivative matrix not updated -- analytic derivatives used.
 ITU=  0
     Eigenvalues ---    0.00909   0.01185   0.01448   0.02816   0.03360
     Eigenvalues ---    0.06200   0.06550   0.08352   0.09769   0.10709
     Eigenvalues ---    0.16955   0.24530   0.27514   0.32063   0.41049
     Eigenvalues ---    0.42803   0.43992   0.44731   0.48227   0.62825
     Eigenvalues ---    0.86588
 Angle between quadratic step and forces=  51.05 degrees.
 Linear search not attempted -- first point.
 Iteration  1 RMS(Cart)=  0.00443254 RMS(Int)=  0.00002844
 Iteration  2 RMS(Cart)=  0.00002682 RMS(Int)=  0.00000518
 Iteration  3 RMS(Cart)=  0.00000000 RMS(Int)=  0.00000518
 ITry= 1 IFail=0 DXMaxC= 1.30D-02 DCOld= 1.00D+10 DXMaxT= 3.00D-01 DXLimC= 3.00D+00 Rises=F
 Variable       Old X    -DE/DX   Delta X   Delta X   Delta X     New X
                                 (Linear)    (Quad)   (Total)
    R1        2.54736   0.00019   0.00000  -0.00332  -0.00332   2.54404
    R2        2.90958  -0.00005   0.00000   0.00013   0.00014   2.90972
    R3        2.01365   0.00009   0.00000   0.00079   0.00079   2.01444
    R4        2.64106   0.00027   0.00000   0.02439   0.02438   2.66544
    R5        2.01929   0.00000   0.00000  -0.00247  -0.00247   2.01682
    R6        2.68994  -0.00031   0.00000  -0.02421  -0.02422   2.66572
    R7        2.54055   0.00024   0.00000   0.00346   0.00346   2.54401
    R8        2.01450  -0.00001   0.00000   0.00230   0.00230   2.01680
    R9        2.01495   0.00006   0.00000  -0.00050  -0.00050   2.01445
    A1        1.84801  -0.00008   0.00000   0.00324   0.00325   1.85126
    A2        2.32038   0.00000   0.00000  -0.00280  -0.00281   2.31757
    A3        2.11480   0.00008   0.00000  -0.00043  -0.00044   2.11436
    A4        1.92401   0.00010   0.00000  -0.00698  -0.00698   1.91703
    A5        2.40155   0.00001   0.00000   0.01460   0.01460   2.41615
    A6        1.95763  -0.00010   0.00000  -0.00762  -0.00762   1.95001
    A7        1.88873  -0.00017   0.00000  -0.00045  -0.00047   1.88826
    A8        1.90912   0.00023   0.00000   0.00782   0.00782   1.91694
    A9        1.94263  -0.00009   0.00000   0.00729   0.00729   1.94992
   A10        2.43143  -0.00014   0.00000  -0.01511  -0.01511   2.41632
   A11        1.85491  -0.00008   0.00000  -0.00363  -0.00361   1.85129
   A12        2.11291   0.00006   0.00000   0.00144   0.00144   2.11435
   A13        2.31537   0.00002   0.00000   0.00218   0.00218   2.31754
    D1       -0.00014   0.00001   0.00000   0.00014   0.00014   0.00000
    D2        3.14133   0.00001   0.00000   0.00025   0.00025   3.14159
    D3       -3.14149  -0.00001   0.00000  -0.00011  -0.00011   3.14159
    D4       -0.00002   0.00000   0.00000   0.00001   0.00001  -0.00001
    D5        0.00030  -0.00002   0.00000  -0.00030  -0.00030   0.00000
    D6       -3.14133  -0.00001   0.00000  -0.00026  -0.00026  -3.14159
    D7       -3.14150  -0.00001   0.00000  -0.00009  -0.00009  -3.14159
    D8        0.00006   0.00000   0.00000  -0.00005  -0.00005   0.00000
    D9       -0.00006   0.00000   0.00000   0.00006   0.00006   0.00000
   D10       -3.14157   0.00000   0.00000  -0.00003  -0.00002  -3.14159
   D11        0.00027  -0.00002   0.00000  -0.00026  -0.00027   0.00000
   D12       -3.14141  -0.00001   0.00000  -0.00018  -0.00018  -3.14159
   D13       -0.00034   0.00002   0.00000   0.00034   0.00034   0.00000
   D14        3.14129   0.00001   0.00000   0.00029   0.00030   3.14159
   D15        3.14138   0.00000   0.00000   0.00021   0.00021   3.14159
   D16       -0.00018   0.00000   0.00000   0.00017   0.00017  -0.00001
         Item               Value     Threshold  Converged?
 Maximum Force            0.000315     0.000450     YES
 RMS     Force            0.000107     0.000300     YES
 Maximum Displacement     0.013035     0.001800     NO 
 RMS     Displacement     0.004433     0.001200     NO 
 Predicted change in Energy=-9.065626D-06
 GradGradGradGradGradGradGradGradGradGradGradGradGradGradGradGradGradGrad

 Leave Link  103 at Thu Dec 24 04:40:01 2015, MaxMem=    33554432 cpu:         0.0
 (Enter /home/Applications/g09/g09/l9999.exe)
 1\1\GINC-DUSTIN-DESKTOP\Freq\RAM1\ZDO\C4H4O1\DUSTIN\24-Dec-2015\0\\#P 
 Geom=AllCheck Guess=TCheck SCRF=Check GenChk RAM1/ZDO Freq\\AM1-Repara
 m Input\\0,1\C,0.9610793266,-0.7671349728,0.00026469\C,-0.3360401767,-
 1.1339918232,-0.0036007697\O,-1.1581105959,-0.0037463513,-0.0042726448
 \C,-0.3263827773,1.1514329791,-0.0005102188\C,0.9635195434,0.772546045
 4,0.002077848\H,1.8777722984,1.3212335683,0.004901054\H,-0.9060706414,
 2.0460675987,-0.0006718817\H,-0.8992225828,-2.0420905042,-0.0063444347
 \H,1.8719596057,-1.32008654,0.0018393578\\Version=ES64L-G09RevD.01\Sta
 te=1-A\HF=-3.1481893\RMSD=4.623e-10\RMSF=1.725e-04\ZeroPoint=0.0727831
 \Thermal=0.0768015\Dipole=0.649676,0.0208809,0.0017778\DipoleDeriv=-0.
 5033044,-0.0179981,0.0001586,0.3164057,-0.4634175,0.0009637,0.0005648,
 0.0001198,-0.6126145,1.4081989,0.0895449,0.0020923,-0.5963659,0.697674
 1,-0.0016458,0.0011379,0.0002384,0.6998564,-2.1173035,-0.0121915,-0.00
 31568,0.013582,-0.7384765,0.0004707,-0.0032892,0.0001564,-0.8812817,1.
 3206564,-0.0276868,0.001621,0.5997523,0.61863,0.0014315,0.0026524,-0.0
 001046,0.6312858,-0.4563564,-0.0261384,0.0001807,-0.3236184,-0.3573515
 ,-0.0005862,-0.0001345,0.0001982,-0.5490987,0.1698702,-0.0337071,-0.00
 02776,-0.0013732,0.1514058,-0.0001394,-0.0002423,-0.0002363,0.2701746,
 0.0119397,0.0324249,-0.0001468,0.0147784,-0.0188211,-0.0001208,-0.0002
 001,-0.0000573,0.0910945,-0.0049243,-0.0385256,-0.0002502,-0.0235299,-
 0.0440811,-0.0002198,-0.00024,-0.0002551,0.0717497,0.1712211,0.0342763
 ,-0.0002212,0.0003704,0.1544307,-0.0001539,-0.000249,-0.0000595,0.2788
 338\Polar=37.809879,-0.1546394,30.2487202,0.0800105,0.0331141,5.613920
 5\HyperPolar=8.8050499,-2.2071374,-57.1573309,10.4775992,0.0053577,-0.
 0959102,-0.1268694,2.9025064,0.2251887,0.0226643\PG=C01 [X(C4H4O1)]\NI
 mag=0\\1.05753256,-0.11292669,0.50467096,0.00218170,0.00016363,0.15487
 479,-0.51082361,-0.10591198,-0.00124961,0.75114747,-0.17492599,-0.0868
 8044,-0.00046561,0.37746222,0.61445183,-0.00134235,-0.00028367,-0.0853
 9000,0.00196696,0.00156241,0.19095700,-0.14172516,0.05505927,-0.000343
 51,-0.07270933,0.01975825,0.00006320,0.42204546,0.10325273,-0.02004286
 ,0.00022375,-0.07588106,0.00907140,-0.00007714,0.00327793,0.16277195,-
 0.00028144,0.00009438,0.01754854,-0.00006482,0.00017779,-0.08691124,0.
 00081634,0.00008355,0.10460729,-0.02524538,0.08324881,0.00001571,0.039
 02880,-0.04455399,-0.00001099,-0.07167291,0.06714013,0.00012112,0.7661
 6388,0.03544654,-0.07901979,-0.00002388,0.04645736,-0.20225423,-0.0001
 7552,-0.02619098,0.00536907,0.00005142,-0.38119432,0.62055527,-0.00004
 666,0.00009367,0.01046919,0.00011189,-0.00041998,0.02155435,-0.0000068
 9,0.00029761,-0.08308242,0.00087759,-0.00034537,0.18273848,-0.06408979
 ,-0.03560142,-0.00002892,-0.02557796,-0.03782317,-0.00014056,-0.137321
 08,-0.09872623,-0.00051527,-0.52044463,0.17973187,-0.00080336,1.063498
 68,0.03624892,-0.15852577,-0.00001250,-0.08527819,-0.07404885,-0.00032
 181,-0.05246731,-0.02531787,-0.00018731,0.11242861,-0.08561945,0.00026
 928,0.10464815,0.50130655,0.00006215,-0.00019129,-0.07035837,-0.000201
 86,-0.00019670,0.01061596,-0.00045344,-0.00030440,0.01611559,-0.000891
 09,0.00042413,-0.08307905,0.00230353,0.00068786,0.15542662,-0.00057750
 ,-0.00692660,-0.00001475,-0.00019527,0.00187595,-0.00000388,-0.0083031
 9,-0.00173285,-0.00004884,-0.03581012,-0.01713555,-0.00010027,-0.29153
 925,-0.14686918,-0.00076355,0.33624431,-0.02437787,-0.02845093,-0.0000
 9590,-0.00031903,-0.00473036,-0.00000975,0.00365199,0.00248877,-0.0000
 0024,0.00319337,0.00358744,0.00001618,-0.15116831,-0.12175232,-0.00045
 287,0.16984259,0.14869407,-0.00003758,-0.00005440,0.00222628,-0.000005
 54,-0.00000562,0.00245164,-0.00004371,-0.00001531,0.01106564,-0.000073
 30,-0.00002941,-0.00358268,-0.00076875,-0.00044163,-0.04278846,0.00093
 496,0.00054714,0.02833333,-0.00387772,0.00251258,-0.00002472,-0.003402
 16,-0.00126816,-0.00001590,0.00861720,-0.02562604,-0.00002548,-0.14837
 365,0.16355755,-0.00000992,-0.02008533,0.02715063,-0.00002348,-0.00030
 325,0.00043535,-0.00000552,0.16685513,0.00012473,-0.00014552,-0.000011
 11,-0.00300789,-0.00100874,-0.00001272,-0.00251682,-0.06677171,-0.0001
 0730,0.15657883,-0.25698073,0.00009315,0.01478315,-0.00703589,0.000020
 31,0.00082264,-0.00056296,-0.00000202,-0.16734262,0.33329240,-0.000026
 48,-0.00000277,0.00776678,-0.00001924,-0.00000510,0.00205082,0.0000065
 5,-0.00016783,0.00437773,-0.00002068,0.00011228,-0.04959782,-0.0000405
 5,0.00004612,0.00426494,-0.00000475,-0.00000180,0.00215914,0.00010298,
 0.00001944,0.02895783,-0.02038785,-0.02750007,-0.00010208,-0.14214899,
 -0.15821197,-0.00045860,0.00959065,0.02673363,0.00004678,-0.00352776,0
 .00120608,-0.00001334,-0.00393151,-0.00264308,-0.00003391,0.00010729,-
 0.00114440,-0.00000103,0.00045612,0.00055523,0.00000213,0.16012338,-0.
 01513412,-0.00746355,-0.00005641,-0.15101071,-0.25819479,-0.00068462,0
 .00323915,-0.07032700,-0.00009234,0.00299542,-0.00092852,0.00000396,-0
 .00017475,-0.00034184,-0.00001156,0.00000998,0.00009601,0.00000019,-0.
 00055477,-0.00089178,-0.00000268,0.16144795,0.33861689,-0.00008336,-0.
 00008819,0.00494503,-0.00045094,-0.00070328,-0.05165563,0.00001565,-0.
 00003152,0.00531698,-0.00001152,-0.00000059,0.00214725,-0.00003031,-0.
 00001809,0.00768043,0.00000042,-0.00000321,-0.00001410,0.00000052,0.00
 000026,-0.00004621,0.00056691,0.00084925,0.02953591,-0.29080596,0.1480
 4641,-0.00043384,-0.03531860,0.01768669,-0.00005787,-0.00852167,0.0015
 6175,-0.00004839,-0.00011789,-0.00187837,-0.00000904,-0.00050947,0.006
 78115,0.00000165,0.00037706,-0.00011352,0.00000047,0.00011361,0.000002
 62,0.00000005,-0.00028133,-0.00081803,-0.00000737,0.33506430,0.1522915
 8,-0.12414199,0.00027803,-0.00251095,0.00359390,0.00000282,-0.00381145
 ,0.00275901,-0.00001993,0.00016325,-0.00470964,-0.00000850,0.02433089,
 -0.02866418,0.00002453,0.00011293,0.00063012,0.00000106,0.00113526,0.0
 0010488,0.00000233,-0.00044307,-0.00056553,-0.00000464,-0.17126863,0.1
 5099333,-0.00042598,0.00026864,-0.04208224,-0.00008684,0.00005610,-0.0
 0367284,-0.00005420,-0.00000871,0.01096182,-0.00000685,-0.00001306,0.0
 0243269,0.00002419,-0.00002192,0.00212238,0.00000067,0.00000045,0.0001
 4921,0.00000152,0.,0.00006679,-0.00000686,-0.00000579,0.00209033,0.000
 55434,-0.00027571,0.02793186\\-0.00014479,-0.00011064,0.00003561,-0.00
 012087,0.00014725,0.00000724,0.00023617,-0.00049372,-0.00002976,0.0003
 4782,0.00048218,0.00003950,-0.00024233,-0.00000858,-0.00003359,-0.0000
 4110,-0.00005307,-0.00000913,-0.00002631,-0.00001094,0.00000317,0.0000
 4542,-0.00002938,-0.00000778,-0.00005403,0.00007690,-0.00000526\\\@


 LIFE IS A CONTINUAL STRUGGLE AGAINST THE TENDENCY TO PRODUCE ENTROPY.
 Job cpu time:       0 days  0 hours  0 minutes  0.3 seconds.
 File lengths (MBytes):  RWF=      5 Int=      0 D2E=      0 Chk=      2 Scr=      1
 Normal termination of Gaussian 09 at Thu Dec 24 04:40:01 2015.
