 Entering Gaussian System, Link 0=g09
 Input=FuranAM1_51.com
 Output=FuranAM1_51.log
 Initial command:
 /home/Applications/g09/g09/l1.exe "/home/Applications/g09/scratch/Gau-5964.inp" -scrdir="/home/Applications/g09/scratch/"
 Entering Link 1 = /home/Applications/g09/g09/l1.exe PID=      5966.
  
 Copyright (c) 1988,1990,1992,1993,1995,1998,2003,2009,2013,
            Gaussian, Inc.  All Rights Reserved.
  
 This is part of the Gaussian(R) 09 program.  It is based on
 the Gaussian(R) 03 system (copyright 2003, Gaussian, Inc.),
 the Gaussian(R) 98 system (copyright 1998, Gaussian, Inc.),
 the Gaussian(R) 94 system (copyright 1995, Gaussian, Inc.),
 the Gaussian 92(TM) system (copyright 1992, Gaussian, Inc.),
 the Gaussian 90(TM) system (copyright 1990, Gaussian, Inc.),
 the Gaussian 88(TM) system (copyright 1988, Gaussian, Inc.),
 the Gaussian 86(TM) system (copyright 1986, Carnegie Mellon
 University), and the Gaussian 82(TM) system (copyright 1983,
 Carnegie Mellon University). Gaussian is a federally registered
 trademark of Gaussian, Inc.
  
 This software contains proprietary and confidential information,
 including trade secrets, belonging to Gaussian, Inc.
  
 This software is provided under written license and may be
 used, copied, transmitted, or stored only in accord with that
 written license.
  
 The following legend is applicable only to US Government
 contracts under FAR:
  
                    RESTRICTED RIGHTS LEGEND
  
 Use, reproduction and disclosure by the US Government is
 subject to restrictions as set forth in subparagraphs (a)
 and (c) of the Commercial Computer Software - Restricted
 Rights clause in FAR 52.227-19.
  
 Gaussian, Inc.
 340 Quinnipiac St., Bldg. 40, Wallingford CT 06492
  
  
 ---------------------------------------------------------------
 Warning -- This program may not be used in any manner that
 competes with the business of Gaussian, Inc. or will provide
 assistance to any competitor of Gaussian, Inc.  The licensee
 of this program is prohibited from giving any competitor of
 Gaussian, Inc. access to this program.  By using this program,
 the user acknowledges that Gaussian, Inc. is engaged in the
 business of creating and licensing software in the field of
 computational chemistry and represents and warrants to the
 licensee that it is not a competitor of Gaussian, Inc. and that
 it will not use this program in any manner prohibited above.
 ---------------------------------------------------------------
  

 Cite this work as:
 Gaussian 09, Revision D.01,
 M. J. Frisch, G. W. Trucks, H. B. Schlegel, G. E. Scuseria, 
 M. A. Robb, J. R. Cheeseman, G. Scalmani, V. Barone, B. Mennucci, 
 G. A. Petersson, H. Nakatsuji, M. Caricato, X. Li, H. P. Hratchian, 
 A. F. Izmaylov, J. Bloino, G. Zheng, J. L. Sonnenberg, M. Hada, 
 M. Ehara, K. Toyota, R. Fukuda, J. Hasegawa, M. Ishida, T. Nakajima, 
 Y. Honda, O. Kitao, H. Nakai, T. Vreven, J. A. Montgomery, Jr., 
 J. E. Peralta, F. Ogliaro, M. Bearpark, J. J. Heyd, E. Brothers, 
 K. N. Kudin, V. N. Staroverov, T. Keith, R. Kobayashi, J. Normand, 
 K. Raghavachari, A. Rendell, J. C. Burant, S. S. Iyengar, J. Tomasi, 
 M. Cossi, N. Rega, J. M. Millam, M. Klene, J. E. Knox, J. B. Cross, 
 V. Bakken, C. Adamo, J. Jaramillo, R. Gomperts, R. E. Stratmann, 
 O. Yazyev, A. J. Austin, R. Cammi, C. Pomelli, J. W. Ochterski, 
 R. L. Martin, K. Morokuma, V. G. Zakrzewski, G. A. Voth, 
 P. Salvador, J. J. Dannenberg, S. Dapprich, A. D. Daniels, 
 O. Farkas, J. B. Foresman, J. V. Ortiz, J. Cioslowski, 
 and D. J. Fox, Gaussian, Inc., Wallingford CT, 2013.
 
 ******************************************
 Gaussian 09:  ES64L-G09RevD.01 24-Apr-2013
                15-Dec-2015 
 ******************************************
 ------------------------------------------------------------
 #P AM1(Input,print) CIS(Singlets,NStates=15) pop(full) force
 ------------------------------------------------------------
 1/10=7,30=1,38=1/1,3;
 2/12=2,17=6,18=5,40=1/2;
 3/5=2,16=1,25=1,41=700000,71=1,135=100,136=1/1,2,8,3;
 4/35=1/1;
 5/5=2,35=1,38=5/2;
 8/6=1,10=1,108=15/1;
 9/15=2,41=15,42=1,48=1,49=10/14;
 10/5=4/2;
 6/7=3,18=1/1;
 7/12=6,13=5,29=1/1,2,3,16;
 1/10=7,30=1/3;
 99//99;
 Leave Link    1 at Tue Dec 15 16:20:34 2015, MaxMem=           0 cpu:         0.0
 (Enter /home/Applications/g09/g09/l101.exe)
 -----------------
 AM1-Reparam Input
 -----------------
 Symbolic Z-matrix:
 Charge =  0 Multiplicity = 1
 6                     0.94624  -0.68961  -0.01773 
 6                    -0.35223  -1.12109  -0.01978 
 8                    -1.15973  -0.02387  -0.00077 
 6                    -0.35883   1.11171   0.02198 
 6                     0.93537   0.67422   0.0421 
 1                     1.7877    1.39691  -0.04143 
 1                    -0.8563    2.04772  -0.03388 
 1                    -0.82573  -2.01944   0.00876 
 1                     1.80488  -1.32415  -0.01149 
 
 NAtoms=      9 NQM=        9 NQMF=       0 NMMI=      0 NMMIF=      0
                NMic=       0 NMicF=      0.
                    Isotopes and Nuclear Properties:
 (Nuclear quadrupole moments (NQMom) in fm**2, nuclear magnetic moments (NMagM)
  in nuclear magnetons)

  Atom         1           2           3           4           5           6           7           8           9
 IAtWgt=          12          12          16          12          12           1           1           1           1
 AtmWgt=  12.0000000  12.0000000  15.9949146  12.0000000  12.0000000   1.0078250   1.0078250   1.0078250   1.0078250
 NucSpn=           0           0           0           0           0           1           1           1           1
 AtZEff=   0.0000000   0.0000000   0.0000000   0.0000000   0.0000000   0.0000000   0.0000000   0.0000000   0.0000000
 NQMom=    0.0000000   0.0000000   0.0000000   0.0000000   0.0000000   0.0000000   0.0000000   0.0000000   0.0000000
 NMagM=    0.0000000   0.0000000   0.0000000   0.0000000   0.0000000   2.7928460   2.7928460   2.7928460   2.7928460
 AtZNuc=   6.0000000   6.0000000   8.0000000   6.0000000   6.0000000   1.0000000   1.0000000   1.0000000   1.0000000
 Leave Link  101 at Tue Dec 15 16:20:34 2015, MaxMem=    33554432 cpu:         0.0
 (Enter /home/Applications/g09/g09/l103.exe)

 GradGradGradGradGradGradGradGradGradGradGradGradGradGradGradGradGradGrad
 Berny optimization.
 Initialization pass.
 Trust Radius=3.00D-01 FncErr=1.00D-07 GrdErr=1.00D-07
 Number of steps in this run=      2 maximum allowed number of steps=      2.
 GradGradGradGradGradGradGradGradGradGradGradGradGradGradGradGradGradGrad

 Leave Link  103 at Tue Dec 15 16:20:34 2015, MaxMem=    33554432 cpu:         0.0
 (Enter /home/Applications/g09/g09/l202.exe)
                          Input orientation:                          
 ---------------------------------------------------------------------
 Center     Atomic      Atomic             Coordinates (Angstroms)
 Number     Number       Type             X           Y           Z
 ---------------------------------------------------------------------
      1          6           0        0.946236   -0.689605   -0.017728
      2          6           0       -0.352226   -1.121095   -0.019783
      3          8           0       -1.159732   -0.023870   -0.000766
      4          6           0       -0.358829    1.111714    0.021980
      5          6           0        0.935368    0.674223    0.042098
      6          1           0        1.787698    1.396909   -0.041427
      7          1           0       -0.856297    2.047721   -0.033876
      8          1           0       -0.825732   -2.019437    0.008761
      9          1           0        1.804881   -1.324153   -0.011485
 ---------------------------------------------------------------------
                    Distance matrix (angstroms):
                    1          2          3          4          5
     1  C    0.000000
     2  C    1.368280   0.000000
     3  O    2.208753   1.362472   0.000000
     4  C    2.224752   2.233209   1.389789   0.000000
     5  C    1.365183   2.210180   2.208759   1.366290   0.000000
     6  H    2.249925   3.304556   3.272248   2.166318   1.120588
     7  H    3.277551   3.208688   2.093958   1.061463   2.258834
     8  H    2.215632   1.015894   2.023347   3.165798   3.218445
     9  H    1.067690   2.166659   3.237249   3.258252   2.180007
                    6          7          8          9
     6  H    0.000000
     7  H    2.722925   0.000000
     8  H    4.301622   4.067496   0.000000
     9  H    2.721281   4.295568   2.721021   0.000000
 Stoichiometry    C4H4O
 Framework group  C1[X(C4H4O)]
 Deg. of freedom    21
 Full point group                 C1      NOp   1
 Largest Abelian subgroup         C1      NOp   1
 Largest concise Abelian subgroup C1      NOp   1
                         Standard orientation:                         
 ---------------------------------------------------------------------
 Center     Atomic      Atomic             Coordinates (Angstroms)
 Number     Number       Type             X           Y           Z
 ---------------------------------------------------------------------
      1          6           0       -0.635852    0.987878    0.013521
      2          6           0       -1.130008   -0.288040    0.007647
      3          8           0       -0.073227   -1.147976    0.000258
      4          6           0        1.100177   -0.403273   -0.007055
      5          6           0        0.726460    0.910716   -0.029787
      6          1           0        1.488692    1.726728    0.064265
      7          1           0        2.010116   -0.945801    0.059112
      8          1           0       -2.049912   -0.717208   -0.032770
      9          1           0       -1.227742    1.876404    0.001369
 ---------------------------------------------------------------------
 Rotational constants (GHZ):      9.5087289      9.4144481      4.7325556
 Leave Link  202 at Tue Dec 15 16:20:34 2015, MaxMem=    33554432 cpu:         0.0
 (Enter /home/Applications/g09/g09/l301.exe)

 Semi-emprical parameters in input format:
 Method=8 CoreType=1 PeptideFC=0.0114510000 RIJScale=0.5291770000
 ****
 H       
 PQN=1 NValence=1 F0ss=0.4721550000 ZetaOverlap=1.1880780000 U=-0.4188110000
 Beta=-0.2268830000 CoreKO=1.0589200000 KON=0,0,0,1.0589200000 KON=1,0,1,1.0589200000
 KON=0,1,1,1.0589200000 KON=2,1,1,1.0589200000 EISol=-0.4188110042 EHeat=0.0830298228
 Alpha=1.5252600000
 GCore=0.0085280000,1.4001430000,2.2676710000
 GCore=0.0003530000,1.4001430000,3.4015070000
 GCore=-0.0012730000,0.5600570000,3.9684250000
 ****
 C       
 PQN=2,2 NValence=4 F0ss=0.4494440000 F0sp=0.4215150000 F0pp=0.3768030000 F2pp=0.1898720000
 G1sp=0.2679030000
 ZetaOverlap=1.8086650000,1.6851160000
 U=-1.9120180000,-1.4557970000
 Beta=-0.5775440000,-0.2836780000 DDN=0,1,0.8236740000 DDN=1,1,0.7268010000
 CoreKO=1.1124280000 KON=0,0,0,1.1124280000 KON=1,0,1,0.8219700000 KON=0,1,1,1.1124280000
 KON=2,1,1,0.7783930000 EISol=-4.4398989268 EHeat=0.2723305520 Alpha=1.4014060000
 DipHyp=1.6472532266
 GCore=0.0007890000,1.4001430000,3.0235620000
 GCore=0.0031890000,1.4001430000,3.4959930000
 GCore=-0.0013930000,1.4001430000,3.8739390000
 GCore=-0.0000880000,1.4001430000,5.0077740000
 ****
 O       
 PQN=2,2 NValence=6 F0ss=0.5666750000 F0sp=0.5321300000 F0pp=0.4958710000 F2pp=0.2358080000
 G1sp=0.4343770000
 ZetaOverlap=3.1080320000,2.5240390000
 U=-3.5951870000,-2.8760900000
 Beta=-1.0757550000,-1.0757550000 DDN=0,1,0.4988900000 DDN=1,1,0.4852320000
 CoreKO=0.8822960000 KON=0,0,0,0.8822960000 KON=1,0,1,0.5019540000 KON=0,1,1,0.8822960000
 KON=2,1,1,0.5515580000 EISol=-11.6164441184 EHeat=0.0949133088 Alpha=2.3576810000
 DipHyp=0.9977225968
 GCore=0.0195120000,1.4001430000,1.6023330000
 GCore=0.0056550000,1.9602000000,2.7307880000
 ****
 
 Standard basis: VSTO-6G (5D, 7F)
 Ernie: Thresh=  0.10000D-02 Tol=  0.10000D-05 Strict=F.
  NNHCO=     0 NNPyr=     0 NCTC=     0               EPep=         0.000000000
    EC=        68.930456606  ECS=         1.864352697   EG=         0.348522460
   EHC=         0.000000000  EAt=       -31.051283842  AtH=         1.516354808
 EPDDG=         0.000000000  ECC=        71.143331763 EAtT=        32.567638650
 There are    24 symmetry adapted cartesian basis functions of A   symmetry.
 There are    24 symmetry adapted basis functions of A   symmetry.
    24 basis functions,   144 primitive gaussians,    24 cartesian basis functions
    13 alpha electrons       13 beta electrons
       nuclear repulsion energy       103.7109704132 Hartrees.
 IExCor=    0 DFT=F Ex=HF Corr=None ExCW=0 ScaHFX=  1.000000
 ScaDFX=  1.000000  1.000000  1.000000  1.000000 ScalE2=  1.000000  1.000000
 IRadAn=      0 IRanWt=     -1 IRanGd=            0 ICorTp=0 IEmpDi=  4
 Integral buffers will be    131072 words long.
 Regular integral format.
 Two-electron integral symmetry is turned off.
 Leave Link  301 at Tue Dec 15 16:20:34 2015, MaxMem=    33554432 cpu:         0.0
 (Enter /home/Applications/g09/g09/l302.exe)
 Do NDO integrals.
 NPDir=0 NMtPBC=     1 NCelOv=     1 NCel=       1 NClECP=     1 NCelD=      1
         NCelK=      1 NCelE2=     1 NClLst=     1 CellRange=     0.0.
 One-electron integrals computed using PRISM.
 NBasis=    24 RedAO= F EigKep=  0.00D+00  NBF=    24
 NBsUse=    24 1.00D-04 EigRej=  0.00D+00 NBFU=    24
 Leave Link  302 at Tue Dec 15 16:20:34 2015, MaxMem=    33554432 cpu:         0.0
 (Enter /home/Applications/g09/g09/l308.exe)
 Leave Link  308 at Tue Dec 15 16:20:34 2015, MaxMem=    33554432 cpu:         0.0
 (Enter /home/Applications/g09/g09/l303.exe)
 DipDrv:  MaxL=1.
 Leave Link  303 at Tue Dec 15 16:20:34 2015, MaxMem=    33554432 cpu:         0.0
 (Enter /home/Applications/g09/g09/l401.exe)
 Simple Huckel Guess.
 JPrj=0 DoOrth=F DoCkMO=F.
 Leave Link  401 at Tue Dec 15 16:20:34 2015, MaxMem=    33554432 cpu:         0.0
 (Enter /home/Applications/g09/g09/l502.exe)
 Closed shell SCF:
 Using DIIS extrapolation, IDIIS=  1040.
 Overlap will be assumed to be unity.
 Two-electron integral symmetry not used.
 Keep J ints in memory in canonical form, NReq=888082.
 IVT=       79475 IEndB=       79475 NGot=    33554432 MDV=    33473473
 LenX=    33473473 LenY=    33472456
 Requested convergence on RMS density matrix=1.00D-08 within 128 cycles.
 Requested convergence on MAX density matrix=1.00D-06.
 Requested convergence on             energy=1.00D-06.
 No special actions if energy rises.
 FoFCou: FMM=F IPFlag=           0 FMFlag=           0 FMFlg1=           0
         NFxFlg=           0 DoJE=F BraDBF=F KetDBF=F FulRan=T
         wScrn=  0.000000 ICntrl=     600 IOpCl=  2 I1Cent=           0 NGrid=           0
         NMat0=    1 NMatS0=     54 NMatT0=    0 NMatD0=    1 NMtDS0=    0 NMtDT0=    0
 Symmetry not used in FoFCou.

 Cycle   1  Pass 1  IDiag  1:
 E= 0.331217308240824    
 DIIS: error= 5.65D-02 at cycle   1 NSaved=   1.
 NSaved= 1 IEnMin= 1 EnMin= 0.331217308240824     IErMin= 1 ErrMin= 5.65D-02
 ErrMax= 5.65D-02  0.00D+00 EMaxC= 1.00D-01 BMatC= 1.11D-01 BMatP= 1.11D-01
 IDIUse=3 WtCom= 4.35D-01 WtEn= 5.65D-01
 Coeff-Com:  0.100D+01
 Coeff-En:   0.100D+01
 Coeff:      0.100D+01
 GapD=    2.000 DampG=2.000 DampE=0.500 DampFc=1.0000 IDamp=-1.
 RMSDP=1.93D-02 MaxDP=1.62D-01              OVMax= 0.00D+00

 Cycle   2  Pass 1  IDiag  1:
 E= 0.543638942437497E-01 Delta-E=       -0.276853413997 Rises=F Damp=F
 DIIS: error= 2.00D-02 at cycle   2 NSaved=   2.
 NSaved= 2 IEnMin= 2 EnMin= 0.543638942437497E-01 IErMin= 2 ErrMin= 2.00D-02
 ErrMax= 2.00D-02  0.00D+00 EMaxC= 1.00D-01 BMatC= 9.53D-03 BMatP= 1.11D-01
 IDIUse=3 WtCom= 8.00D-01 WtEn= 2.00D-01
 Coeff-Com: -0.358D+00 0.136D+01
 Coeff-En:   0.000D+00 0.100D+01
 Coeff:     -0.287D+00 0.129D+01
 RMSDP=8.14D-03 MaxDP=7.52D-02 DE=-2.77D-01 OVMax= 0.00D+00

 Cycle   3  Pass 1  IDiag  1:
 E= 0.240319576600427E-01 Delta-E=       -0.030331936584 Rises=F Damp=F
 DIIS: error= 3.53D-03 at cycle   3 NSaved=   3.
 NSaved= 3 IEnMin= 3 EnMin= 0.240319576600427E-01 IErMin= 3 ErrMin= 3.53D-03
 ErrMax= 3.53D-03  0.00D+00 EMaxC= 1.00D-01 BMatC= 3.78D-04 BMatP= 9.53D-03
 IDIUse=3 WtCom= 9.65D-01 WtEn= 3.53D-02
 Coeff-Com:  0.140D+00-0.626D+00 0.149D+01
 Coeff-En:   0.000D+00 0.000D+00 0.100D+01
 Coeff:      0.135D+00-0.604D+00 0.147D+01
 RMSDP=2.58D-03 MaxDP=3.14D-02 DE=-3.03D-02 OVMax= 0.00D+00

 Cycle   4  Pass 1  IDiag  3:
 E= 0.219385144964974E-01 Delta-E=       -0.002093443164 Rises=F Damp=F
 DIIS: error= 1.12D-03 at cycle   4 NSaved=   4.
 NSaved= 4 IEnMin= 4 EnMin= 0.219385144964974E-01 IErMin= 4 ErrMin= 1.12D-03
 ErrMax= 1.12D-03  0.00D+00 EMaxC= 1.00D-01 BMatC= 2.79D-05 BMatP= 3.78D-04
 IDIUse=3 WtCom= 9.89D-01 WtEn= 1.12D-02
 Coeff-Com:  0.127D-01-0.427D-01-0.217D+00 0.125D+01
 Coeff-En:   0.000D+00 0.000D+00 0.000D+00 0.100D+01
 Coeff:      0.126D-01-0.422D-01-0.214D+00 0.124D+01
 Gap=     0.367 Goal=   None    Shift=    0.000
 RMSDP=8.40D-04 MaxDP=1.08D-02 DE=-2.09D-03 OVMax= 1.10D-02

 Cycle   5  Pass 1  IDiag  3:
 E= 0.217627591756298E-01 Delta-E=       -0.000175755321 Rises=F Damp=F
 DIIS: error= 2.18D-04 at cycle   5 NSaved=   5.
 NSaved= 5 IEnMin= 5 EnMin= 0.217627591756298E-01 IErMin= 5 ErrMin= 2.18D-04
 ErrMax= 2.18D-04  0.00D+00 EMaxC= 1.00D-01 BMatC= 1.77D-06 BMatP= 2.79D-05
 IDIUse=3 WtCom= 9.98D-01 WtEn= 2.18D-03
 Coeff-Com: -0.736D-02 0.294D-01 0.253D-01-0.471D+00 0.142D+01
 Coeff-En:   0.000D+00 0.000D+00 0.000D+00 0.000D+00 0.100D+01
 Coeff:     -0.734D-02 0.293D-01 0.252D-01-0.470D+00 0.142D+01
 Gap=     0.367 Goal=   None    Shift=    0.000
 RMSDP=2.38D-04 MaxDP=2.09D-03 DE=-1.76D-04 OVMax= 2.38D-03

 Cycle   6  Pass 1  IDiag  3:
 E= 0.217498864325734E-01 Delta-E=       -0.000012872743 Rises=F Damp=F
 DIIS: error= 8.98D-05 at cycle   6 NSaved=   6.
 NSaved= 6 IEnMin= 6 EnMin= 0.217498864325734E-01 IErMin= 6 ErrMin= 8.98D-05
 ErrMax= 8.98D-05  0.00D+00 EMaxC= 1.00D-01 BMatC= 1.81D-07 BMatP= 1.77D-06
 IDIUse=1 WtCom= 1.00D+00 WtEn= 0.00D+00
 Coeff-Com:  0.309D-02-0.123D-01 0.382D-03 0.163D+00-0.737D+00 0.158D+01
 Coeff:      0.309D-02-0.123D-01 0.382D-03 0.163D+00-0.737D+00 0.158D+01
 Gap=     0.367 Goal=   None    Shift=    0.000
 RMSDP=9.32D-05 MaxDP=7.32D-04 DE=-1.29D-05 OVMax= 1.22D-03

 Cycle   7  Pass 1  IDiag  3:
 E= 0.217482495835384E-01 Delta-E=       -0.000001636849 Rises=F Damp=F
 DIIS: error= 3.38D-05 at cycle   7 NSaved=   7.
 NSaved= 7 IEnMin= 7 EnMin= 0.217482495835384E-01 IErMin= 7 ErrMin= 3.38D-05
 ErrMax= 3.38D-05  0.00D+00 EMaxC= 1.00D-01 BMatC= 1.62D-08 BMatP= 1.81D-07
 IDIUse=1 WtCom= 1.00D+00 WtEn= 0.00D+00
 Coeff-Com: -0.632D-03 0.208D-02 0.132D-02-0.427D-01 0.213D+00-0.720D+00
 Coeff-Com:  0.155D+01
 Coeff:     -0.632D-03 0.208D-02 0.132D-02-0.427D-01 0.213D+00-0.720D+00
 Coeff:      0.155D+01
 Gap=     0.367 Goal=   None    Shift=    0.000
 RMSDP=3.37D-05 MaxDP=3.04D-04 DE=-1.64D-06 OVMax= 4.12D-04

 Cycle   8  Pass 1  IDiag  3:
 E= 0.217480870308577E-01 Delta-E=       -0.000000162553 Rises=F Damp=F
 DIIS: error= 7.54D-06 at cycle   8 NSaved=   8.
 NSaved= 8 IEnMin= 8 EnMin= 0.217480870308577E-01 IErMin= 8 ErrMin= 7.54D-06
 ErrMax= 7.54D-06  0.00D+00 EMaxC= 1.00D-01 BMatC= 8.48D-10 BMatP= 1.62D-08
 IDIUse=1 WtCom= 1.00D+00 WtEn= 0.00D+00
 Coeff-Com:  0.948D-04-0.708D-04-0.185D-02 0.165D-01-0.768D-01 0.293D+00
 Coeff-Com: -0.817D+00 0.159D+01
 Coeff:      0.948D-04-0.708D-04-0.185D-02 0.165D-01-0.768D-01 0.293D+00
 Coeff:     -0.817D+00 0.159D+01
 Gap=     0.367 Goal=   None    Shift=    0.000
 RMSDP=7.57D-06 MaxDP=7.09D-05 DE=-1.63D-07 OVMax= 9.30D-05

 Cycle   9  Pass 1  IDiag  3:
 E= 0.217480793822347E-01 Delta-E=       -0.000000007649 Rises=F Damp=F
 DIIS: error= 9.92D-07 at cycle   9 NSaved=   9.
 NSaved= 9 IEnMin= 9 EnMin= 0.217480793822347E-01 IErMin= 9 ErrMin= 9.92D-07
 ErrMax= 9.92D-07  0.00D+00 EMaxC= 1.00D-01 BMatC= 2.98D-11 BMatP= 8.48D-10
 IDIUse=1 WtCom= 1.00D+00 WtEn= 0.00D+00
 Coeff-Com:  0.141D-04-0.167D-03 0.679D-03-0.353D-02 0.159D-01-0.728D-01
 Coeff-Com:  0.236D+00-0.589D+00 0.141D+01
 Coeff:      0.141D-04-0.167D-03 0.679D-03-0.353D-02 0.159D-01-0.728D-01
 Coeff:      0.236D+00-0.589D+00 0.141D+01
 Gap=     0.367 Goal=   None    Shift=    0.000
 RMSDP=1.07D-06 MaxDP=8.72D-06 DE=-7.65D-09 OVMax= 1.46D-05

 Cycle  10  Pass 1  IDiag  3:
 E= 0.217480791827711E-01 Delta-E=       -0.000000000199 Rises=F Damp=F
 DIIS: error= 1.68D-07 at cycle  10 NSaved=  10.
 NSaved=10 IEnMin=10 EnMin= 0.217480791827711E-01 IErMin=10 ErrMin= 1.68D-07
 ErrMax= 1.68D-07  0.00D+00 EMaxC= 1.00D-01 BMatC= 1.61D-12 BMatP= 2.98D-11
 IDIUse=1 WtCom= 1.00D+00 WtEn= 0.00D+00
 Coeff-Com: -0.121D-04 0.973D-04-0.322D-03 0.138D-02-0.584D-02 0.280D-01
 Coeff-Com: -0.944D-01 0.243D+00-0.711D+00 0.154D+01
 Coeff:     -0.121D-04 0.973D-04-0.322D-03 0.138D-02-0.584D-02 0.280D-01
 Coeff:     -0.944D-01 0.243D+00-0.711D+00 0.154D+01
 Gap=     0.367 Goal=   None    Shift=    0.000
 RMSDP=2.24D-07 MaxDP=1.27D-06 DE=-1.99D-10 OVMax= 2.50D-06

 Cycle  11  Pass 1  IDiag  3:
 E= 0.217480791726530E-01 Delta-E=       -0.000000000010 Rises=F Damp=F
 DIIS: error= 3.40D-08 at cycle  11 NSaved=  11.
 NSaved=11 IEnMin=11 EnMin= 0.217480791726530E-01 IErMin=11 ErrMin= 3.40D-08
 ErrMax= 3.40D-08  0.00D+00 EMaxC= 1.00D-01 BMatC= 5.91D-14 BMatP= 1.61D-12
 IDIUse=1 WtCom= 1.00D+00 WtEn= 0.00D+00
 Coeff-Com:  0.411D-05-0.342D-04 0.114D-03-0.499D-03 0.207D-02-0.994D-02
 Coeff-Com:  0.333D-01-0.843D-01 0.251D+00-0.652D+00 0.146D+01
 Coeff:      0.411D-05-0.342D-04 0.114D-03-0.499D-03 0.207D-02-0.994D-02
 Coeff:      0.333D-01-0.843D-01 0.251D+00-0.652D+00 0.146D+01
 Gap=     0.367 Goal=   None    Shift=    0.000
 RMSDP=4.03D-08 MaxDP=1.82D-07 DE=-1.01D-11 OVMax= 2.59D-07

 Cycle  12  Pass 1  IDiag  3:
 E= 0.217480791725109E-01 Delta-E=        0.000000000000 Rises=F Damp=F
 DIIS: error= 7.99D-09 at cycle  12 NSaved=  12.
 NSaved=12 IEnMin=12 EnMin= 0.217480791725109E-01 IErMin=12 ErrMin= 7.99D-09
 ErrMax= 7.99D-09  0.00D+00 EMaxC= 1.00D-01 BMatC= 2.85D-15 BMatP= 5.91D-14
 IDIUse=1 WtCom= 1.00D+00 WtEn= 0.00D+00
 Coeff-Com: -0.114D-05 0.946D-05-0.303D-04 0.133D-03-0.544D-03 0.266D-02
 Coeff-Com: -0.890D-02 0.222D-01-0.666D-01 0.184D+00-0.553D+00 0.142D+01
 Coeff:     -0.114D-05 0.946D-05-0.303D-04 0.133D-03-0.544D-03 0.266D-02
 Coeff:     -0.890D-02 0.222D-01-0.666D-01 0.184D+00-0.553D+00 0.142D+01
 Gap=     0.367 Goal=   None    Shift=    0.000
 RMSDP=9.48D-09 MaxDP=5.26D-08 DE=-1.42D-13 OVMax= 8.57D-08

 Cycle  13  Pass 2  IDiag  1:
 SCF Done:  E(RAM1) =  0.217480791725E-01 A.U. after   13 cycles
            NFock= 12  Conv=0.95D-08     -V/T= 1.0013
 KE=-1.658268997209D+01 PE=-1.714578371189D+02 EE= 8.435130475693D+01
 Leave Link  502 at Tue Dec 15 16:20:34 2015, MaxMem=    33554432 cpu:         0.0
 (Enter /home/Applications/g09/g09/l801.exe)
 Range of M.O.s used for correlation:     1    24
 NBasis=    24 NAE=    13 NBE=    13 NFC=     0 NFV=     0
 NROrb=     24 NOA=    13 NOB=    13 NVA=    11 NVB=    11
 Leave Link  801 at Tue Dec 15 16:20:34 2015, MaxMem=    33554432 cpu:         0.0
 (Enter /home/Applications/g09/g09/l914.exe)
 RHF ground state
 MDV=    33554432 DFT=F DoStab=F Mixed=F DoRPA=F DoScal=F NonHer=F
 Making orbital integer symmetry assigments:
 Orbital symmetries:
       Occupied  (A) (A) (A) (A) (A) (A) (A) (A) (A) (A) (A) (A)
                 (A)
       Virtual   (A) (A) (A) (A) (A) (A) (A) (A) (A) (A) (A)
    60 initial guesses have been made.
 Convergence on wavefunction:    0.000001000000000
 Davidson Disk Diagonalization:  ConvIn= 1.00D-06 SkipCon=T Conv= 1.00D-06.
 Max sub-space:   240 roots to seek:    60 dimension of matrix:          286
 Iteration     1 Dimension    60 NMult     0 NNew     60
 CISAX will form    60 AO SS matrices at one time.
 NMat=    60 NSing=    60 JSym2X= 0.
 FoFJK:  IHMeth= 8 ICntrl=       0 DoSepK=F KAlg= 0 I1Cent=   0 FoldK=F
 IRaf=         1 NMat= 120 IRICut=       1 DoRegI=T DoRafI=F ISym2E= 0.
 FoFCou: FMM=F IPFlag=           0 FMFlag=      100000 FMFlg1=           0
         NFxFlg=           0 DoJE=F BraDBF=F KetDBF=F FulRan=T
         wScrn=  0.000000 ICntrl=       0 IOpCl=  0 I1Cent=           0 NGrid=           0
         NMat0=  120 NMatS0=     60 NMatT0=    0 NMatD0=  120 NMtDS0=    0 NMtDT0=    0
 Symmetry not used in FoFCou.
 New state      2 was old state      4
 New state      3 was old state      2
 New state      4 was old state      6
 New state      5 was old state      7
 New state      6 was old state      9
 New state      7 was old state      3
 New state      9 was old state      5
 New state     10 was old state     12
 New state     12 was old state     19
 New state     13 was old state     17
 New state     14 was old state     16
 New state     15 was old state     13
 Excitation Energies [eV] at current iteration:
 Root      1 :     4.423852674726739
 Root      2 :     4.792276520999216
 Root      3 :     5.046937550284325
 Root      4 :     6.040827351927944
 Root      5 :     6.086064886105842
 Root      6 :     6.154324192517226
 Root      7 :     6.381437034402579
 Root      8 :     6.679010899062705
 Root      9 :     6.749561906976337
 Root     10 :     6.954352443555169
 Root     11 :     7.419834930974963
 Root     12 :     7.453388641956098
 Root     13 :     7.515513814796493
 Root     14 :     7.719889169942064
 Root     15 :     7.843409490751400
 Root     16 :     7.898887510710967
 Root     17 :     8.001023208347988
 Root     18 :     8.171638536040778
 Root     19 :     8.322094218098774
 Root     20 :     8.377106228828611
 Root     21 :     8.531959048520969
 Root     22 :     8.546701544525193
 Root     23 :     8.701515946382672
 Root     24 :     9.142620202717339
 Root     25 :     9.426995829662488
 Root     26 :     9.507202827380842
 Root     27 :     9.685662871945711
 Root     28 :     9.739498019185540
 Root     29 :     9.763354493754466
 Root     30 :     9.949716288698562
 Root     31 :     9.984224626017379
 Root     32 :    10.114644806020390
 Root     33 :    10.126543954378870
 Root     34 :    10.283368182930970
 Root     35 :    10.347888665101870
 Root     36 :    10.461905133285730
 Root     37 :    10.725219046824580
 Root     38 :    10.773721576129050
 Root     39 :    10.866696276704370
 Root     40 :    10.970763706028170
 Root     41 :    11.052812878679540
 Root     42 :    11.153409273951960
 Root     43 :    11.271659802952160
 Root     44 :    11.496130157261370
 Root     45 :    11.612286225998040
 Root     46 :    11.725169186931720
 Root     47 :    11.796293711268400
 Root     48 :    11.871596027924560
 Root     49 :    11.919210582893330
 Root     50 :    12.212871989400440
 Root     51 :    12.293599810755050
 Root     52 :    12.608084476103180
 Root     53 :    12.921775136448010
 Root     54 :    12.953938402334780
 Root     55 :    13.124335354947910
 Root     56 :    13.308391997046240
 Root     57 :    13.361914537776200
 Root     58 :    13.504487118868170
 Root     59 :    13.865897290697230
 Root     60 :    13.908189786535380
 Iteration     2 Dimension   120 NMult    60 NNew     60
 CISAX will form    60 AO SS matrices at one time.
 NMat=    60 NSing=    60 JSym2X= 0.
 Root      1 not converged, maximum delta is    0.042366613521950
 Root      2 not converged, maximum delta is    0.037274078848083
 Root      3 not converged, maximum delta is    0.017477985774406
 Root      4 not converged, maximum delta is    0.097822572291612
 Root      5 not converged, maximum delta is    0.151468857885681
 Root      6 not converged, maximum delta is    0.156891462887603
 Root      7 not converged, maximum delta is    0.047870563044502
 Root      8 not converged, maximum delta is    0.041152016663458
 Root      9 not converged, maximum delta is    0.030360156112012
 Root     10 not converged, maximum delta is    0.019439314818303
 Root     11 not converged, maximum delta is    0.057710718612988
 Root     12 not converged, maximum delta is    0.067262810909545
 Root     13 not converged, maximum delta is    0.062167002949943
 Root     14 not converged, maximum delta is    0.058447569199520
 Root     15 not converged, maximum delta is    0.137936365562615
 Excitation Energies [eV] at current iteration:
 Root      1 :     4.324127426798412   Change is   -0.099725247928327
 Root      2 :     4.757697826750301   Change is   -0.034578694248915
 Root      3 :     5.029861136676459   Change is   -0.017076413607867
 Root      4 :     5.920346373690487   Change is   -0.120480978237457
 Root      5 :     5.974468457565727   Change is   -0.111596428540115
 Root      6 :     6.071940794605220   Change is   -0.082383397912005
 Root      7 :     6.221075362124481   Change is   -0.160361672278098
 Root      8 :     6.616106186040096   Change is   -0.062904713022608
 Root      9 :     6.693038452401405   Change is   -0.056523454574932
 Root     10 :     6.918465554219686   Change is   -0.035886889335482
 Root     11 :     7.270215495157676   Change is   -0.149619435817286
 Root     12 :     7.321278698310459   Change is   -0.132109943645639
 Root     13 :     7.471000829156425   Change is   -0.044512985640067
 Root     14 :     7.621329738071505   Change is   -0.098559431870559
 Root     15 :     7.709183183944092   Change is   -0.134226306807308
 Root     16 :     7.824252426054029   Change is   -0.074635084656939
 Root     17 :     7.940624170090643   Change is   -0.060399038257345
 Root     18 :     8.068499653103112   Change is   -0.103138882937667
 Root     19 :     8.137770647847557   Change is   -0.184323570251218
 Root     20 :     8.254306176924601   Change is   -0.277652871596368
 Root     21 :     8.280830118587549   Change is   -0.096276110241061
 Root     22 :     8.518879840832232   Change is   -0.027821703692961
 Root     23 :     8.676184336567578   Change is   -0.025331609815093
 Root     24 :     9.032789186004152   Change is   -0.109831016713187
 Root     25 :     9.134711858424637   Change is   -0.372490968956206
 Root     26 :     9.305647422818911   Change is   -0.457707070935555
 Root     27 :     9.348168990258943   Change is   -0.078826839403545
 Root     28 :     9.436489380874161   Change is   -0.513226907824402
 Root     29 :     9.494566330178104   Change is   -0.191096541767608
 Root     30 :     9.568888493774622   Change is   -0.170609525410917
 Root     31 :     9.634827124369696   Change is   -0.491716830009170
 Root     32 :     9.776325876765089   Change is   -0.207898749252291
 Root     33 :     9.883193130506291   Change is   -0.842025916318288
 Root     34 :     9.924536863569061   Change is   -0.537368269716668
 Root     35 :     9.976785176503189   Change is   -0.137859629517205
 Root     36 :    10.161258066781410   Change is   -0.122110116149551
 Root     37 :    10.177930399890380   Change is   -0.169958265211492
 Root     38 :    10.324777675396330   Change is   -0.448943900732726
 Root     39 :    10.375473132272200   Change is   -0.491223144432173
 Root     40 :    10.558407982974020   Change is   -0.412355723054156
 Root     41 :    10.648089603838690   Change is   -0.505319670113266
 Root     42 :    10.769770573919080   Change is   -0.283042304760460
 Root     43 :    10.931568716219540   Change is   -0.564561441041838
 Root     44 :    11.058976893437330   Change is   -0.553309332560709
 Root     45 :    11.199176217688440   Change is   -0.072483585263720
 Root     46 :    11.360354032618210   Change is   -0.364815154313508
 Root     47 :    11.457444056922390   Change is   -0.338849654346005
 Root     48 :    11.657235276235910   Change is   -0.214360751688651
 Root     49 :    11.705558912510760   Change is   -0.213651670382577
 Root     50 :    11.856665873153750   Change is   -0.436933937601301
 Root     51 :    11.994420235036070   Change is   -0.218451754364372
 Root     52 :    12.093969535770200   Change is   -0.827805600677813
 Root     53 :    12.300327958848990   Change is   -0.307756517254194
 Root     54 :    12.490836982253010   Change is   -0.871077555523180
 Root     55 :    12.792775185603140   Change is   -0.331560169344780
 Root     56 :    12.891165714646450   Change is   -0.062772687688339
 Root     57 :    12.913023455077430
 Root     58 :    13.012369737254020   Change is   -0.296022259792223
 Root     59 :    13.250084164802510   Change is   -0.615813125894714
 Root     60 :    13.286164949535590   Change is   -0.218322169332588
 Iteration     3 Dimension   135 NMult   120 NNew     15
 CISAX will form    15 AO SS matrices at one time.
 NMat=    15 NSing=    15 JSym2X= 0.
 Root      1 not converged, maximum delta is    0.001543478396261
 Root      2 not converged, maximum delta is    0.000082080126209
 Root      3 not converged, maximum delta is    0.000304407120012
 Root      4 not converged, maximum delta is    0.000141542626224
 Root      5 not converged, maximum delta is    0.000139437611453
 Root      6 not converged, maximum delta is    0.000741072128853
 Root      7 not converged, maximum delta is    0.002516502402221
 Root      8 not converged, maximum delta is    0.001134472827841
 Root      9 not converged, maximum delta is    0.001620264379926
 Root     10 not converged, maximum delta is    0.000198736170148
 Root     11 not converged, maximum delta is    0.000485722662875
 Root     12 not converged, maximum delta is    0.000255888328652
 Root     13 not converged, maximum delta is    0.000164911332091
 Root     14 not converged, maximum delta is    0.000146279554942
 Root     15 not converged, maximum delta is    0.000309834023339
 Excitation Energies [eV] at current iteration:
 Root      1 :     4.323670998163339   Change is   -0.000456428635073
 Root      2 :     4.757695202523940   Change is   -0.000002624226362
 Root      3 :     5.029833876258137   Change is   -0.000027260418322
 Root      4 :     5.920340673639314   Change is   -0.000005700051174
 Root      5 :     5.974462028282280   Change is   -0.000006429283446
 Root      6 :     6.071899583288057   Change is   -0.000041211317163
 Root      7 :     6.219849772732157   Change is   -0.001225589392323
 Root      8 :     6.616029971250061   Change is   -0.000076214790036
 Root      9 :     6.692716489159888   Change is   -0.000321963241516
 Root     10 :     6.918455377946257   Change is   -0.000010176273429
 Root     11 :     7.270148550473182   Change is   -0.000066944684495
 Root     12 :     7.321251645573598   Change is   -0.000027052736861
 Root     13 :     7.470994427073604   Change is   -0.000006402082821
 Root     14 :     7.621321177563387   Change is   -0.000008560508118
 Root     15 :     7.709170413684716   Change is   -0.000012770259377
 Iteration     4 Dimension   143 NMult   135 NNew      8
 CISAX will form     8 AO SS matrices at one time.
 NMat=     8 NSing=     8 JSym2X= 0.
 Root      1 not converged, maximum delta is    0.000043420607096
 Root      2 not converged, maximum delta is    0.000002860835159
 Root      3 not converged, maximum delta is    0.000010262393194
 Root      4 not converged, maximum delta is    0.000010692571621
 Root      5 not converged, maximum delta is    0.000005938075527
 Root      6 not converged, maximum delta is    0.000016027060655
 Root      7 not converged, maximum delta is    0.000086944338120
 Root      8 not converged, maximum delta is    0.000018082217364
 Root      9 not converged, maximum delta is    0.000040784499650
 Root     10 not converged, maximum delta is    0.000007998025380
 Root     11 not converged, maximum delta is    0.000034241152590
 Root     12 not converged, maximum delta is    0.000016816693640
 Root     13 not converged, maximum delta is    0.000006326080999
 Root     14 not converged, maximum delta is    0.000012480119672
 Root     15 not converged, maximum delta is    0.000017343835185
 Excitation Energies [eV] at current iteration:
 Root      1 :     4.323670320851044   Change is   -0.000000677312294
 Root      2 :     4.757695198957753   Change is   -0.000000003566186
 Root      3 :     5.029833833271271   Change is   -0.000000042986866
 Root      4 :     5.920340636196426   Change is   -0.000000037442888
 Root      5 :     5.974462013502823   Change is   -0.000000014779457
 Root      6 :     6.071899494481292   Change is   -0.000000088806766
 Root      7 :     6.219847416778034   Change is   -0.000002355954124
 Root      8 :     6.616029856965526   Change is   -0.000000114284535
 Root      9 :     6.692716013343244   Change is   -0.000000475816644
 Root     10 :     6.918455346853213   Change is   -0.000000031093045
 Root     11 :     7.270148105198829   Change is   -0.000000445274353
 Root     12 :     7.321251510978684   Change is   -0.000000134594914
 Root     13 :     7.470994412992418   Change is   -0.000000014081185
 Root     14 :     7.621321121634793   Change is   -0.000000055928595
 Root     15 :     7.709170344441454   Change is   -0.000000069243262
 Convergence achieved on expansion vectors.
 ***********************************************************************
 Excited states from <AA,BB:AA,BB> singles matrix:
 ***********************************************************************
 
 1PDM for each excited state written to RWF  633
 Ground to excited state transition densities written to RWF  633
 Ground to excited state transition electric dipole moments (Au):
       state          X           Y           Z        Dip. S.      Osc.
         1        -1.0461      0.0297     -0.0126      1.0954      0.1160
         2         0.0355      0.0585      0.0125      0.0048      0.0006
         3         0.0177      0.2755     -0.0065      0.0762      0.0094
         4         0.0121      0.0439     -0.0317      0.0031      0.0004
         5         0.0106     -0.0879     -0.1114      0.0202      0.0030
         6         0.0743      0.2680      0.0692      0.0821      0.0122
         7         0.0142      1.5056     -0.0348      2.2683      0.3456
         8         0.3874     -0.0475      0.0187      0.1527      0.0248
         9         0.8209     -0.0461     -0.0847      0.6831      0.1120
        10         0.0273      0.1018     -0.1070      0.0225      0.0038
        11         0.0041     -0.0740      0.0129      0.0057      0.0010
        12         0.0048     -0.0391     -0.0571      0.0048      0.0009
        13         0.0250      0.0664     -0.0365      0.0064      0.0012
        14        -0.0081      0.0358      0.0531      0.0042      0.0008
        15        -0.0061     -0.0121      0.0860      0.0076      0.0014
 Ground to excited state transition velocity dipole moments (Au):
       state          X           Y           Z        Dip. S.      Osc.
         1         0.0532      0.0009      0.0133      0.0030      0.0126
         2        -0.0010     -0.0014     -0.0024      0.0000      0.0000
         3         0.0022     -0.0182     -0.0004      0.0003      0.0012
         4        -0.0019     -0.0154      0.0189      0.0006      0.0018
         5        -0.0005      0.0242      0.0295      0.0015      0.0044
         6        -0.0114     -0.0530     -0.0814      0.0096      0.0286
         7        -0.0081     -0.3137      0.0155      0.0987      0.2878
         8        -0.0753      0.0098     -0.1635      0.0325      0.0892
         9        -0.1476      0.0102      0.1023      0.0324      0.0877
        10        -0.0076     -0.0254      0.0165      0.0010      0.0026
        11        -0.0009      0.0173     -0.0047      0.0003      0.0008
        12         0.0017      0.0087      0.0084      0.0002      0.0004
        13        -0.0005     -0.0216      0.0498      0.0029      0.0072
        14         0.0039     -0.0116     -0.0384      0.0016      0.0039
        15         0.0036      0.0104     -0.0180      0.0004      0.0010
 Ground to excited state transition magnetic dipole moments (Au):
       state          X           Y           Z
         1         0.0466      0.0187     -0.6210
         2        -0.0060      0.6495      0.0146
         3         0.0046     -0.0712      0.0023
         4        -0.1032      0.1293      0.0084
         5        -0.2684      0.0033     -0.0065
         6         0.1183      0.0090      0.0109
         7         0.0279     -0.0205      0.0022
         8        -0.2197     -0.0005      0.0300
         9         0.2104     -0.0486      0.1261
        10        -1.6851      0.1125     -0.0474
        11        -0.1263      0.0504      0.0119
        12         0.0001      0.9604      0.0230
        13         0.6953      0.0948     -0.0178
        14        -0.3433      0.0136     -0.0170
        15         0.0215     -0.2385      0.0253
 Ground to excited state transition velocity quadrupole moments (Au):
       state          XX          YY          ZZ          XY          XZ          YZ
         1        -0.0531      0.0447      0.0053     -0.4388      0.0124     -0.0053
         2         0.0092     -0.0093      0.0117      0.0275      0.1755     -0.0148
         3         0.1014     -0.1491      0.0719      0.0143     -0.0245      0.0025
         4         0.0247     -0.0075      0.0011     -0.0096     -0.1387     -0.1078
         5        -0.0255      0.0114      0.0104      0.0123      0.0495     -0.2579
         6         0.0878     -0.0287     -0.0139     -0.0417      0.0232      0.1564
         7         0.4809     -0.2418     -0.0511     -0.0405      0.0376     -0.0573
         8        -0.0208      0.0440     -0.0035     -0.2844     -0.0098      0.0243
         9        -0.0368      0.0474      0.0039     -0.4810      0.0005     -0.0199
        10         0.0186     -0.0171     -0.0094     -0.0740      0.0004      0.0727
        11        -0.0364     -0.0188      0.0303      0.0046      0.1662      0.0474
        12        -0.0162      0.0224     -0.0119      0.0188     -0.1793      0.0164
        13         0.0280     -0.0074      0.0057     -0.0458     -0.1049      0.4136
        14         0.0391      0.0207      0.0256     -0.0004     -0.2816     -0.1196
        15        -0.0192      0.0223      0.0327      0.0275     -0.1155      0.0087
 <0|del|b> * <b|rxdel|0> + <0|del|b> * <b|delr+rdel|0>
 Rotatory Strengths (R) in cgs (10**-40 erg-esu-cm/Gauss)
       state          XX          YY          ZZ    R(velocity)    E-M Angle
         1       -31.2435     -0.4780      6.2127     -8.5029       99.66
         2        -1.5545      0.1035     -2.3705     -1.2738      119.70
         3         1.6097      0.0390      3.3326      1.6605       90.00
         4        -6.7394      1.2037      0.2207     -1.7717      113.81
         5        -1.5293     -0.4963      2.0677      0.0140       90.00
         6         5.1728    -11.7449     -2.0146     -2.8623      103.44
         7        27.2675      1.3954     -9.3649      6.4327       55.05
         8        60.6550    -53.3724     26.5939     11.2922       73.07
         9       -52.9183     48.8924    -49.5608    -17.8622      114.48
        10        -6.7488     17.6245     14.5631      8.4796       80.02
        11        -2.7608      0.0490      5.1813      0.8232       67.67
        12        13.5430      0.0846      8.9280      7.5185       43.26
        13        -9.6373      1.0417      0.0908     -2.8349       94.97
        14        -3.4696     -1.4966      2.8040     -0.7207       93.54
        15        -2.7770      0.1865     -4.5317     -2.3741      124.21
 1/2[<0|r|b>*<b|rxdel|0> + (<0|rxdel|b>*<b|r|0>)*]
 Rotatory Strengths (R) in cgs (10**-40 erg-esu-cm/Gauss)
       state          XX          YY          ZZ     R(length)
         1        34.5080     -0.3941     -5.5331      9.5269
         2         0.1517    -26.8693     -0.1294     -8.9490
         3        -0.0580     13.8686      0.0105      4.6071
         4         0.8837     -4.0162      0.1882     -0.9814
         5         2.0065      0.2056     -0.5160      0.5654
         6        -6.2133     -1.7074     -0.5312     -2.8173
         7        -0.2803     21.8270      0.0542      7.2003
         8        60.2041     -0.0182     -0.3964     19.9299
         9      -122.1174     -1.5819      7.5550    -38.7148
        10        32.5689     -8.0969     -3.5869      6.9617
        11         0.3658      2.6387     -0.1085      0.9653
        12        -0.0003     26.5558      0.9303      9.1619
        13       -12.2822     -4.4494     -0.4588     -5.7302
        14        -1.9755     -0.3430      0.6379     -0.5602
        15         0.0927     -2.0357     -1.5353     -1.1594
  1/2[<0|del|b>*<b|r|0> + (<0|r|b>*<b|del|0>)*] (Au)
       state          X           Y           Z        Dip. S.   Osc.(frdel)
         1        -0.0556      0.0000     -0.0002      0.0558      0.0372
         2         0.0000     -0.0001      0.0000      0.0001      0.0001
         3         0.0000     -0.0050      0.0000      0.0050      0.0033
         4         0.0000     -0.0007     -0.0006      0.0013      0.0009
         5         0.0000     -0.0021     -0.0033      0.0054      0.0036
         6        -0.0008     -0.0142     -0.0056      0.0207      0.0138
         7        -0.0001     -0.4722     -0.0005      0.4729      0.3153
         8        -0.0292     -0.0005     -0.0031      0.0327      0.0218
         9        -0.1212     -0.0005     -0.0087      0.1303      0.0869
        10        -0.0002     -0.0026     -0.0018      0.0046      0.0030
        11         0.0000     -0.0013     -0.0001      0.0013      0.0009
        12         0.0000     -0.0003     -0.0005      0.0008      0.0005
        13         0.0000     -0.0014     -0.0018      0.0033      0.0022
        14         0.0000     -0.0004     -0.0020      0.0025      0.0017
        15         0.0000     -0.0001     -0.0015      0.0017      0.0011

 Excitation energies and oscillator strengths:
 
 Excited State   1:      Singlet-A      4.3237 eV  286.76 nm  f=0.1160  <S**2>=0.000
      12 -> 15         0.17737
      13 -> 14         0.67507
 This state for optimization and/or second-order correction.
 Total Energy, E(CIS) =  0.180640046704    
 Copying the excited state density for this state as the 1-particle RhoCI density.
 
 Excited State   2:      Singlet-A      4.7577 eV  260.60 nm  f=0.0006  <S**2>=0.000
      13 -> 15         0.13337
      13 -> 16         0.67819
 
 Excited State   3:      Singlet-A      5.0298 eV  246.50 nm  f=0.0094  <S**2>=0.000
      12 -> 14        -0.40558
      13 -> 15         0.55723
      13 -> 16        -0.13847
 
 Excited State   4:      Singlet-A      5.9203 eV  209.42 nm  f=0.0004  <S**2>=0.000
      12 -> 17        -0.16521
      12 -> 20         0.10297
      12 -> 23         0.11580
      13 -> 17         0.33701
      13 -> 18         0.40677
      13 -> 20        -0.24246
      13 -> 22        -0.26362
      13 -> 23        -0.11298
 
 Excited State   5:      Singlet-A      5.9745 eV  207.52 nm  f=0.0030  <S**2>=0.000
      12 -> 18        -0.17194
      12 -> 22         0.12243
      13 -> 17         0.38093
      13 -> 18        -0.29842
      13 -> 19        -0.26601
      13 -> 22         0.15354
      13 -> 23        -0.26771
 
 Excited State   6:      Singlet-A      6.0719 eV  204.19 nm  f=0.0122  <S**2>=0.000
       7 -> 16        -0.18979
      12 -> 15         0.10573
      12 -> 16         0.63401
      12 -> 22        -0.12142
 
 Excited State   7:      Singlet-A      6.2198 eV  199.34 nm  f=0.3456  <S**2>=0.000
      12 -> 14         0.52572
      12 -> 16        -0.11668
      13 -> 15         0.38192
 
 Excited State   8:      Singlet-A      6.6160 eV  187.40 nm  f=0.0248  <S**2>=0.000
      12 -> 15         0.30560
      13 -> 17         0.14026
      13 -> 18        -0.21718
      13 -> 19         0.53433
 
 Excited State   9:      Singlet-A      6.6927 eV  185.25 nm  f=0.1120  <S**2>=0.000
      12 -> 15         0.59188
      13 -> 14        -0.14536
      13 -> 18         0.11551
      13 -> 19        -0.27466
 
 Excited State  10:      Singlet-A      6.9185 eV  179.21 nm  f=0.0038  <S**2>=0.000
      10 -> 14         0.46175
      10 -> 15        -0.13074
      11 -> 14         0.42134
      11 -> 15         0.22610
 
 Excited State  11:      Singlet-A      7.2701 eV  170.54 nm  f=0.0010  <S**2>=0.000
      10 -> 14         0.38200
      10 -> 15        -0.18669
      11 -> 14        -0.37261
      11 -> 15        -0.12444
      12 -> 17         0.13333
      12 -> 19        -0.20032
      13 -> 17         0.12151
      13 -> 18         0.18484
      13 -> 20         0.13934
 
 Excited State  12:      Singlet-A      7.3213 eV  169.35 nm  f=0.0009  <S**2>=0.000
      10 -> 14         0.18304
      11 -> 14        -0.22364
      12 -> 18        -0.16803
      12 -> 19         0.38813
      12 -> 21        -0.14050
      13 -> 18        -0.20782
      13 -> 22        -0.31623
 
 Excited State  13:      Singlet-A      7.4710 eV  165.95 nm  f=0.0012  <S**2>=0.000
       7 -> 16        -0.10257
      11 -> 14         0.13143
      12 -> 17         0.26510
      12 -> 18         0.24001
      12 -> 19         0.15873
      12 -> 22        -0.18865
      13 -> 17         0.32964
      13 -> 20         0.21502
      13 -> 22        -0.14181
      13 -> 23         0.18625
      13 -> 24        -0.20548
 
 Excited State  14:      Singlet-A      7.6213 eV  162.68 nm  f=0.0008  <S**2>=0.000
       9 -> 15         0.17898
      12 -> 17         0.34393
      12 -> 18        -0.26451
      12 -> 21        -0.20968
      12 -> 23        -0.16686
      12 -> 24        -0.10236
      13 -> 18         0.17674
      13 -> 20         0.20628
      13 -> 21         0.19729
      13 -> 24         0.16853
 
 Excited State  15:      Singlet-A      7.7092 eV  160.83 nm  f=0.0014  <S**2>=0.000
      12 -> 19         0.29341
      12 -> 21        -0.20612
      12 -> 23        -0.22508
      13 -> 18         0.12155
      13 -> 20        -0.13092
      13 -> 21        -0.29397
      13 -> 22         0.37575
 SavETr:  write IOETrn=   770 NScale= 10 NData=  16 NLR=1 NState=   15 LETran=     280.
 The selected state is a singlet
 CISAX will form     1 AO SS matrices at one time.
 NMat=     1 NSing=     1 JSym2X= 0.
 Leave Link  914 at Tue Dec 15 16:20:34 2015, MaxMem=    33554432 cpu:         0.1
 (Enter /home/Applications/g09/g09/l1002.exe)
 Minotr:  Closed shell wavefunction.
          Computing CIS/TD-HF/TD-KS derivatives.
          Using Z-Vector for PSCF gradient.
          Skipping F1 and S1 gradient terms here.
          IDoAtm=111111111
          Direct CPHF calculation.
          Differentiating once with respect to electric field.
                with respect to dipole field.
          Differentiating once with respect to nuclear coordinates.
          Electric field/nuclear overlap derivatives assumed to be zero.
          Requested convergence is 1.0D-10 RMS, and 1.0D-09 maximum.
          NewPWx=T KeepS1=F KeepF1=F KeepIn=T MapXYZ=F SortEE=F KeepMc=T.
          MDV=      33495423 using IRadAn=       0.
 Keep J ints in memory in canonical form, NReq=871704.
 FoFCou: FMM=F IPFlag=           0 FMFlag=           0 FMFlg1=           0
         NFxFlg=           0 DoJE=F BraDBF=F KetDBF=F FulRan=T
         wScrn=  0.000000 ICntrl=     600 IOpCl=  2 I1Cent=           0 NGrid=           0
         NMat0=    1 NMatS0=     54 NMatT0=    0 NMatD0=    1 NMtDS0=    0 NMtDT0=    0
 Symmetry not used in FoFCou.
          Solving linear equations separately, MaxMat=       0.
          There are     1 degrees of freedom in the 1st order CPHF.  IDoFFX=0 NUNeed=     1.
 LinEq1:  Iter=  0 NonCon=     1 RMS=1.26D-02 Max=9.26D-02 NDo=     1
 AX will form     1 AO Fock derivatives at one time.
 LinEq1:  Iter=  1 NonCon=     1 RMS=2.56D-03 Max=2.04D-02 NDo=     1
 LinEq1:  Iter=  2 NonCon=     1 RMS=4.23D-04 Max=3.04D-03 NDo=     1
 LinEq1:  Iter=  3 NonCon=     1 RMS=5.25D-05 Max=3.07D-04 NDo=     1
 LinEq1:  Iter=  4 NonCon=     1 RMS=4.87D-06 Max=1.59D-05 NDo=     1
 LinEq1:  Iter=  5 NonCon=     1 RMS=6.28D-07 Max=2.38D-06 NDo=     1
 LinEq1:  Iter=  6 NonCon=     1 RMS=1.02D-07 Max=8.36D-07 NDo=     1
 LinEq1:  Iter=  7 NonCon=     1 RMS=1.48D-08 Max=7.57D-08 NDo=     1
 LinEq1:  Iter=  8 NonCon=     1 RMS=2.56D-09 Max=1.56D-08 NDo=     1
 LinEq1:  Iter=  9 NonCon=     1 RMS=3.06D-10 Max=1.32D-09 NDo=     1
 LinEq1:  Iter= 10 NonCon=     0 RMS=3.20D-11 Max=1.45D-10 NDo=     1
 Linear equations converged to 1.000D-10 1.000D-09 after    10 iterations.
 End of Minotr F.D. properties file   721 does not exist.
 End of Minotr F.D. properties file   722 does not exist.
 End of Minotr F.D. properties file   788 does not exist.
 Leave Link 1002 at Tue Dec 15 16:20:34 2015, MaxMem=    33554432 cpu:         0.0
 (Enter /home/Applications/g09/g09/l601.exe)
 Copying SCF densities to generalized density rwf, IOpCl= 0 IROHF=0.

 **********************************************************************

            Population analysis using the SCF density.

 **********************************************************************

 Orbital symmetries:
       Occupied  (A) (A) (A) (A) (A) (A) (A) (A) (A) (A) (A) (A)
                 (A)
       Virtual   (A) (A) (A) (A) (A) (A) (A) (A) (A) (A) (A)
 The electronic state is 1-A.
 Alpha  occ. eigenvalues --   -1.56543  -1.24222  -1.10261  -0.83093  -0.81392
 Alpha  occ. eigenvalues --   -0.68734  -0.59930  -0.57001  -0.51220  -0.50280
 Alpha  occ. eigenvalues --   -0.49739  -0.40289  -0.34192
 Alpha virt. eigenvalues --    0.02484   0.06720   0.09550   0.14477   0.14582
 Alpha virt. eigenvalues --    0.15578   0.17796   0.18692   0.19344   0.20773
 Alpha virt. eigenvalues --    0.22139
     Molecular Orbital Coefficients:
                           1         2         3         4         5
                           O         O         O         O         O
     Eigenvalues --    -1.56543  -1.24222  -1.10261  -0.83093  -0.81392
   1 1   C  1S          0.30629  -0.46861  -0.27884  -0.32911   0.25168
   2        1PX         0.06460  -0.09821   0.16452  -0.14954  -0.26653
   3        1PY        -0.11831   0.02521   0.10695  -0.25336  -0.05034
   4        1PZ        -0.00287   0.00439   0.00095   0.00404   0.00171
   5 2   C  1S          0.37352  -0.08812  -0.51559   0.41314   0.02414
   6        1PX         0.18205   0.04405   0.01371  -0.12571  -0.09855
   7        1PY        -0.01689  -0.23483  -0.02147  -0.10509   0.35286
   8        1PZ        -0.00192  -0.00027   0.00215  -0.00386   0.00316
   9 3   O  1S          0.62351   0.60865   0.02081  -0.29067  -0.07821
  10        1PX         0.00200  -0.01176   0.33418  -0.13742   0.47885
  11        1PY         0.19595  -0.01835  -0.01721   0.16673   0.02642
  12        1PZ        -0.00017   0.00026  -0.00064   0.00018   0.00087
  13 4   C  1S          0.35274  -0.10668   0.52081   0.35490   0.22638
  14        1PX        -0.17798  -0.06057  -0.00360   0.16115  -0.05209
  15        1PY         0.00867  -0.21749   0.02215   0.09800  -0.34899
  16        1PZ         0.00119   0.00098   0.00210   0.00208   0.00692
  17 5   C  1S          0.30212  -0.46675   0.28014  -0.10817  -0.40550
  18        1PX        -0.07902   0.10093   0.15218   0.25186  -0.13198
  19        1PY        -0.10856   0.01883  -0.13121  -0.25763  -0.09600
  20        1PZ         0.00520  -0.00805   0.00431  -0.00389  -0.00719
  21 6   H  1S          0.06247  -0.14053   0.10917  -0.05631  -0.25608
  22 7   H  1S          0.07698  -0.02220   0.20458   0.21103   0.17657
  23 8   H  1S          0.08897  -0.01640  -0.21879   0.28312  -0.01932
  24 9   H  1S          0.06806  -0.15167  -0.11218  -0.21327   0.16762
                           6         7         8         9        10
                           O         O         O         O         O
     Eigenvalues --    -0.68734  -0.59930  -0.57001  -0.51220  -0.50280
   1 1   C  1S         -0.09039   0.01669  -0.16062   0.00471  -0.01959
   2        1PX         0.15468  -0.00228   0.07046   0.55325  -0.03194
   3        1PY        -0.27268  -0.00605  -0.11432  -0.02110   0.53489
   4        1PZ        -0.00425   0.24068   0.02686  -0.02119   0.00042
   5 2   C  1S         -0.06968  -0.00526   0.12024   0.02946  -0.02507
   6        1PX         0.37134   0.06097  -0.42848  -0.12575  -0.08174
   7        1PY         0.09095  -0.00072   0.07409  -0.23340  -0.42225
   8        1PZ         0.00034   0.39137   0.03992  -0.01202  -0.00268
   9 3   O  1S         -0.18795  -0.00554   0.01636  -0.07323  -0.16416
  10        1PX         0.02566  -0.04405   0.45549  -0.00395   0.01576
  11        1PY         0.47374   0.01951  -0.06227  -0.07354   0.50448
  12        1PZ        -0.00730   0.76215   0.08561   0.01064   0.01768
  13 4   C  1S         -0.08904   0.00546  -0.13891   0.03159   0.09902
  14        1PX        -0.34524   0.04572  -0.42653   0.12556  -0.22346
  15        1PY         0.11325  -0.00627   0.00034  -0.28076  -0.05821
  16        1PZ        -0.01278   0.37177   0.03174   0.01861   0.00866
  17 5   C  1S         -0.08915  -0.02411   0.17168   0.01165  -0.05482
  18        1PX        -0.18278   0.00220   0.05517  -0.54613  -0.02480
  19        1PY        -0.23296   0.01094   0.07524   0.07804   0.03284
  20        1PZ        -0.00918   0.23639   0.03103  -0.00307   0.00231
  21 6   H  1S         -0.22164   0.00463   0.16014  -0.23273  -0.02834
  22 7   H  1S         -0.26137   0.04563  -0.34376   0.22986  -0.06013
  23 8   H  1S         -0.26913  -0.05025   0.33243   0.19918   0.19443
  24 9   H  1S         -0.23737   0.00547  -0.18885  -0.25240   0.36706
                          11        12        13        14        15
                           O         O         O         V         V
     Eigenvalues --    -0.49739  -0.40289  -0.34192   0.02484   0.06720
   1 1   C  1S         -0.06202   0.01245  -0.00409  -0.01529   0.00400
   2        1PX         0.01639   0.02079  -0.01362  -0.01666   0.00083
   3        1PY        -0.13286   0.00639  -0.00370   0.00056   0.00866
   4        1PZ         0.00147   0.57909  -0.38383  -0.30421   0.60180
   5 2   C  1S          0.11826  -0.00523  -0.01193   0.00871  -0.02008
   6        1PX         0.20794  -0.01172   0.00139  -0.01682  -0.01009
   7        1PY         0.06948  -0.01095   0.01510  -0.00079   0.03577
   8        1PZ        -0.02149   0.12715  -0.59859   0.57722  -0.36725
   9 3   O  1S         -0.10615   0.00046   0.00598   0.00289   0.02040
  10        1PX         0.09053  -0.00579  -0.00154   0.00095   0.00994
  11        1PY         0.35721  -0.01113  -0.00284   0.00545   0.04138
  12        1PZ        -0.05388  -0.51301   0.02453  -0.37997   0.00904
  13 4   C  1S         -0.06993   0.00394  -0.00811  -0.01383  -0.03717
  14        1PX         0.07522  -0.00888  -0.01148  -0.01796   0.01364
  15        1PY        -0.41938   0.01584   0.03019   0.01857   0.03238
  16        1PZ         0.00683   0.16841   0.60793   0.57200   0.36077
  17 5   C  1S          0.02321  -0.02334  -0.01241   0.02233   0.03798
  18        1PX         0.14595  -0.01309   0.00143  -0.00411   0.02135
  19        1PY         0.55370  -0.02789  -0.01689   0.01218   0.02595
  20        1PZ         0.02206   0.59489   0.34923  -0.31535  -0.59876
  21 6   H  1S          0.43312  -0.00810   0.00403  -0.01646  -0.05191
  22 7   H  1S          0.18626  -0.00405   0.00007   0.01959   0.03644
  23 8   H  1S         -0.09566   0.00751   0.00226  -0.01262   0.02582
  24 9   H  1S         -0.13758  -0.00049   0.00472   0.00430  -0.01499
                          16        17        18        19        20
                           V         V         V         V         V
     Eigenvalues --     0.09550   0.14477   0.14582   0.15578   0.17796
   1 1   C  1S          0.01957   0.35589  -0.06241   0.01119  -0.18054
   2        1PX         0.01187  -0.04595  -0.14124   0.38315   0.37352
   3        1PY         0.06816  -0.17050  -0.28608  -0.12990   0.13972
   4        1PZ        -0.04902   0.00272   0.00936  -0.01632   0.01507
   5 2   C  1S         -0.22747  -0.42962  -0.16432  -0.03635   0.27773
   6        1PX        -0.23745   0.01558  -0.02285   0.38998  -0.15138
   7        1PY         0.34823  -0.08944  -0.16874  -0.03286   0.17541
   8        1PZ         0.03711   0.01122  -0.00395   0.01664  -0.00924
   9 3   O  1S          0.24173   0.01752  -0.02608  -0.01235   0.05912
  10        1PX         0.05841  -0.16641  -0.02437   0.28853   0.11075
  11        1PY         0.49015   0.05876  -0.01284  -0.02628   0.05559
  12        1PZ         0.00277  -0.00568   0.00439  -0.00932  -0.00128
  13 4   C  1S         -0.27232   0.21157  -0.40164  -0.16725  -0.01730
  14        1PX         0.29079   0.03598  -0.28091   0.30761   0.15885
  15        1PY         0.34293   0.02725  -0.13800  -0.13878   0.20221
  16        1PZ        -0.05438   0.02452  -0.01613   0.01630   0.01100
  17 5   C  1S          0.05438  -0.36048   0.13476   0.00026  -0.34734
  18        1PX         0.01109  -0.08678  -0.10164   0.38162  -0.19698
  19        1PY         0.05994  -0.09453  -0.39573  -0.19933  -0.24783
  20        1PZ         0.06408  -0.04887  -0.00308  -0.00187  -0.04517
  21 6   H  1S         -0.16152   0.44275   0.24863  -0.10230   0.50279
  22 7   H  1S          0.27250  -0.19963   0.52136  -0.17036  -0.01359
  23 8   H  1S          0.23582   0.37584   0.06247   0.36185  -0.26208
  24 9   H  1S         -0.11640  -0.21069   0.23364   0.31475   0.21742
                          21        22        23        24
                           V         V         V         V
     Eigenvalues --     0.18692   0.19344   0.20773   0.22139
   1 1   C  1S         -0.35489  -0.23965  -0.22602  -0.01212
   2        1PX        -0.12026   0.08072  -0.28049  -0.34695
   3        1PY        -0.42602   0.10637   0.40675  -0.07204
   4        1PZ         0.01726  -0.00030   0.00876   0.00888
   5 2   C  1S         -0.16574  -0.00747   0.05046   0.09111
   6        1PX        -0.14319   0.40514   0.25178   0.25994
   7        1PY         0.09873   0.29599   0.30754  -0.41718
   8        1PZ        -0.00279   0.00974   0.00749  -0.00474
   9 3   O  1S          0.05117  -0.06516  -0.00417  -0.01132
  10        1PX        -0.15545  -0.06129  -0.05840   0.51264
  11        1PY         0.10929  -0.22925  -0.00899  -0.04667
  12        1PZ         0.00111   0.00161  -0.00295  -0.00292
  13 4   C  1S          0.19446   0.12133  -0.06526  -0.07646
  14        1PX         0.18579  -0.36657   0.17305   0.27787
  15        1PY        -0.07457   0.31478  -0.32254   0.37550
  16        1PZ         0.00686  -0.01810   0.01447  -0.00513
  17 5   C  1S          0.15600  -0.17025   0.25814   0.01617
  18        1PX        -0.33747  -0.12582  -0.28341  -0.33139
  19        1PY         0.18629   0.29953  -0.33296   0.11745
  20        1PZ         0.00524   0.00158   0.00150   0.00128
  21 6   H  1S         -0.03968   0.01136   0.14606   0.07109
  22 7   H  1S         -0.28193   0.26463  -0.17295   0.00404
  23 8   H  1S          0.05208   0.37433   0.21729  -0.00196
  24 9   H  1S          0.49666   0.13767  -0.21423  -0.07833
     Density Matrix:
                           1         2         3         4         5
   1 1   C  1S          1.20297
   2        1PX        -0.04149   0.94234
   3        1PY         0.06700  -0.04437   0.96904
   4        1PZ         0.00913   0.00944   0.00335   1.08369
   5 2   C  1S          0.29951  -0.20693  -0.46379   0.00623   1.23874
   6        1PX         0.14419   0.03610  -0.20714  -0.00758  -0.10400
   7        1PY         0.43357  -0.31109  -0.52183  -0.01332   0.00988
   8        1PZ         0.01290   0.01169  -0.00210   0.79775   0.00610
   9 3   O  1S         -0.00072  -0.03350  -0.00276  -0.00241   0.10196
  10        1PX        -0.00708  -0.03191  -0.03286  -0.00098  -0.30455
  11        1PY        -0.07962  -0.00527   0.06527  -0.00398   0.28025
  12        1PZ        -0.00731  -0.00760   0.00098  -0.24205   0.00605
  13 4   C  1S         -0.02787  -0.00934   0.02346   0.00692   0.00890
  14        1PX         0.01889  -0.04421  -0.01724  -0.00312  -0.00611
  15        1PY        -0.01237  -0.07789  -0.02357  -0.00050  -0.04324
  16        1PZ         0.00349   0.00587  -0.00200  -0.09158  -0.00789
  17 5   C  1S          0.29244   0.48465   0.00469  -0.02717  -0.02646
  18        1PX        -0.46730  -0.63221  -0.01339   0.01608   0.01040
  19        1PY         0.05880   0.10752   0.13298  -0.01157   0.01843
  20        1PZ         0.01596   0.02152  -0.00121   0.53648  -0.00608
  21 6   H  1S         -0.04900  -0.06303   0.00429   0.00863   0.05946
  22 7   H  1S          0.04436   0.05900  -0.00328  -0.00620   0.04728
  23 8   H  1S         -0.05771   0.03725   0.08627  -0.00448   0.62517
  24 9   H  1S          0.57517  -0.43135   0.65585  -0.00217  -0.05319
                           6         7         8         9        10
   6        1PX         0.90373
   7        1PY         0.09034   0.88631
   8        1PZ         0.00333  -0.00742   1.05977
   9 3   O  1S          0.21654  -0.17544  -0.00389   1.85899
  10        1PX        -0.39142   0.43134   0.00392  -0.01102   1.15713
  11        1PY         0.51454  -0.27865  -0.00703  -0.29083   0.01636
  12        1PZ        -0.00201  -0.00467   0.44553   0.00085   0.00739
  13 4   C  1S         -0.00028  -0.04421   0.00518   0.09644   0.32986
  14        1PX         0.05061  -0.02169   0.00706  -0.22718  -0.50046
  15        1PY         0.01723  -0.02282  -0.01461  -0.14825  -0.41037
  16        1PZ         0.00182   0.00531  -0.39221   0.00261   0.00049
  17 5   C  1S         -0.01640  -0.01298   0.00128  -0.00287  -0.00257
  18        1PX        -0.03336   0.07405   0.00608   0.03252  -0.02581
  19        1PY         0.01195  -0.03151   0.00291  -0.00320   0.04696
  20        1PZ        -0.00429   0.00181  -0.08021   0.00183   0.00038
  21 6   H  1S          0.02020   0.06677  -0.00438   0.02415   0.06029
  22 7   H  1S          0.07944  -0.04980  -0.00616  -0.03978  -0.05187
  23 8   H  1S         -0.65514  -0.32923  -0.01907  -0.03976   0.03880
  24 9   H  1S         -0.03858  -0.04543  -0.00467   0.02205  -0.04806
                          11        12        13        14        15
  11        1PY         1.36771
  12        1PZ         0.00128   1.71074
  13 4   C  1S          0.23295  -0.00721   1.25456
  14        1PX        -0.47856  -0.00308   0.10817   0.87765
  15        1PY        -0.18570   0.01052  -0.00417  -0.09657   0.90278
  16        1PZ         0.00354   0.42932  -0.00165   0.00001   0.01259
  17 5   C  1S         -0.07825   0.01164   0.29872  -0.10112   0.44162
  18        1PX         0.01700   0.00049   0.15755   0.08517   0.24836
  19        1PY         0.05857   0.00385  -0.48885   0.15105  -0.56620
  20        1PZ         0.00049  -0.22985  -0.00435  -0.01700   0.02589
  21 6   H  1S          0.07904  -0.00711  -0.05413   0.03881  -0.04472
  22 7   H  1S         -0.06073   0.00144   0.62095   0.61402  -0.40026
  23 8   H  1S         -0.06361  -0.00161   0.05010  -0.08865  -0.04601
  24 9   H  1S          0.08183   0.00290   0.05874  -0.01397   0.06408
                          16        17        18        19        20
  16        1PZ         1.07569
  17 5   C  1S         -0.03299   1.21226
  18        1PX        -0.01175   0.04463   0.95449
  19        1PY        -0.00320   0.06938   0.04554   0.95963
  20        1PZ         0.80307  -0.01511   0.00172  -0.00593   1.06691
  21 6   H  1S          0.01476   0.56231   0.51519   0.59991   0.03776
  22 7   H  1S          0.03189  -0.05985  -0.03048   0.09559   0.00554
  23 8   H  1S          0.00553   0.04393  -0.05671   0.00706   0.00516
  24 9   H  1S         -0.00037  -0.04534   0.05612   0.00118  -0.00346
                          21        22        23        24
  21 6   H  1S          0.84350
  22 7   H  1S          0.01034   0.80742
  23 8   H  1S         -0.01542  -0.02239   0.81748
  24 9   H  1S         -0.01286  -0.01651   0.00912   0.84646
    Full Mulliken population analysis:
                           1         2         3         4         5
   1 1   C  1S          1.20297
   2        1PX         0.00000   0.94234
   3        1PY         0.00000   0.00000   0.96904
   4        1PZ         0.00000   0.00000   0.00000   1.08369
   5 2   C  1S          0.00000   0.00000   0.00000   0.00000   1.23874
   6        1PX         0.00000   0.00000   0.00000   0.00000   0.00000
   7        1PY         0.00000   0.00000   0.00000   0.00000   0.00000
   8        1PZ         0.00000   0.00000   0.00000   0.00000   0.00000
   9 3   O  1S          0.00000   0.00000   0.00000   0.00000   0.00000
  10        1PX         0.00000   0.00000   0.00000   0.00000   0.00000
  11        1PY         0.00000   0.00000   0.00000   0.00000   0.00000
  12        1PZ         0.00000   0.00000   0.00000   0.00000   0.00000
  13 4   C  1S          0.00000   0.00000   0.00000   0.00000   0.00000
  14        1PX         0.00000   0.00000   0.00000   0.00000   0.00000
  15        1PY         0.00000   0.00000   0.00000   0.00000   0.00000
  16        1PZ         0.00000   0.00000   0.00000   0.00000   0.00000
  17 5   C  1S          0.00000   0.00000   0.00000   0.00000   0.00000
  18        1PX         0.00000   0.00000   0.00000   0.00000   0.00000
  19        1PY         0.00000   0.00000   0.00000   0.00000   0.00000
  20        1PZ         0.00000   0.00000   0.00000   0.00000   0.00000
  21 6   H  1S          0.00000   0.00000   0.00000   0.00000   0.00000
  22 7   H  1S          0.00000   0.00000   0.00000   0.00000   0.00000
  23 8   H  1S          0.00000   0.00000   0.00000   0.00000   0.00000
  24 9   H  1S          0.00000   0.00000   0.00000   0.00000   0.00000
                           6         7         8         9        10
   6        1PX         0.90373
   7        1PY         0.00000   0.88631
   8        1PZ         0.00000   0.00000   1.05977
   9 3   O  1S          0.00000   0.00000   0.00000   1.85899
  10        1PX         0.00000   0.00000   0.00000   0.00000   1.15713
  11        1PY         0.00000   0.00000   0.00000   0.00000   0.00000
  12        1PZ         0.00000   0.00000   0.00000   0.00000   0.00000
  13 4   C  1S          0.00000   0.00000   0.00000   0.00000   0.00000
  14        1PX         0.00000   0.00000   0.00000   0.00000   0.00000
  15        1PY         0.00000   0.00000   0.00000   0.00000   0.00000
  16        1PZ         0.00000   0.00000   0.00000   0.00000   0.00000
  17 5   C  1S          0.00000   0.00000   0.00000   0.00000   0.00000
  18        1PX         0.00000   0.00000   0.00000   0.00000   0.00000
  19        1PY         0.00000   0.00000   0.00000   0.00000   0.00000
  20        1PZ         0.00000   0.00000   0.00000   0.00000   0.00000
  21 6   H  1S          0.00000   0.00000   0.00000   0.00000   0.00000
  22 7   H  1S          0.00000   0.00000   0.00000   0.00000   0.00000
  23 8   H  1S          0.00000   0.00000   0.00000   0.00000   0.00000
  24 9   H  1S          0.00000   0.00000   0.00000   0.00000   0.00000
                          11        12        13        14        15
  11        1PY         1.36771
  12        1PZ         0.00000   1.71074
  13 4   C  1S          0.00000   0.00000   1.25456
  14        1PX         0.00000   0.00000   0.00000   0.87765
  15        1PY         0.00000   0.00000   0.00000   0.00000   0.90278
  16        1PZ         0.00000   0.00000   0.00000   0.00000   0.00000
  17 5   C  1S          0.00000   0.00000   0.00000   0.00000   0.00000
  18        1PX         0.00000   0.00000   0.00000   0.00000   0.00000
  19        1PY         0.00000   0.00000   0.00000   0.00000   0.00000
  20        1PZ         0.00000   0.00000   0.00000   0.00000   0.00000
  21 6   H  1S          0.00000   0.00000   0.00000   0.00000   0.00000
  22 7   H  1S          0.00000   0.00000   0.00000   0.00000   0.00000
  23 8   H  1S          0.00000   0.00000   0.00000   0.00000   0.00000
  24 9   H  1S          0.00000   0.00000   0.00000   0.00000   0.00000
                          16        17        18        19        20
  16        1PZ         1.07569
  17 5   C  1S          0.00000   1.21226
  18        1PX         0.00000   0.00000   0.95449
  19        1PY         0.00000   0.00000   0.00000   0.95963
  20        1PZ         0.00000   0.00000   0.00000   0.00000   1.06691
  21 6   H  1S          0.00000   0.00000   0.00000   0.00000   0.00000
  22 7   H  1S          0.00000   0.00000   0.00000   0.00000   0.00000
  23 8   H  1S          0.00000   0.00000   0.00000   0.00000   0.00000
  24 9   H  1S          0.00000   0.00000   0.00000   0.00000   0.00000
                          21        22        23        24
  21 6   H  1S          0.84350
  22 7   H  1S          0.00000   0.80742
  23 8   H  1S          0.00000   0.00000   0.81748
  24 9   H  1S          0.00000   0.00000   0.00000   0.84646
     Gross orbital populations:
                           1
   1 1   C  1S          1.20297
   2        1PX         0.94234
   3        1PY         0.96904
   4        1PZ         1.08369
   5 2   C  1S          1.23874
   6        1PX         0.90373
   7        1PY         0.88631
   8        1PZ         1.05977
   9 3   O  1S          1.85899
  10        1PX         1.15713
  11        1PY         1.36771
  12        1PZ         1.71074
  13 4   C  1S          1.25456
  14        1PX         0.87765
  15        1PY         0.90278
  16        1PZ         1.07569
  17 5   C  1S          1.21226
  18        1PX         0.95449
  19        1PY         0.95963
  20        1PZ         1.06691
  21 6   H  1S          0.84350
  22 7   H  1S          0.80742
  23 8   H  1S          0.81748
  24 9   H  1S          0.84646
          Condensed to atoms (all electrons):
               1          2          3          4          5          6
     1  C    4.198040   0.000000   0.000000   0.000000   0.000000   0.000000
     2  C    0.000000   4.088552   0.000000   0.000000   0.000000   0.000000
     3  O    0.000000   0.000000   6.094568   0.000000   0.000000   0.000000
     4  C    0.000000   0.000000   0.000000   4.110680   0.000000   0.000000
     5  C    0.000000   0.000000   0.000000   0.000000   4.193291   0.000000
     6  H    0.000000   0.000000   0.000000   0.000000   0.000000   0.843504
     7  H    0.000000   0.000000   0.000000   0.000000   0.000000   0.000000
     8  H    0.000000   0.000000   0.000000   0.000000   0.000000   0.000000
     9  H    0.000000   0.000000   0.000000   0.000000   0.000000   0.000000
               7          8          9
     1  C    0.000000   0.000000   0.000000
     2  C    0.000000   0.000000   0.000000
     3  O    0.000000   0.000000   0.000000
     4  C    0.000000   0.000000   0.000000
     5  C    0.000000   0.000000   0.000000
     6  H    0.000000   0.000000   0.000000
     7  H    0.807425   0.000000   0.000000
     8  H    0.000000   0.817476   0.000000
     9  H    0.000000   0.000000   0.846464
 Mulliken charges:
               1
     1  C   -0.198040
     2  C   -0.088552
     3  O   -0.094568
     4  C   -0.110680
     5  C   -0.193291
     6  H    0.156496
     7  H    0.192575
     8  H    0.182524
     9  H    0.153536
 Sum of Mulliken charges =   0.00000
 Mulliken charges with hydrogens summed into heavy atoms:
               1
     1  C   -0.044504
     2  C    0.093972
     3  O   -0.094568
     4  C    0.081896
     5  C   -0.036796
 Charge=              0.0000 electrons
 Dipole moment (field-independent basis, Debye):
    X=              0.1325    Y=              0.3938    Z=              0.0947  Tot=              0.4262
 N-N= 1.037109704132D+02 E-N=-1.714578370367D+02  KE=-1.658268997209D+01
 Orbital energies and kinetic energies (alpha):
                                 1                 2
   1         O                -1.565430         -1.319007
   2         O                -1.242220         -1.051042
   3         O                -1.102609         -0.964443
   4         O                -0.830930         -0.734411
   5         O                -0.813919         -0.699036
   6         O                -0.687339         -0.604978
   7         O                -0.599296         -0.486944
   8         O                -0.570013         -0.503613
   9         O                -0.512205         -0.429348
  10         O                -0.502803         -0.414571
  11         O                -0.497388         -0.426073
  12         O                -0.402885         -0.347505
  13         O                -0.341922         -0.310374
  14         V                 0.024838         -0.196893
  15         V                 0.067199         -0.188594
  16         V                 0.095505         -0.180880
  17         V                 0.144768         -0.243791
  18         V                 0.145822         -0.207601
  19         V                 0.155783         -0.156513
  20         V                 0.177964         -0.190194
  21         V                 0.186920         -0.174965
  22         V                 0.193443         -0.132197
  23         V                 0.207731         -0.118331
  24         V                 0.221387         -0.048655
 Total kinetic energy from orbitals=-1.658268997209D+01
 Leave Link  601 at Tue Dec 15 16:20:34 2015, MaxMem=    33554432 cpu:         0.0
 (Enter /home/Applications/g09/g09/l701.exe)
 Compute integral first derivatives.
 ... and contract with generalized density number  6.
 Leave Link  701 at Tue Dec 15 16:20:34 2015, MaxMem=    33554432 cpu:         0.0
 (Enter /home/Applications/g09/g09/l702.exe)
 L702 exits ... SP integral derivatives will be done elsewhere.
 Leave Link  702 at Tue Dec 15 16:20:34 2015, MaxMem=    33554432 cpu:         0.0
 (Enter /home/Applications/g09/g09/l703.exe)
 Compute integral first derivatives, UseDBF=F ICtDFT=           0.
 Integral derivatives from FoFJK, PRISM(SPDF).
 Calling FoFJK, ICntrl=  10005127 FMM=F ISym2X=0 I1Cent= 0 IOpClX= 0 NMat=1 NMatS=1 NMatT=0.
 FoFJK:  IHMeth= 8 ICntrl=10005127 DoSepK=F KAlg= 0 I1Cent=   0 FoldK=F
 IRaf=         0 NMat=   1 IRICut=       1 DoRegI=T DoRafI=F ISym2E= 0.
 FoFCou: FMM=F IPFlag=           0 FMFlag=      100000 FMFlg1=         800
         NFxFlg=           0 DoJE=F BraDBF=F KetDBF=F FulRan=T
         wScrn=  0.000000 ICntrl=10005127 IOpCl=  0 I1Cent=           0 NGrid=           0
         NMat0=    1 NMatS0=      1 NMatT0=    0 NMatD0=    1 NMtDS0=    0 NMtDT0=    0
 Symmetry not used in FoFCou.
 Leave Link  703 at Tue Dec 15 16:20:34 2015, MaxMem=    33554432 cpu:         0.0
 (Enter /home/Applications/g09/g09/l716.exe)
 Dipole        = 3.33528053D-02 2.65626992D-01 5.48699054D-02
 ***** Axes restored to original set *****
 -------------------------------------------------------------------
 Center     Atomic                   Forces (Hartrees/Bohr)
 Number     Number              X              Y              Z
 -------------------------------------------------------------------
      1        6           0.083219115   -0.029321226    0.003971911
      2        6          -0.018752436   -0.002066825   -0.000493790
      3        8          -0.097281784    0.015633954    0.000776704
      4        6          -0.039941767    0.018404944    0.000230697
      5        6           0.102329510    0.063676343   -0.008639924
      6        1          -0.008464615   -0.016492257    0.006072084
      7        1          -0.009762621    0.013930419    0.000033184
      8        1          -0.027099574   -0.053709047   -0.000186409
      9        1           0.015754173   -0.010056304   -0.001764457
 -------------------------------------------------------------------
 Cartesian Forces:  Max     0.102329510 RMS     0.038026338
 Z-matrix is all fixed cartesians, so copy forces.
 Force constants in Cartesian coordinates: 
                1             2             3             4             5 
      1  0.915993D+00
      2 -0.291525D-01  0.909572D+00
      3  0.938407D-03  0.203079D-01  0.231755D+00
      4 -0.479753D+00 -0.110827D+00 -0.195403D-02  0.933662D+00
      5 -0.868991D-01 -0.219919D+00 -0.183244D-02  0.584216D-01  0.960151D+00
      6  0.224899D-02 -0.620254D-03 -0.107945D+00 -0.942817D-02 -0.247812D-02
      7 -0.953993D-02  0.286952D-01  0.644801D-03 -0.286621D+00  0.168385D+00
      8 -0.702090D-02  0.211225D-01  0.249265D-03  0.210047D+00 -0.374682D+00
      9  0.166346D-03  0.386273D-05  0.746288D-02  0.582580D-02 -0.594246D-02
     10  0.119649D-01  0.914947D-04  0.921899D-04  0.243379D-01  0.178931D-01
     11  0.355145D-01  0.267676D-03  0.393586D-03 -0.171508D-01 -0.126239D-01
     12  0.258696D-02  0.333097D-05 -0.196446D-02 -0.580783D-03 -0.208516D-03
     13 -0.183322D+00  0.137429D-01  0.778111D-03  0.117917D-01 -0.354702D-01
     14 -0.104542D-01 -0.518057D+00 -0.229959D-01  0.893428D-04 -0.268933D-03
     15  0.105051D-02 -0.198248D-01 -0.100566D+00  0.110105D-03 -0.265504D-03
     16  0.185473D-01  0.140631D-03  0.163386D-03  0.109034D-04 -0.368180D-04
     17 -0.221693D-01 -0.288677D-03  0.255356D-02 -0.347495D-05  0.117340D-04
     18 -0.255079D-02 -0.106266D-02  0.237615D-01  0.811977D-04 -0.274183D-03
     19 -0.129248D-05 -0.187192D-05  0.424385D-04  0.000000D+00  0.502120D-05
     20 -0.143592D-04 -0.207966D-04  0.471484D-03  0.000000D+00 -0.198074D-05
     21 -0.229113D-03 -0.331828D-03  0.752292D-02 -0.779646D-05 -0.779125D-04
     22  0.898774D-02 -0.270514D-01  0.104700D-02 -0.197681D+00 -0.139598D+00
     23 -0.474085D-02  0.142644D-01  0.424973D-03 -0.132796D+00 -0.376082D+00
     24 -0.110642D-03  0.186534D-03  0.307432D-01  0.618645D-02  0.105037D-01
     25 -0.282877D+00  0.124363D+00 -0.175231D-02 -0.574812D-02  0.172992D-01
     26  0.124937D+00 -0.206941D+00  0.427566D-03 -0.778042D-02  0.234143D-01
     27 -0.410067D-02  0.133789D-02 -0.907699D-01 -0.232783D-03  0.575393D-03
                6             7             8             9            10 
      6  0.205778D+00
      7  0.382289D-02  0.518551D+00
      8 -0.485189D-02 -0.241325D-01  0.697837D+00
      9 -0.442922D-01  0.110061D-02  0.100539D-01  0.518370D-01
     10  0.796418D-03 -0.257601D+00 -0.187240D+00 -0.710681D-02  0.885525D+00
     11 -0.291805D-03 -0.143903D+00 -0.347225D+00 -0.547407D-02 -0.621850D-01
     12 -0.384005D-02 -0.501988D-02 -0.458555D-02 -0.436291D-01  0.199854D-01
     13 -0.316330D-02 -0.963157D-02  0.680604D-02 -0.674314D-03 -0.481454D+00
     14 -0.745699D-04 -0.285210D-01  0.201393D-01 -0.113261D-02  0.115072D+00
     15 -0.140139D-02 -0.660857D-03  0.291649D-03  0.714106D-02 -0.355990D-02
     16  0.841305D-03 -0.167015D-05  0.000000D+00  0.926849D-04 -0.608001D-02
     17 -0.268126D-03 -0.950704D-05 -0.386268D-05  0.527592D-03  0.713148D-02
     18  0.626518D-02 -0.993011D-04 -0.403457D-04  0.551070D-02 -0.339425D-03
     19 -0.268373D-03  0.218199D-01 -0.154232D-01  0.170558D-02 -0.176700D+00
     20  0.105867D-03  0.116375D-01 -0.823183D-02  0.120617D-02  0.109229D+00
     21  0.416426D-02  0.681712D-03 -0.581392D-03  0.502215D-02 -0.966190D-02
     22  0.550255D-02  0.230250D-01  0.169642D-01 -0.108912D-02  0.000000D+00
     23  0.869717D-02 -0.121518D-01 -0.895573D-02  0.724670D-03  0.000000D+00
     24 -0.849974D-01 -0.490800D-03 -0.443358D-03  0.473998D-02 -0.950683D-05
     25 -0.352303D-03  0.000000D+00  0.000000D+00 -0.207767D-04  0.784370D-05
     26 -0.218271D-03  0.000000D+00  0.000000D+00  0.329585D-04  0.868083D-05
     27  0.262695D-01  0.208331D-04 -0.922559D-04  0.620752D-02 -0.196468D-03
               11            12            13            14            15 
     11  0.878053D+00
     12 -0.115521D-01  0.195354D+00
     13  0.904607D-01 -0.107897D-01  0.860333D+00
     14 -0.218363D+00  0.348759D-02 -0.246880D-03  0.895772D+00
     15  0.183877D-02 -0.101218D+00 -0.832421D-02  0.602520D-02  0.221187D+00
     16 -0.178660D-01  0.260919D-02 -0.224610D+00 -0.101899D+00  0.134304D-01
     17  0.210770D-01 -0.425191D-03 -0.104543D+00 -0.193226D+00  0.107977D-01
     18  0.510994D-04  0.229466D-01  0.182707D-01  0.141659D-01 -0.845657D-01
     19  0.115122D+00 -0.873106D-02  0.875341D-02  0.258081D-01 -0.188021D-02
     20 -0.321198D+00  0.135082D-01  0.466406D-02  0.138282D-01  0.671850D-03
     21  0.154141D-01 -0.791774D-01  0.197891D-03  0.187318D-02  0.280042D-01
     22 -0.369370D-05  0.197421D-03 -0.146283D-05  0.493957D-05 -0.112871D-03
     23 -0.107178D-05  0.572844D-04  0.392871D-05 -0.132662D-04  0.303138D-03
     24 -0.950047D-04  0.507781D-02  0.993789D-04 -0.335576D-03  0.766803D-02
     25  0.113601D-04 -0.257547D-03  0.181409D-01  0.146885D-03 -0.530004D-04
     26  0.125726D-04 -0.285034D-03  0.245830D-01  0.188791D-03  0.161960D-03
     27 -0.284548D-03  0.645102D-02  0.360548D-02 -0.101315D-02  0.237514D-01
               16            17            18            19            20 
     16  0.212083D+00
     17  0.119616D+00  0.172508D+00
     18 -0.156866D-01 -0.126311D-01  0.456805D-01
     19  0.000000D+00 -0.543165D-05 -0.567337D-04  0.146128D+00
     20 -0.106011D-04 -0.603447D-04 -0.630301D-03 -0.125505D+00  0.315684D+00
     21 -0.169149D-03 -0.962850D-03 -0.100570D-01  0.918836D-02 -0.153333D-01
     22  0.000000D+00  0.000000D+00  0.000000D+00  0.000000D+00  0.000000D+00
     23  0.000000D+00  0.000000D+00  0.000000D+00  0.000000D+00  0.000000D+00
     24  0.000000D+00  0.000000D+00  0.000000D+00  0.000000D+00  0.000000D+00
     25  0.511538D-04 -0.163028D-04  0.380941D-03  0.000000D+00  0.000000D+00
     26  0.566132D-04 -0.180427D-04  0.421597D-03  0.000000D+00  0.000000D+00
     27 -0.128129D-02  0.408351D-03 -0.954177D-02  0.000000D+00  0.000000D+00
               21            22            23            24            25 
     21  0.445209D-01
     22  0.000000D+00  0.165671D+00
     23  0.000000D+00  0.149683D+00  0.370790D+00
     24  0.000000D+00 -0.571311D-02 -0.975569D-02  0.481905D-01
     25  0.000000D+00  0.000000D+00  0.151133D-05  0.382300D-04  0.270426D+00
     26  0.000000D+00  0.000000D+00 -0.239746D-05 -0.606451D-04 -0.141806D+00
     27  0.000000D+00  0.168130D-03 -0.451546D-03 -0.114221D-01  0.201677D-02
               26            27 
     26  0.183346D+00
     27 -0.480131D-03  0.490543D-01
 Leave Link  716 at Tue Dec 15 16:20:35 2015, MaxMem=    33554432 cpu:         0.0
 (Enter /home/Applications/g09/g09/l103.exe)

 GradGradGradGradGradGradGradGradGradGradGradGradGradGradGradGradGradGrad
 Berny optimization.
 Search for a local minimum.
 Step number   1 out of a maximum of    2
 All quantities printed in internal units (Hartrees-Bohrs-Radians)
 Second derivative matrix not updated -- first step.
 ITU=  0
     Eigenvalues ---    0.02177   0.03213   0.06986   0.07739   0.08100
     Eigenvalues ---    0.08521   0.13354   0.15858   0.17577   0.24349
     Eigenvalues ---    0.25957   0.31664   0.42569   0.46550   0.64865
     Eigenvalues ---    0.85125   1.11352   1.39076   1.45619   1.58148
     Eigenvalues ---    1.63772
 Quadratic step=4.672D-01 exceeds max=3.000D-01 adjusted using Lamda=-1.582D-01.
 Angle between NR and scaled steps=  12.17 degrees.
 Angle between quadratic step and forces=  26.74 degrees.
 Linear search not attempted -- first point.
 TrRot= -0.007685  0.006835 -0.000250  0.971947  0.001176 -0.972109
 Variable       Old X    -DE/DX   Delta X   Delta X   Delta X     New X
                                 (Linear)    (Quad)   (Total)
    X1        1.78813   0.08322   0.00000   0.11254   0.10463   1.89276
    Y1       -1.30316  -0.02932   0.00000  -0.02156  -0.01506  -1.31822
    Z1       -0.03350   0.00397   0.00000   0.00995   0.00973  -0.02377
    X2       -0.66561  -0.01875   0.00000  -0.03416  -0.04221  -0.70782
    Y2       -2.11856  -0.00207   0.00000  -0.00535   0.00157  -2.11700
    Z2       -0.03738  -0.00049   0.00000   0.00250   0.00478  -0.03261
    X3       -2.19158  -0.09728   0.00000  -0.15792  -0.16561  -2.35718
    Y3       -0.04511   0.01563   0.00000   0.01308   0.02030  -0.02481
    Z3       -0.00145   0.00078   0.00000   0.00277   0.00411   0.00266
    X4       -0.67809  -0.03994   0.00000  -0.03534  -0.04266  -0.72075
    Y4        2.10083   0.01840   0.00000   0.01017   0.01716   2.11799
    Z4        0.04154   0.00023   0.00000  -0.00268  -0.00450   0.03703
    X5        1.76759   0.10233   0.00000   0.11663   0.10920   1.87679
    Y5        1.27410   0.06368   0.00000   0.05861   0.06520   1.33929
    Z5        0.07955  -0.00864   0.00000  -0.01854  -0.02134   0.05822
    X6        3.37826  -0.00846   0.00000   0.05959   0.05229   3.43055
    Y6        2.63978  -0.01649   0.00000   0.00652   0.01273   2.65251
    Z6       -0.07829   0.00607   0.00000   0.01604   0.01094  -0.06735
    X7       -1.61817  -0.00976   0.00000  -0.03625  -0.04334  -1.66151
    Y7        3.86963   0.01393   0.00000   0.03498   0.04203   3.91166
    Z7       -0.06402   0.00003   0.00000   0.00579   0.00284  -0.06117
    X8       -1.56041  -0.02710   0.00000  -0.05167  -0.05998  -1.62039
    Y8       -3.81618  -0.05371   0.00000  -0.10257  -0.09547  -3.91165
    Z8        0.01656  -0.00019   0.00000  -0.00875  -0.00413   0.01243
    X9        3.41073   0.01575   0.00000   0.09579   0.08768   3.49841
    Y9       -2.50229  -0.01006   0.00000  -0.05470  -0.04846  -2.55075
    Z9       -0.02170  -0.00176   0.00000  -0.00235  -0.00244  -0.02414
         Item               Value     Threshold  Converged?
 Maximum Force            0.102330     0.000450     NO 
 RMS     Force            0.038026     0.000300     NO 
 Maximum Displacement     0.165606     0.001800     NO 
 RMS     Displacement     0.057457     0.001200     NO 
 Predicted change in Energy=-3.362446D-02
 GradGradGradGradGradGradGradGradGradGradGradGradGradGradGradGradGradGrad

 Leave Link  103 at Tue Dec 15 16:20:35 2015, MaxMem=    33554432 cpu:         0.0
 (Enter /home/Applications/g09/g09/l9999.exe)
 1\1\GINC-DUSTIN-DESKTOP\Force\RAM1-FC\STO-3G\C4H4O1\DUSTIN\15-Dec-2015
 \0\\#P AM1(Input,print) CIS(Singlets,NStates=15) pop(full) force\\AM1-
 Reparam Input\\0,1\C,0.946236,-0.689605,-0.017728\C,-0.352226,-1.12109
 5,-0.019783\O,-1.159732,-0.02387,-0.000766\C,-0.358829,1.111714,0.0219
 8\C,0.935368,0.674223,0.042098\H,1.787698,1.396909,-0.041427\H,-0.8562
 97,2.047721,-0.033876\H,-0.825732,-2.019437,0.008761\H,1.804881,-1.324
 153,-0.011485\\Version=ES64L-G09RevD.01\State=1-A\HF=0.0217481\RMSD=9.
 482e-09\RMSF=3.803e-02\Dipole=0.2670487,0.0210446,-0.0540641\PG=C01 [X
 (C4H4O1)]\\@


 IT IS A PROFOUNDLY ERRONEOUS TRUISM ... THAT WE SHOULD CULTIVATE
 THE HABIT OF THINKING OF WHAT WE ARE DOING.
 THE PRECISE OPPOSITE IS THE CASE.
 CIVILIZATION ADVANCES BY EXTENDING THE NUMBER OF IMPORTANT OPERATIONS
 WHICH WE CAN PERFORM WITHOUT THINKING ABOUT THEM.

                                    -- ALFRED NORTH WHITEHEAD
 Job cpu time:       0 days  0 hours  0 minutes  0.3 seconds.
 File lengths (MBytes):  RWF=      7 Int=      0 D2E=      0 Chk=      2 Scr=      1
 Normal termination of Gaussian 09 at Tue Dec 15 16:20:35 2015.
