 Entering Gaussian System, Link 0=g09
 Input=FuranDFT_83.com
 Output=FuranDFT_83.log
 Initial command:
 /home/Applications/g09/g09/l1.exe "/home/Applications/g09/scratch/Gau-6303.inp" -scrdir="/home/Applications/g09/scratch/"
 Entering Link 1 = /home/Applications/g09/g09/l1.exe PID=      6305.
  
 Copyright (c) 1988,1990,1992,1993,1995,1998,2003,2009,2013,
            Gaussian, Inc.  All Rights Reserved.
  
 This is part of the Gaussian(R) 09 program.  It is based on
 the Gaussian(R) 03 system (copyright 2003, Gaussian, Inc.),
 the Gaussian(R) 98 system (copyright 1998, Gaussian, Inc.),
 the Gaussian(R) 94 system (copyright 1995, Gaussian, Inc.),
 the Gaussian 92(TM) system (copyright 1992, Gaussian, Inc.),
 the Gaussian 90(TM) system (copyright 1990, Gaussian, Inc.),
 the Gaussian 88(TM) system (copyright 1988, Gaussian, Inc.),
 the Gaussian 86(TM) system (copyright 1986, Carnegie Mellon
 University), and the Gaussian 82(TM) system (copyright 1983,
 Carnegie Mellon University). Gaussian is a federally registered
 trademark of Gaussian, Inc.
  
 This software contains proprietary and confidential information,
 including trade secrets, belonging to Gaussian, Inc.
  
 This software is provided under written license and may be
 used, copied, transmitted, or stored only in accord with that
 written license.
  
 The following legend is applicable only to US Government
 contracts under FAR:
  
                    RESTRICTED RIGHTS LEGEND
  
 Use, reproduction and disclosure by the US Government is
 subject to restrictions as set forth in subparagraphs (a)
 and (c) of the Commercial Computer Software - Restricted
 Rights clause in FAR 52.227-19.
  
 Gaussian, Inc.
 340 Quinnipiac St., Bldg. 40, Wallingford CT 06492
  
  
 ---------------------------------------------------------------
 Warning -- This program may not be used in any manner that
 competes with the business of Gaussian, Inc. or will provide
 assistance to any competitor of Gaussian, Inc.  The licensee
 of this program is prohibited from giving any competitor of
 Gaussian, Inc. access to this program.  By using this program,
 the user acknowledges that Gaussian, Inc. is engaged in the
 business of creating and licensing software in the field of
 computational chemistry and represents and warrants to the
 licensee that it is not a competitor of Gaussian, Inc. and that
 it will not use this program in any manner prohibited above.
 ---------------------------------------------------------------
  

 Cite this work as:
 Gaussian 09, Revision D.01,
 M. J. Frisch, G. W. Trucks, H. B. Schlegel, G. E. Scuseria, 
 M. A. Robb, J. R. Cheeseman, G. Scalmani, V. Barone, B. Mennucci, 
 G. A. Petersson, H. Nakatsuji, M. Caricato, X. Li, H. P. Hratchian, 
 A. F. Izmaylov, J. Bloino, G. Zheng, J. L. Sonnenberg, M. Hada, 
 M. Ehara, K. Toyota, R. Fukuda, J. Hasegawa, M. Ishida, T. Nakajima, 
 Y. Honda, O. Kitao, H. Nakai, T. Vreven, J. A. Montgomery, Jr., 
 J. E. Peralta, F. Ogliaro, M. Bearpark, J. J. Heyd, E. Brothers, 
 K. N. Kudin, V. N. Staroverov, T. Keith, R. Kobayashi, J. Normand, 
 K. Raghavachari, A. Rendell, J. C. Burant, S. S. Iyengar, J. Tomasi, 
 M. Cossi, N. Rega, J. M. Millam, M. Klene, J. E. Knox, J. B. Cross, 
 V. Bakken, C. Adamo, J. Jaramillo, R. Gomperts, R. E. Stratmann, 
 O. Yazyev, A. J. Austin, R. Cammi, C. Pomelli, J. W. Ochterski, 
 R. L. Martin, K. Morokuma, V. G. Zakrzewski, G. A. Voth, 
 P. Salvador, J. J. Dannenberg, S. Dapprich, A. D. Daniels, 
 O. Farkas, J. B. Foresman, J. V. Ortiz, J. Cioslowski, 
 and D. J. Fox, Gaussian, Inc., Wallingford CT, 2013.
 
 ******************************************
 Gaussian 09:  ES64L-G09RevD.01 24-Apr-2013
                15-Dec-2015 
 ******************************************
 -------------------------------------------------------
 #P B3LYP/3-21G CIS(Singlets,NStates=15) pop(full) force
 -------------------------------------------------------
 1/10=7,30=1,38=1/1,3;
 2/12=2,17=6,18=5,40=1/2;
 3/5=5,11=9,16=1,25=1,30=1,71=1,74=-5/1,2,8,3;
 4//1;
 5/5=2,38=5/2;
 8/6=1,10=1,108=15/1;
 9/15=2,41=15,42=1,48=1/14;
 10/5=4/2;
 6/7=3,18=1/1;
 7/12=6,13=5,29=1/1,2,3,16;
 1/10=7,30=1/3;
 99//99;
 Leave Link    1 at Tue Dec 15 16:27:22 2015, MaxMem=           0 cpu:         0.0
 (Enter /home/Applications/g09/g09/l101.exe)
 --------
 FuranDFT
 --------
 Symbolic Z-matrix:
 Charge =  0 Multiplicity = 1
 6                     0.98662  -0.7557    0.03334 
 6                    -0.38533  -1.08652   0.00418 
 8                    -1.20151   0.03892  -0.003 
 6                    -0.30339   1.08977  -0.0387 
 6                     0.92447   0.75093   0.00226 
 1                     1.76717   1.33867  -0.01306 
 1                    -0.8839    2.06123   0.03973 
 1                    -0.86106  -2.08691  -0.02037 
 1                     1.84476  -1.33507   0.03369 
 
 NAtoms=      9 NQM=        9 NQMF=       0 NMMI=      0 NMMIF=      0
                NMic=       0 NMicF=      0.
                    Isotopes and Nuclear Properties:
 (Nuclear quadrupole moments (NQMom) in fm**2, nuclear magnetic moments (NMagM)
  in nuclear magnetons)

  Atom         1           2           3           4           5           6           7           8           9
 IAtWgt=          12          12          16          12          12           1           1           1           1
 AtmWgt=  12.0000000  12.0000000  15.9949146  12.0000000  12.0000000   1.0078250   1.0078250   1.0078250   1.0078250
 NucSpn=           0           0           0           0           0           1           1           1           1
 AtZEff=   0.0000000   0.0000000   0.0000000   0.0000000   0.0000000   0.0000000   0.0000000   0.0000000   0.0000000
 NQMom=    0.0000000   0.0000000   0.0000000   0.0000000   0.0000000   0.0000000   0.0000000   0.0000000   0.0000000
 NMagM=    0.0000000   0.0000000   0.0000000   0.0000000   0.0000000   2.7928460   2.7928460   2.7928460   2.7928460
 AtZNuc=   6.0000000   6.0000000   8.0000000   6.0000000   6.0000000   1.0000000   1.0000000   1.0000000   1.0000000
 Leave Link  101 at Tue Dec 15 16:27:22 2015, MaxMem=    33554432 cpu:         0.0
 (Enter /home/Applications/g09/g09/l103.exe)

 GradGradGradGradGradGradGradGradGradGradGradGradGradGradGradGradGradGrad
 Berny optimization.
 Initialization pass.
 Trust Radius=3.00D-01 FncErr=1.00D-07 GrdErr=1.00D-07
 Number of steps in this run=      2 maximum allowed number of steps=      2.
 GradGradGradGradGradGradGradGradGradGradGradGradGradGradGradGradGradGrad

 Leave Link  103 at Tue Dec 15 16:27:22 2015, MaxMem=    33554432 cpu:         0.0
 (Enter /home/Applications/g09/g09/l202.exe)
                          Input orientation:                          
 ---------------------------------------------------------------------
 Center     Atomic      Atomic             Coordinates (Angstroms)
 Number     Number       Type             X           Y           Z
 ---------------------------------------------------------------------
      1          6           0        0.986622   -0.755700    0.033335
      2          6           0       -0.385329   -1.086516    0.004177
      3          8           0       -1.201510    0.038924   -0.002999
      4          6           0       -0.303388    1.089770   -0.038696
      5          6           0        0.924467    0.750927    0.002261
      6          1           0        1.767174    1.338667   -0.013055
      7          1           0       -0.883899    2.061226    0.039726
      8          1           0       -0.861062   -2.086912   -0.020366
      9          1           0        1.844764   -1.335068    0.033694
 ---------------------------------------------------------------------
                    Distance matrix (angstroms):
                    1          2          3          4          5
     1  C    0.000000
     2  C    1.411573   0.000000
     3  O    2.328233   1.390258   0.000000
     4  C    2.252792   2.178250   1.382814   0.000000
     5  C    1.508229   2.256494   2.242042   1.274410   0.000000
     6  H    2.235573   3.242696   3.240759   2.085626   1.027535
     7  H    3.381414   3.187180   2.047537   1.134403   2.233489
     8  H    2.277926   1.108024   2.152994   3.225313   3.352903
     9  H    1.035411   2.244095   3.342003   3.240314   2.280199
                    6          7          8          9
     6  H    0.000000
     7  H    2.748284   0.000000
     8  H    4.317669   4.148636   0.000000
     9  H    2.675269   4.356656   2.808859   0.000000
 Stoichiometry    C4H4O
 Framework group  C1[X(C4H4O)]
 Deg. of freedom    21
 Full point group                 C1      NOp   1
 Largest Abelian subgroup         C1      NOp   1
 Largest concise Abelian subgroup C1      NOp   1
                         Standard orientation:                         
 ---------------------------------------------------------------------
 Center     Atomic      Atomic             Coordinates (Angstroms)
 Number     Number       Type             X           Y           Z
 ---------------------------------------------------------------------
      1          6           0        0.959612    0.811778    0.014553
      2          6           0        0.988970   -0.599361   -0.004518
      3          8           0       -0.284980   -1.155866    0.008552
      4          6           0       -1.119805   -0.053989   -0.024754
      5          6           0       -0.525720    1.073199    0.000333
      6          1           0       -0.919785    2.022008   -0.017033
      7          1           0       -2.191863   -0.412602    0.069901
      8          1           0        1.864087   -1.278295   -0.035103
      9          1           0        1.709057    1.526061    0.000133
 ---------------------------------------------------------------------
 Rotational constants (GHZ):      9.3148635      9.0169507      4.5831576
 Leave Link  202 at Tue Dec 15 16:27:22 2015, MaxMem=    33554432 cpu:         0.0
 (Enter /home/Applications/g09/g09/l301.exe)
 Standard basis: 3-21G (6D, 7F)
 Ernie: Thresh=  0.10000D-02 Tol=  0.10000D-05 Strict=F.
 There are    53 symmetry adapted cartesian basis functions of A   symmetry.
 There are    53 symmetry adapted basis functions of A   symmetry.
    53 basis functions,    87 primitive gaussians,    53 cartesian basis functions
    18 alpha electrons       18 beta electrons
       nuclear repulsion energy       159.3667150278 Hartrees.
 IExCor=  402 DFT=T Ex+Corr=B3LYP ExCW=0 ScaHFX=  0.200000
 ScaDFX=  0.800000  0.720000  1.000000  0.810000 ScalE2=  1.000000  1.000000
 IRadAn=      0 IRanWt=     -1 IRanGd=            0 ICorTp=0 IEmpDi=  4
 NAtoms=    9 NActive=    9 NUniq=    9 SFac= 1.00D+00 NAtFMM=   60 NAOKFM=F Big=F
 Integral buffers will be    131072 words long.
 Regular integral format.
 Two-electron integral symmetry is turned on.
 Leave Link  301 at Tue Dec 15 16:27:22 2015, MaxMem=    33554432 cpu:         0.0
 (Enter /home/Applications/g09/g09/l302.exe)
 NPDir=0 NMtPBC=     1 NCelOv=     1 NCel=       1 NClECP=     1 NCelD=      1
         NCelK=      1 NCelE2=     1 NClLst=     1 CellRange=     0.0.
 One-electron integrals computed using PRISM.
 NBasis=    53 RedAO= T EigKep=  3.37D-03  NBF=    53
 NBsUse=    53 1.00D-06 EigRej= -1.00D+00 NBFU=    53
 Precomputing XC quadrature grid using
 IXCGrd= 4 IRadAn=           0 IRanWt=          -1 IRanGd=           0 AccXCQ= 0.00D+00.
 Generated NRdTot=       0 NPtTot=           0 NUsed=           0 NTot=          32
 NSgBfM=    53    53    53    53    53 MxSgAt=     9 MxSgA2=     9.
 Leave Link  302 at Tue Dec 15 16:27:22 2015, MaxMem=    33554432 cpu:         0.1
 (Enter /home/Applications/g09/g09/l308.exe)
 Leave Link  308 at Tue Dec 15 16:27:22 2015, MaxMem=    33554432 cpu:         0.0
 (Enter /home/Applications/g09/g09/l303.exe)
 DipDrv:  MaxL=1.
 Leave Link  303 at Tue Dec 15 16:27:22 2015, MaxMem=    33554432 cpu:         0.0
 (Enter /home/Applications/g09/g09/l401.exe)
 ExpMin= 1.83D-01 ExpMax= 3.22D+02 ExpMxC= 3.22D+02 IAcc=1 IRadAn=         1 AccDes= 0.00D+00
 Harris functional with IExCor=  402 and IRadAn=       1 diagonalized for initial guess.
 HarFok:  IExCor=  402 AccDes= 0.00D+00 IRadAn=         1 IDoV= 1 UseB2=F ITyADJ=14
 ICtDFT=  3500011 ScaDFX=  1.000000  1.000000  1.000000  1.000000
 FoFCou: FMM=F IPFlag=           0 FMFlag=      100000 FMFlg1=           0
         NFxFlg=           0 DoJE=T BraDBF=F KetDBF=T FulRan=T
         wScrn=  0.000000 ICntrl=     500 IOpCl=  0 I1Cent=   200000004 NGrid=           0
         NMat0=    1 NMatS0=      1 NMatT0=    0 NMatD0=    1 NMtDS0=    0 NMtDT0=    0
 Petite list used in FoFCou.
 Harris En= -228.723690743580    
 JPrj=0 DoOrth=F DoCkMO=F.
 Leave Link  401 at Tue Dec 15 16:27:23 2015, MaxMem=    33554432 cpu:         0.3
 (Enter /home/Applications/g09/g09/l502.exe)
 Closed shell SCF:
 Using DIIS extrapolation, IDIIS=  1040.
 Integral symmetry usage will be decided dynamically.
 Keep R1 ints in memory in canonical form, NReq=1925595.
 IVT=       27707 IEndB=       27707 NGot=    33554432 MDV=    32502130
 LenX=    32502130 LenY=    32498880
 Requested convergence on RMS density matrix=1.00D-08 within 128 cycles.
 Requested convergence on MAX density matrix=1.00D-06.
 Requested convergence on             energy=1.00D-06.
 No special actions if energy rises.
 FoFCou: FMM=F IPFlag=           0 FMFlag=           0 FMFlg1=           0
         NFxFlg=           0 DoJE=F BraDBF=F KetDBF=F FulRan=T
         wScrn=  0.000000 ICntrl=     600 IOpCl=  0 I1Cent=           0 NGrid=           0
         NMat0=    1 NMatS0=   1431 NMatT0=    0 NMatD0=    1 NMtDS0=    0 NMtDT0=    0
 Symmetry not used in FoFCou.
 Integral accuracy reduced to 1.0D-05 until final iterations.

 Cycle   1  Pass 0  IDiag  1:
 E= -228.647783992682    
 DIIS: error= 3.37D-02 at cycle   1 NSaved=   1.
 NSaved= 1 IEnMin= 1 EnMin= -228.647783992682     IErMin= 1 ErrMin= 3.37D-02
 ErrMax= 3.37D-02  0.00D+00 EMaxC= 1.00D-01 BMatC= 7.92D-02 BMatP= 7.92D-02
 IDIUse=3 WtCom= 6.63D-01 WtEn= 3.37D-01
 Coeff-Com:  0.100D+01
 Coeff-En:   0.100D+01
 Coeff:      0.100D+01
 Gap=     0.226 Goal=   None    Shift=    0.000
 GapD=    0.226 DampG=1.000 DampE=0.500 DampFc=0.5000 IDamp=-1.
 Damping current iteration by 5.00D-01
 RMSDP=1.24D-02 MaxDP=1.23D-01              OVMax= 2.16D-01

 Cycle   2  Pass 0  IDiag  1:
 E= -228.676122792117     Delta-E=       -0.028338799434 Rises=F Damp=T
 DIIS: error= 1.65D-02 at cycle   2 NSaved=   2.
 NSaved= 2 IEnMin= 2 EnMin= -228.676122792117     IErMin= 2 ErrMin= 1.65D-02
 ErrMax= 1.65D-02  0.00D+00 EMaxC= 1.00D-01 BMatC= 1.10D-02 BMatP= 7.92D-02
 IDIUse=3 WtCom= 8.35D-01 WtEn= 1.65D-01
 Coeff-Com:  0.151D+00 0.849D+00
 Coeff-En:   0.264D+00 0.736D+00
 Coeff:      0.169D+00 0.831D+00
 Gap=     0.245 Goal=   None    Shift=    0.000
 RMSDP=4.70D-03 MaxDP=4.28D-02 DE=-2.83D-02 OVMax= 1.71D-01

 Cycle   3  Pass 0  IDiag  1:
 E= -228.718425579724     Delta-E=       -0.042302787608 Rises=F Damp=F
 DIIS: error= 2.16D-02 at cycle   3 NSaved=   3.
 NSaved= 3 IEnMin= 3 EnMin= -228.718425579724     IErMin= 2 ErrMin= 1.65D-02
 ErrMax= 2.16D-02  0.00D+00 EMaxC= 1.00D-01 BMatC= 1.31D-02 BMatP= 1.10D-02
 IDIUse=2 WtCom= 0.00D+00 WtEn= 1.00D+00
 Coeff-En:   0.000D+00 0.000D+00 0.100D+01
 Coeff:      0.000D+00 0.000D+00 0.100D+01
 Gap=     0.239 Goal=   None    Shift=    0.000
 RMSDP=6.27D-03 MaxDP=5.85D-02 DE=-4.23D-02 OVMax= 1.29D-01

 Cycle   4  Pass 0  IDiag  1:
 E= -228.679400925520     Delta-E=        0.039024654204 Rises=F Damp=F
 DIIS: error= 4.59D-02 at cycle   4 NSaved=   4.
 NSaved= 4 IEnMin= 3 EnMin= -228.718425579724     IErMin= 2 ErrMin= 1.65D-02
 ErrMax= 4.59D-02  0.00D+00 EMaxC= 1.00D-01 BMatC= 5.51D-02 BMatP= 1.10D-02
 IDIUse=2 WtCom= 0.00D+00 WtEn= 1.00D+00
 Coeff-En:   0.000D+00 0.000D+00 0.758D+00 0.242D+00
 Coeff:      0.000D+00 0.000D+00 0.758D+00 0.242D+00
 Gap=     0.249 Goal=   None    Shift=    0.000
 RMSDP=3.17D-03 MaxDP=2.79D-02 DE= 3.90D-02 OVMax= 6.61D-02

 Cycle   5  Pass 0  IDiag  1:
 E= -228.727618450294     Delta-E=       -0.048217524773 Rises=F Damp=F
 DIIS: error= 1.11D-02 at cycle   5 NSaved=   5.
 NSaved= 5 IEnMin= 5 EnMin= -228.727618450294     IErMin= 5 ErrMin= 1.11D-02
 ErrMax= 1.11D-02  0.00D+00 EMaxC= 1.00D-01 BMatC= 3.27D-03 BMatP= 1.10D-02
 IDIUse=3 WtCom= 8.89D-01 WtEn= 1.11D-01
 Coeff-Com: -0.133D-01 0.405D-01 0.227D+00-0.121D+00 0.867D+00
 Coeff-En:   0.000D+00 0.000D+00 0.243D+00 0.000D+00 0.757D+00
 Coeff:     -0.118D-01 0.360D-01 0.228D+00-0.108D+00 0.855D+00
 Gap=     0.255 Goal=   None    Shift=    0.000
 RMSDP=1.11D-03 MaxDP=1.01D-02 DE=-4.82D-02 OVMax= 2.20D-02

 Cycle   6  Pass 0  IDiag  1:
 E= -228.730612908294     Delta-E=       -0.002994458000 Rises=F Damp=F
 DIIS: error= 7.58D-04 at cycle   6 NSaved=   6.
 NSaved= 6 IEnMin= 6 EnMin= -228.730612908294     IErMin= 6 ErrMin= 7.58D-04
 ErrMax= 7.58D-04  0.00D+00 EMaxC= 1.00D-01 BMatC= 1.46D-05 BMatP= 3.27D-03
 IDIUse=3 WtCom= 9.92D-01 WtEn= 7.58D-03
 Coeff-Com: -0.599D-02 0.143D-01 0.753D-01-0.453D-01 0.344D+00 0.617D+00
 Coeff-En:   0.000D+00 0.000D+00 0.000D+00 0.000D+00 0.000D+00 0.100D+01
 Coeff:     -0.594D-02 0.142D-01 0.747D-01-0.449D-01 0.342D+00 0.620D+00
 Gap=     0.255 Goal=   None    Shift=    0.000
 RMSDP=7.47D-05 MaxDP=6.25D-04 DE=-2.99D-03 OVMax= 1.63D-03

 Cycle   7  Pass 0  IDiag  1:
 E= -228.730625450355     Delta-E=       -0.000012542062 Rises=F Damp=F
 DIIS: error= 1.44D-04 at cycle   7 NSaved=   7.
 NSaved= 7 IEnMin= 7 EnMin= -228.730625450355     IErMin= 7 ErrMin= 1.44D-04
 ErrMax= 1.44D-04  0.00D+00 EMaxC= 1.00D-01 BMatC= 7.42D-07 BMatP= 1.46D-05
 IDIUse=3 WtCom= 9.99D-01 WtEn= 1.44D-03
 Coeff-Com: -0.228D-02 0.430D-02 0.145D-01-0.148D-01 0.104D+00 0.405D+00
 Coeff-Com:  0.489D+00
 Coeff-En:   0.000D+00 0.000D+00 0.000D+00 0.000D+00 0.000D+00 0.000D+00
 Coeff-En:   0.100D+01
 Coeff:     -0.228D-02 0.430D-02 0.144D-01-0.148D-01 0.104D+00 0.405D+00
 Coeff:      0.489D+00
 Gap=     0.255 Goal=   None    Shift=    0.000
 RMSDP=1.48D-05 MaxDP=1.74D-04 DE=-1.25D-05 OVMax= 3.61D-04

 Cycle   8  Pass 0  IDiag  1:
 E= -228.730626143830     Delta-E=       -0.000000693474 Rises=F Damp=F
 DIIS: error= 1.17D-05 at cycle   8 NSaved=   8.
 NSaved= 8 IEnMin= 8 EnMin= -228.730626143830     IErMin= 8 ErrMin= 1.17D-05
 ErrMax= 1.17D-05  0.00D+00 EMaxC= 1.00D-01 BMatC= 5.49D-09 BMatP= 7.42D-07
 IDIUse=1 WtCom= 1.00D+00 WtEn= 0.00D+00
 Coeff-Com: -0.241D-03 0.153D-03 0.211D-02-0.170D-02 0.167D-01 0.107D+00
 Coeff-Com:  0.143D+00 0.732D+00
 Coeff:     -0.241D-03 0.153D-03 0.211D-02-0.170D-02 0.167D-01 0.107D+00
 Coeff:      0.143D+00 0.732D+00
 Gap=     0.255 Goal=   None    Shift=    0.000
 RMSDP=1.51D-06 MaxDP=1.70D-05 DE=-6.93D-07 OVMax= 2.84D-05

 Initial convergence to 1.0D-05 achieved.  Increase integral accuracy.
 Cycle   9  Pass 1  IDiag  1:
 E= -228.730632436694     Delta-E=       -0.000006292864 Rises=F Damp=F
 DIIS: error= 1.05D-05 at cycle   1 NSaved=   1.
 NSaved= 1 IEnMin= 1 EnMin= -228.730632436694     IErMin= 1 ErrMin= 1.05D-05
 ErrMax= 1.05D-05  0.00D+00 EMaxC= 1.00D-01 BMatC= 5.27D-09 BMatP= 5.27D-09
 IDIUse=1 WtCom= 1.00D+00 WtEn= 0.00D+00
 Coeff-Com:  0.100D+01
 Coeff:      0.100D+01
 Gap=     0.255 Goal=   None    Shift=    0.000
 RMSDP=1.51D-06 MaxDP=1.70D-05 DE=-6.29D-06 OVMax= 2.11D-05

 Cycle  10  Pass 1  IDiag  1:
 E= -228.730632443569     Delta-E=       -0.000000006875 Rises=F Damp=F
 DIIS: error= 4.76D-06 at cycle   2 NSaved=   2.
 NSaved= 2 IEnMin= 2 EnMin= -228.730632443569     IErMin= 2 ErrMin= 4.76D-06
 ErrMax= 4.76D-06  0.00D+00 EMaxC= 1.00D-01 BMatC= 8.55D-10 BMatP= 5.27D-09
 IDIUse=1 WtCom= 1.00D+00 WtEn= 0.00D+00
 Coeff-Com:  0.173D+00 0.827D+00
 Coeff:      0.173D+00 0.827D+00
 Gap=     0.255 Goal=   None    Shift=    0.000
 RMSDP=1.00D-06 MaxDP=1.39D-05 DE=-6.87D-09 OVMax= 2.01D-05

 Cycle  11  Pass 1  IDiag  1:
 E= -228.730632443512     Delta-E=        0.000000000057 Rises=F Damp=F
 DIIS: error= 4.93D-06 at cycle   3 NSaved=   3.
 NSaved= 3 IEnMin= 2 EnMin= -228.730632443569     IErMin= 2 ErrMin= 4.76D-06
 ErrMax= 4.93D-06  0.00D+00 EMaxC= 1.00D-01 BMatC= 9.23D-10 BMatP= 8.55D-10
 IDIUse=1 WtCom= 1.00D+00 WtEn= 0.00D+00
 Coeff-Com: -0.302D-01 0.517D+00 0.513D+00
 Coeff:     -0.302D-01 0.517D+00 0.513D+00
 Gap=     0.255 Goal=   None    Shift=    0.000
 RMSDP=5.05D-07 MaxDP=6.39D-06 DE= 5.68D-11 OVMax= 1.09D-05

 Cycle  12  Pass 1  IDiag  1:
 E= -228.730632444373     Delta-E=       -0.000000000861 Rises=F Damp=F
 DIIS: error= 1.60D-07 at cycle   4 NSaved=   4.
 NSaved= 4 IEnMin= 4 EnMin= -228.730632444373     IErMin= 4 ErrMin= 1.60D-07
 ErrMax= 1.60D-07  0.00D+00 EMaxC= 1.00D-01 BMatC= 2.66D-12 BMatP= 8.55D-10
 IDIUse=1 WtCom= 1.00D+00 WtEn= 0.00D+00
 Coeff-Com: -0.128D-01 0.177D+00 0.184D+00 0.652D+00
 Coeff:     -0.128D-01 0.177D+00 0.184D+00 0.652D+00
 Gap=     0.255 Goal=   None    Shift=    0.000
 RMSDP=4.99D-08 MaxDP=5.43D-07 DE=-8.61D-10 OVMax= 9.22D-07

 Cycle  13  Pass 1  IDiag  1:
 E= -228.730632444372     Delta-E=        0.000000000000 Rises=F Damp=F
 DIIS: error= 1.59D-07 at cycle   5 NSaved=   5.
 NSaved= 5 IEnMin= 4 EnMin= -228.730632444373     IErMin= 5 ErrMin= 1.59D-07
 ErrMax= 1.59D-07  0.00D+00 EMaxC= 1.00D-01 BMatC= 9.57D-13 BMatP= 2.66D-12
 IDIUse=1 WtCom= 1.00D+00 WtEn= 0.00D+00
 Coeff-Com: -0.323D-02 0.344D-01 0.398D-01 0.390D+00 0.539D+00
 Coeff:     -0.323D-02 0.344D-01 0.398D-01 0.390D+00 0.539D+00
 Gap=     0.255 Goal=   None    Shift=    0.000
 RMSDP=2.40D-08 MaxDP=2.59D-07 DE= 1.14D-13 OVMax= 4.60D-07

 Cycle  14  Pass 1  IDiag  1:
 E= -228.730632444376     Delta-E=       -0.000000000003 Rises=F Damp=F
 DIIS: error= 6.78D-08 at cycle   6 NSaved=   6.
 NSaved= 6 IEnMin= 6 EnMin= -228.730632444376     IErMin= 6 ErrMin= 6.78D-08
 ErrMax= 6.78D-08  0.00D+00 EMaxC= 1.00D-01 BMatC= 1.12D-13 BMatP= 9.57D-13
 IDIUse=1 WtCom= 1.00D+00 WtEn= 0.00D+00
 Coeff-Com: -0.901D-03 0.758D-02 0.982D-02 0.182D+00 0.336D+00 0.465D+00
 Coeff:     -0.901D-03 0.758D-02 0.982D-02 0.182D+00 0.336D+00 0.465D+00
 Gap=     0.255 Goal=   None    Shift=    0.000
 RMSDP=7.95D-09 MaxDP=1.03D-07 DE=-3.07D-12 OVMax= 1.56D-07

 SCF Done:  E(RB3LYP) =  -228.730632444     A.U. after   14 cycles
            NFock= 14  Conv=0.80D-08     -V/T= 2.0085
 KE= 2.268076217036D+02 PE=-8.512462318218D+02 EE= 2.363412626460D+02
 Leave Link  502 at Tue Dec 15 16:27:27 2015, MaxMem=    33554432 cpu:         4.9
 (Enter /home/Applications/g09/g09/l801.exe)
 DoSCS=F DFT=T ScalE2(SS,OS)=  1.000000  1.000000
 ExpMin= 1.83D-01 ExpMax= 3.22D+02 ExpMxC= 3.22D+02 IAcc=3 IRadAn=         5 AccDes= 0.00D+00
 HarFok:  IExCor=  205 AccDes= 0.00D+00 IRadAn=         5 IDoV=-2 UseB2=F ITyADJ=14
 ICtDFT= 12500011 ScaDFX=  1.000000  1.000000  1.000000  1.000000
 Largest valence mixing into a core orbital is  1.75D-04
 Largest core mixing into a valence orbital is  4.90D-05
 Range of M.O.s used for correlation:     6    53
 NBasis=    53 NAE=    18 NBE=    18 NFC=     5 NFV=     0
 NROrb=     48 NOA=    13 NOB=    13 NVA=    35 NVB=    35
 Leave Link  801 at Tue Dec 15 16:27:28 2015, MaxMem=    33554432 cpu:         0.2
 (Enter /home/Applications/g09/g09/l914.exe)
 RHF ground state
 MDV=    33554432 DFT=T DoStab=F Mixed=T DoRPA=F DoScal=F NonHer=F
 Keep R1, R2, and R3 ints in memory in canonical form, NReq=5596273.
 FoFCou: FMM=F IPFlag=           0 FMFlag=           0 FMFlg1=           0
         NFxFlg=           0 DoJE=F BraDBF=F KetDBF=F FulRan=T
         wScrn=  0.000000 ICntrl=     600 IOpCl=  0 I1Cent=           0 NGrid=           0
         NMat0=    1 NMatS0=   1431 NMatT0=    0 NMatD0=    1 NMtDS0=    0 NMtDT0=    0
 Symmetry not used in FoFCou.
 Making orbital integer symmetry assigments:
 Orbital symmetries:
       Occupied  (A) (A) (A) (A) (A) (A) (A) (A) (A) (A) (A) (A)
                 (A) (A) (A) (A) (A) (A)
       Virtual   (A) (A) (A) (A) (A) (A) (A) (A) (A) (A) (A) (A)
                 (A) (A) (A) (A) (A) (A) (A) (A) (A) (A) (A) (A)
                 (A) (A) (A) (A) (A) (A) (A) (A) (A) (A) (A)
    60 initial guesses have been made.
 Convergence on wavefunction:    0.000001000000000
 Davidson Disk Diagonalization:  ConvIn= 1.00D-06 SkipCon=T Conv= 1.00D-06.
 Max sub-space:   240 roots to seek:    60 dimension of matrix:          910
 Iteration     1 Dimension    60 NMult     0 NNew     60
 CISAX will form    60 AO SS matrices at one time.
 NMat=    60 NSing=    60 JSym2X= 0.
 New state      1 was old state      2
 New state      2 was old state      1
 New state      3 was old state      5
 New state      4 was old state      7
 New state      5 was old state      6
 New state      6 was old state      8
 New state      7 was old state      4
 New state      8 was old state      9
 New state      9 was old state     10
 New state     10 was old state     11
 New state     11 was old state     15
 New state     13 was old state     16
 New state     14 was old state     13
 New state     15 was old state     14
 Excitation Energies [eV] at current iteration:
 Root      1 :     7.349304362818825
 Root      2 :     7.985616399100920
 Root      3 :     8.687394976216238
 Root      4 :     8.923979717919201
 Root      5 :     9.204061344039195
 Root      6 :     9.335005452609307
 Root      7 :     9.465120972450586
 Root      8 :     9.521632249360126
 Root      9 :     9.732344976383962
 Root     10 :    10.181073465587650
 Root     11 :    10.421721811739130
 Root     12 :    10.535530593610580
 Root     13 :    10.587911846395890
 Root     14 :    10.640968012902350
 Root     15 :    10.789707564070540
 Root     16 :    10.971210657054760
 Root     17 :    11.011630459258940
 Root     18 :    11.313200990347650
 Root     19 :    11.360417042900630
 Root     20 :    11.438560862187960
 Root     21 :    11.884369685193800
 Root     22 :    12.037122020314750
 Root     23 :    12.143389896357640
 Root     24 :    12.468326493825510
 Root     25 :    12.578675329370370
 Root     26 :    13.003050114159970
 Root     27 :    13.031033260840030
 Root     28 :    13.191658510957820
 Root     29 :    13.304266474597630
 Root     30 :    13.356344026059530
 Root     31 :    13.842392330606260
 Root     32 :    13.892149194868270
 Root     33 :    14.038011198126560
 Root     34 :    14.093660892662130
 Root     35 :    14.192207766870180
 Root     36 :    14.379199911045080
 Root     37 :    14.419275994463190
 Root     38 :    14.561840899316140
 Root     39 :    14.627842795873200
 Root     40 :    14.729797586534400
 Root     41 :    14.875104296290090
 Root     42 :    14.990413489047000
 Root     43 :    14.999197979361440
 Root     44 :    15.023913619092740
 Root     45 :    15.077781026017800
 Root     46 :    15.373584980749190
 Root     47 :    15.493520667578740
 Root     48 :    15.514313477153200
 Root     49 :    15.678779498484970
 Root     50 :    15.700710604979170
 Root     51 :    15.773093448553980
 Root     52 :    15.916926561062000
 Root     53 :    16.005351464715910
 Root     54 :    16.221640969626550
 Root     55 :    16.262940040031950
 Root     56 :    16.379335604726310
 Root     57 :    16.441118474493120
 Root     58 :    16.628083244734470
 Root     59 :    16.822891607253600
 Root     60 :    18.892699999740760
 Iteration     2 Dimension   120 NMult    60 NNew     60
 CISAX will form    60 AO SS matrices at one time.
 NMat=    60 NSing=    60 JSym2X= 0.
 Root      1 not converged, maximum delta is    0.332347891184705
 Root      2 not converged, maximum delta is    0.316280534405649
 Root      3 not converged, maximum delta is    0.073652641115521
 Root      4 not converged, maximum delta is    0.202785293873594
 New state      5 was old state      7
 Root      5 not converged, maximum delta is    0.341852193768031
 New state      6 was old state      5
 Root      6 not converged, maximum delta is    0.109059087712690
 New state      7 was old state      6
 Root      7 not converged, maximum delta is    0.012791817600990
 Root      8 not converged, maximum delta is    0.187362787190623
 Root      9 not converged, maximum delta is    0.210709566007057
 New state     10 was old state     17
 Root     10 not converged, maximum delta is    0.431057296960230
 New state     11 was old state     10
 Root     11 not converged, maximum delta is    0.143184595484467
 New state     12 was old state     11
 Root     12 not converged, maximum delta is    0.097455722953470
 New state     13 was old state     12
 Root     13 not converged, maximum delta is    0.087473052131356
 New state     14 was old state     13
 Root     14 not converged, maximum delta is    0.245925786433179
 New state     15 was old state     14
 Root     15 not converged, maximum delta is    0.202099015496282
 Excitation Energies [eV] at current iteration:
 Root      1 :     7.177681008752210   Change is   -0.171623354066615
 Root      2 :     7.291014154281466   Change is   -0.694602244819453
 Root      3 :     8.666787528476494   Change is   -0.020607447739745
 Root      4 :     8.871297514002325   Change is   -0.052682203916874
 Root      5 :     8.984558200188497   Change is   -0.480562772262091
 Root      6 :     9.180429815217071   Change is   -0.023631528822123
 Root      7 :     9.325980223581343   Change is   -0.009025229027964
 Root      8 :     9.493841622592674   Change is   -0.027790626767452
 Root      9 :     9.675151924372626   Change is   -0.057193052011335
 Root     10 :    10.018909436639200   Change is   -0.992721022619732
 Root     11 :    10.183908491953420   Change is    0.002835026365775
 Root     12 :    10.398973481498610   Change is   -0.022748330240526
 Root     13 :    10.512778629631400   Change is   -0.022751963979188
 Root     14 :    10.602446536964190   Change is    0.014534690568306
 Root     15 :    10.632335104432490   Change is   -0.008632908469859
 Root     16 :    10.778750160980940   Change is   -0.010957403089603
 Root     17 :    10.967396444294190   Change is   -0.003814212760569
 Root     18 :    11.284190067179190   Change is   -0.029010923168455
 Root     19 :    11.336307932580050   Change is   -0.024109110320574
 Root     20 :    11.416155550133810   Change is   -0.022405312054152
 Root     21 :    11.758657345342880   Change is   -0.278464674971872
 Root     22 :    11.863587500443010   Change is   -0.020782184750789
 Root     23 :    12.113860929711570   Change is   -0.029528966646072
 Root     24 :    12.454718764791830   Change is   -0.013607729033687
 Root     25 :    12.497675419627900   Change is   -0.080999909742471
 Root     26 :    12.696429104652460   Change is   -0.306621009507509
 Root     27 :    12.945255405309100   Change is   -0.085777855530931
 Root     28 :    13.023945087480310   Change is   -0.167713423477507
 Root     29 :    13.150192623380710   Change is   -0.206151402678821
 Root     30 :    13.250081811652720   Change is   -0.054184662944911
 Root     31 :    13.458468621728880   Change is   -0.383923708877387
 Root     32 :    13.812311645614140   Change is   -0.281349247047985
 Root     33 :    13.875497169777060   Change is   -0.016652025091209
 Root     34 :    13.995571949010850   Change is   -0.042439249115710
 Root     35 :    14.123908582572000   Change is   -0.068299184298183
 Root     36 :    14.280446174088540   Change is   -0.098753736956546
 Root     37 :    14.336091492455450   Change is   -0.083184502007744
 Root     38 :    14.397286071951930   Change is   -0.164554827364213
 Root     39 :    14.520549468363380   Change is   -0.107293327509822
 Root     40 :    14.610416126755370   Change is   -0.119381459779033
 Root     41 :    14.736298784313360   Change is   -0.287614834779385
 Root     42 :    14.772677356127070   Change is   -0.226520623234364
 Root     43 :    14.854362240952460   Change is   -0.020742055337632
 Root     44 :    14.913678582492370   Change is   -0.076734906554629
 Root     45 :    14.988306608919140   Change is   -0.089474417098660
 Root     46 :    15.083512134307970   Change is   -0.290072846441227
 Root     47 :    15.248289917377440   Change is   -0.973351052249111
 Root     48 :    15.349445709409140   Change is   -0.567480851652863
 Root     49 :    15.469155833899710   Change is   -0.045157643253492
 Root     50 :    15.483177959434040   Change is   -0.010342708144691
 Root     51 :    15.545548676256350   Change is   -0.133230822228623
 Root     52 :    15.608681090693010   Change is   -0.092029514286152
 Root     53 :    15.709887790239150   Change is   -0.063205658314820
 Root     54 :    15.743576821646870   Change is   -1.079314785606727
 Root     55 :    15.859850806803070   Change is   -0.145500657912842
 Root     56 :    16.024999112828610   Change is   -0.354336491897707
 Root     57 :    16.165042891418570   Change is   -0.097897148613380
 Root     58 :    16.346949505829810   Change is   -0.281133738904654
 Root     59 :    16.519555758988260   Change is    0.078437284495136
 Root     60 :    16.913080614085390   Change is   -1.979619385655359
 Iteration     3 Dimension   135 NMult   120 NNew     15
 CISAX will form    15 AO SS matrices at one time.
 NMat=    15 NSing=    15 JSym2X= 0.
 Root      1 not converged, maximum delta is    0.002982940442992
 Root      2 not converged, maximum delta is    0.002888542751436
 Root      3 not converged, maximum delta is    0.000774681642645
 Root      4 not converged, maximum delta is    0.003010658164476
 Root      5 not converged, maximum delta is    0.004556687637561
 Root      6 not converged, maximum delta is    0.000571528819253
 Root      7 not converged, maximum delta is    0.000143092790864
 Root      8 not converged, maximum delta is    0.000321895498936
 Root      9 not converged, maximum delta is    0.002154495229658
 Root     10 not converged, maximum delta is    0.004231757376907
 Root     11 not converged, maximum delta is    0.002810182494631
 Root     12 not converged, maximum delta is    0.000805424553530
 Root     13 not converged, maximum delta is    0.000159174879680
 Root     14 not converged, maximum delta is    0.001637678308901
 Root     15 not converged, maximum delta is    0.001475558789725
 Excitation Energies [eV] at current iteration:
 Root      1 :     7.176511536715285   Change is   -0.001169472036925
 Root      2 :     7.289407149200501   Change is   -0.001607005080966
 Root      3 :     8.666650686793560   Change is   -0.000136841682933
 Root      4 :     8.870698462906681   Change is   -0.000599051095646
 Root      5 :     8.983003407655422   Change is   -0.001554792533073
 Root      6 :     9.180378917818086   Change is   -0.000050897398986
 Root      7 :     9.325969897287788   Change is   -0.000010326293556
 Root      8 :     9.493791493033759   Change is   -0.000050129558914
 Root      9 :     9.674459238319352   Change is   -0.000692686053274
 Root     10 :    10.015365073324010   Change is   -0.003544363315198
 Root     11 :    10.183491276063100   Change is   -0.000417215890318
 Root     12 :    10.398791114432900   Change is   -0.000182367065706
 Root     13 :    10.512758738000270   Change is   -0.000019891631124
 Root     14 :    10.602317128247400   Change is   -0.000129408716788
 Root     15 :    10.632272713021890   Change is   -0.000062391410603
 Iteration     4 Dimension   150 NMult   135 NNew     15
 CISAX will form    15 AO SS matrices at one time.
 NMat=    15 NSing=    15 JSym2X= 0.
 Root      1 not converged, maximum delta is    0.000047683645422
 Root      2 not converged, maximum delta is    0.000049886989163
 Root      3 not converged, maximum delta is    0.000018664145516
 Root      4 not converged, maximum delta is    0.000037192373100
 Root      5 not converged, maximum delta is    0.000063118438877
 Root      6 not converged, maximum delta is    0.000008947973228
 Root      7 not converged, maximum delta is    0.000004626245469
 Root      8 not converged, maximum delta is    0.000010185474250
 Root      9 not converged, maximum delta is    0.000056183046365
 Root     10 not converged, maximum delta is    0.000139258528871
 Root     11 not converged, maximum delta is    0.000045787237878
 Root     12 not converged, maximum delta is    0.000037075719278
 Root     13 not converged, maximum delta is    0.000005509652943
 Root     14 not converged, maximum delta is    0.000026720866216
 Root     15 not converged, maximum delta is    0.000019209315219
 Excitation Energies [eV] at current iteration:
 Root      1 :     7.176510171400890   Change is   -0.000001365314395
 Root      2 :     7.289405223549484   Change is   -0.000001925651017
 Root      3 :     8.666650508691911   Change is   -0.000000178101650
 Root      4 :     8.870697544118030   Change is   -0.000000918788650
 Root      5 :     8.983000861225729   Change is   -0.000002546429694
 Root      6 :     9.180378854297745   Change is   -0.000000063520341
 Root      7 :     9.325969881580628   Change is   -0.000000015707160
 Root      8 :     9.493791419431144   Change is   -0.000000073602615
 Root      9 :     9.674458285990710   Change is   -0.000000952328643
 Root     10 :    10.015359831025530   Change is   -0.000005242298476
 Root     11 :    10.183490671852610   Change is   -0.000000604210495
 Root     12 :    10.398790836898410   Change is   -0.000000277534492
 Root     13 :    10.512758719737090   Change is   -0.000000018263185
 Root     14 :    10.602316941456620   Change is   -0.000000186790785
 Root     15 :    10.632272631248940   Change is   -0.000000081772948
 Iteration     5 Dimension   165 NMult   150 NNew     15
 CISAX will form    15 AO SS matrices at one time.
 NMat=    15 NSing=    15 JSym2X= 0.
 Root      1 not converged, maximum delta is    0.000001610548378
 Root      2 not converged, maximum delta is    0.000001841908570
 Root      3 has converged.
 Root      4 not converged, maximum delta is    0.000001073306783
 Root      5 not converged, maximum delta is    0.000002153928104
 Root      6 has converged.
 Root      7 has converged.
 Root      8 has converged.
 Root      9 not converged, maximum delta is    0.000001200633170
 Root     10 not converged, maximum delta is    0.000003258205509
 Root     11 not converged, maximum delta is    0.000001179927507
 Root     12 has converged.
 Root     13 has converged.
 Root     14 not converged, maximum delta is    0.000001035872282
 Root     15 has converged.
 Excitation Energies [eV] at current iteration:
 Root      1 :     7.176510170311838   Change is   -0.000000001089052
 Root      2 :     7.289405221809198   Change is   -0.000000001740286
 Root      3 :     8.666650508514527   Change is   -0.000000000177382
 Root      4 :     8.870697543270316   Change is   -0.000000000847714
 Root      5 :     8.983000858823731   Change is   -0.000000002401999
 Root      6 :     9.180378854229588   Change is   -0.000000000068157
 Root      7 :     9.325969881557171   Change is   -0.000000000023457
 Root      8 :     9.493791419330233   Change is   -0.000000000100911
 Root      9 :     9.674458284740428   Change is   -0.000000001250282
 Root     10 :    10.015359823022040   Change is   -0.000000008003491
 Root     11 :    10.183490670957190   Change is   -0.000000000895420
 Root     12 :    10.398790836351390   Change is   -0.000000000547018
 Root     13 :    10.512758719714810   Change is   -0.000000000022276
 Root     14 :    10.602316941162300   Change is   -0.000000000294317
 Root     15 :    10.632272631121620   Change is   -0.000000000127320
 Iteration     6 Dimension   173 NMult   165 NNew      8
 CISAX will form     8 AO SS matrices at one time.
 NMat=     8 NSing=     8 JSym2X= 0.
 Root      1 has converged.
 Root      2 has converged.
 Root      3 has converged.
 Root      4 has converged.
 Root      5 has converged.
 Root      6 has converged.
 Root      7 has converged.
 Root      8 has converged.
 Root      9 has converged.
 Root     10 has converged.
 Root     11 has converged.
 Root     12 has converged.
 Root     13 has converged.
 Root     14 has converged.
 Root     15 has converged.
 Excitation Energies [eV] at current iteration:
 Root      1 :     7.176510170311459   Change is   -0.000000000000379
 Root      2 :     7.289405221808396   Change is   -0.000000000000802
 Root      3 :     8.666650508514433   Change is   -0.000000000000095
 Root      4 :     8.870697543269829   Change is   -0.000000000000488
 Root      5 :     8.983000858822377   Change is   -0.000000000001353
 Root      6 :     9.180378854229554   Change is   -0.000000000000033
 Root      7 :     9.325969881557144   Change is   -0.000000000000027
 Root      8 :     9.493791419330135   Change is   -0.000000000000098
 Root      9 :     9.674458284739522   Change is   -0.000000000000905
 Root     10 :    10.015359823015450   Change is   -0.000000000006587
 Root     11 :    10.183490670956420   Change is   -0.000000000000767
 Root     12 :    10.398790836350990   Change is   -0.000000000000405
 Root     13 :    10.512758719714790   Change is   -0.000000000000023
 Root     14 :    10.602316941162010   Change is   -0.000000000000290
 Root     15 :    10.632272631121500   Change is   -0.000000000000113
 Convergence achieved on expansion vectors.
 ***********************************************************************
 Excited states from <AA,BB:AA,BB> singles matrix:
 ***********************************************************************
 
 1PDM for each excited state written to RWF  633
 Ground to excited state transition densities written to RWF  633
 Ground to excited state transition electric dipole moments (Au):
       state          X           Y           Z        Dip. S.      Osc.
         1        -0.5832      0.2206     -0.0063      0.3888      0.0684
         2        -0.7068      0.4643     -0.0250      0.7157      0.1278
         3        -0.1287     -0.1632      0.0485      0.0456      0.0097
         4        -0.3583     -0.2681     -0.1297      0.2171      0.0472
         5        -0.6855     -0.3443      0.0600      0.5921      0.1303
         6         0.0807      0.0186      0.0793      0.0131      0.0030
         7        -0.0107      0.0642     -0.0396      0.0058      0.0013
         8        -0.0657      0.0954     -0.0533      0.0163      0.0038
         9        -0.0777     -0.4995     -0.0733      0.2609      0.0619
        10         0.1104      1.1001      0.0461      1.2246      0.3005
        11         0.0058      0.3731     -0.0092      0.1393      0.0348
        12        -0.0602     -0.1807      0.0363      0.0376      0.0096
        13        -0.0014      0.0314      0.1031      0.0116      0.0030
        14        -0.0491     -0.1890      0.1048      0.0491      0.0128
        15        -0.0581     -0.1084     -0.1230      0.0302      0.0079
 Ground to excited state transition velocity dipole moments (Au):
       state          X           Y           Z        Dip. S.      Osc.
         1        -0.0010     -0.0346      0.0013      0.0012      0.0030
         2         0.0304      0.0458      0.0006      0.0030      0.0075
         3         0.0087     -0.0111     -0.0128      0.0004      0.0008
         4         0.0183     -0.0102      0.0691      0.0052      0.0107
         5         0.0453     -0.0177     -0.0398      0.0040      0.0080
         6        -0.0040      0.0013     -0.0003      0.0000      0.0000
         7        -0.0016     -0.0022      0.0136      0.0002      0.0004
         8         0.0095     -0.0020      0.0333      0.0012      0.0023
         9        -0.0074      0.0042     -0.0050      0.0001      0.0002
        10         0.0179     -0.0199      0.0058      0.0007      0.0014
        11         0.0104     -0.0113     -0.0482      0.0026      0.0046
        12         0.0070      0.0064     -0.0139      0.0003      0.0005
        13         0.0008     -0.0070     -0.0050      0.0001      0.0001
        14         0.0055      0.0139     -0.0210      0.0007      0.0011
        15         0.0087      0.0034     -0.0116      0.0002      0.0004
 Ground to excited state transition magnetic dipole moments (Au):
       state          X           Y           Z
         1        -0.0610     -0.0041     -0.2686
         2        -0.0127      0.0162     -0.4921
         3         0.0020     -0.4508      0.1023
         4        -1.3063      0.1275      0.1914
         5         0.8705      0.0508      0.2517
         6         0.2885      0.1249     -0.0532
         7         0.1991     -0.4905     -0.0053
         8        -0.1950      0.2441     -0.0387
         9        -0.1273     -0.1049     -0.1070
        10        -0.1425     -0.2267      0.3379
        11        -0.0248     -0.4684      0.1159
        12        -0.3250     -1.3033     -0.0897
        13        -0.0959     -0.0455      0.0022
        14         0.0602     -0.4005     -0.0830
        15        -0.0382      0.1235     -0.0632
 Ground to excited state transition velocity quadrupole moments (Au):
       state          XX          YY          ZZ          XY          XZ          YZ
         1        -0.0688      0.0183      0.0219     -0.0926     -0.0011     -0.0028
         2        -0.0343      0.0765     -0.0199     -0.1689      0.0067      0.0042
         3        -0.0404     -0.0027      0.0044      0.0567      0.0804      0.0486
         4        -0.0075     -0.0173      0.0074      0.1402      0.0152     -0.1640
         5        -0.0140     -0.0160      0.0134      0.2080      0.0041      0.0954
         6         0.0005      0.0151     -0.0052     -0.0422      0.1676     -0.0219
         7         0.0140     -0.0114     -0.0032     -0.0102      0.0190     -0.0032
         8         0.0152     -0.0208      0.0027      0.0009     -0.0284     -0.0752
         9        -0.1329      0.0916      0.0188      0.0059     -0.0389     -0.0632
        10         0.3272     -0.2090     -0.0556      0.0403     -0.0059     -0.0504
        11         0.1225     -0.0693     -0.0202      0.0155      0.0963      0.0581
        12        -0.1094      0.0568      0.0219     -0.0258      0.1485     -0.0236
        13         0.0367     -0.0138      0.0007      0.0174      0.0309     -0.0455
        14        -0.0862      0.0507      0.0111     -0.0031      0.0122      0.0226
        15        -0.0484      0.0214      0.0102     -0.0135      0.0311     -0.0928
 <0|del|b> * <b|rxdel|0> + <0|del|b> * <b|delr+rdel|0>
 Rotatory Strengths (R) in cgs (10**-40 erg-esu-cm/Gauss)
       state          XX          YY          ZZ    R(velocity)    E-M Angle
         1        -0.5087     -0.2289      0.3200     -0.1392       90.94
         2         0.0721     -0.5899      0.7024      0.0615       90.00
         3         4.2868     -0.1551      4.1077      2.7465       65.04
         4        23.6061    -25.3434    -24.2484     -8.6619       97.19
         5       -20.4935     44.9920     36.5606     20.3530       60.02
         6        -0.0291     -1.1047     -0.8878     -0.6739      136.24
         7         0.9513     -0.2626      0.7382      0.4756       84.59
         8        -1.8347     -3.9446     -1.5996     -2.4596      109.49
         9         0.2304      1.9614     -0.1309      0.6870       57.72
        10         6.3516     -1.6372      2.8727      2.5291       70.46
        11         0.0286     -4.2421      3.1469     -0.3555       91.32
        12        -7.0696     -1.4407     -8.7588     -5.7564      114.35
        13         0.4008     -0.0342      0.0568      0.1411       75.35
        14        -3.5792      1.9352     -4.7257     -2.1232      109.20
        15         1.0900     -0.5126      0.9058      0.4944       67.59
 1/2[<0|r|b>*<b|rxdel|0> + (<0|rxdel|b>*<b|r|0>)*]
 Rotatory Strengths (R) in cgs (10**-40 erg-esu-cm/Gauss)
       state          XX          YY          ZZ     R(length)
         1       -25.1425      0.6366     -1.2003     -8.5688
         2        -6.3705     -5.3057     -8.6825     -6.7862
         3         0.1829    -52.0175     -3.5084    -18.4477
         4      -330.9798     24.1654     17.5626    -96.4173
         5       422.0218     12.3632    -10.6843    141.2336
         6       -16.4759     -1.6423      2.9841     -5.0447
         7         1.5023     22.2522     -0.1475      7.8690
         8        -9.0616    -16.4645     -1.4603     -8.9955
         9        -6.9987    -37.0408     -5.5439    -16.5278
        10        11.1292    176.3613    -11.0172     58.8244
        11         0.1016    123.5849      0.7554     41.4806
        12       -13.8282   -166.5410      2.2993    -59.3567
        13        -0.0980      1.0090     -0.1605      0.2502
        14         2.0892    -53.5432      6.1515    -15.1009
        15        -1.5677      9.4668     -5.5004      0.7996
  1/2[<0|del|b>*<b|r|0> + (<0|r|b>*<b|del|0>)*] (Au)
       state          X           Y           Z        Dip. S.   Osc.(frdel)
         1         0.0006     -0.0076      0.0000      0.0071      0.0047
         2        -0.0215      0.0213      0.0000      0.0003      0.0002
         3        -0.0011      0.0018     -0.0006     -0.0001      0.0000
         4        -0.0066      0.0027     -0.0090      0.0128      0.0085
         5        -0.0310      0.0061     -0.0024      0.0273      0.0182
         6        -0.0003      0.0000      0.0000      0.0003      0.0002
         7         0.0000     -0.0001     -0.0005      0.0007      0.0004
         8        -0.0006     -0.0002     -0.0018      0.0026      0.0017
         9         0.0006     -0.0021      0.0004      0.0012      0.0008
        10         0.0020     -0.0219      0.0003      0.0197      0.0131
        11         0.0001     -0.0042      0.0004      0.0037      0.0025
        12        -0.0004     -0.0012     -0.0005      0.0021      0.0014
        13         0.0000     -0.0002     -0.0005      0.0007      0.0005
        14        -0.0003     -0.0026     -0.0022      0.0051      0.0034
        15        -0.0005     -0.0004      0.0014     -0.0006     -0.0004

 Excitation energies and oscillator strengths:
 
 Excited State   1:      Singlet-A      7.1765 eV  172.76 nm  f=0.0684  <S**2>=0.000
      17 -> 19         0.48602
      18 -> 19         0.38538
      18 -> 20         0.31121
 This state for optimization and/or second-order correction.
 Total Energy, E(CIS) =  -228.466900537    
 Copying the excited state density for this state as the 1-particle RhoCI density.
 
 Excited State   2:      Singlet-A      7.2894 eV  170.09 nm  f=0.1278  <S**2>=0.000
      17 -> 19        -0.23256
      18 -> 19         0.54723
      18 -> 20        -0.34868
 
 Excited State   3:      Singlet-A      8.6667 eV  143.06 nm  f=0.0097  <S**2>=0.000
      18 -> 20        -0.11503
      18 -> 21         0.65688
      18 -> 22        -0.16026
 
 Excited State   4:      Singlet-A      8.8707 eV  139.77 nm  f=0.0472  <S**2>=0.000
      16 -> 19         0.57084
      17 -> 19         0.15159
      17 -> 20         0.24730
      18 -> 20        -0.20021
      18 -> 22         0.16780
 
 Excited State   5:      Singlet-A      8.9830 eV  138.02 nm  f=0.1303  <S**2>=0.000
      16 -> 19        -0.36944
      17 -> 19         0.22715
      17 -> 20         0.41536
      18 -> 20        -0.27870
      18 -> 21        -0.14174
 
 Excited State   6:      Singlet-A      9.1804 eV  135.05 nm  f=0.0030  <S**2>=0.000
      16 -> 19        -0.14985
      18 -> 21         0.16224
      18 -> 22         0.65882
 
 Excited State   7:      Singlet-A      9.3260 eV  132.95 nm  f=0.0013  <S**2>=0.000
      15 -> 19        -0.34535
      18 -> 23         0.59714
 
 Excited State   8:      Singlet-A      9.4938 eV  130.60 nm  f=0.0038  <S**2>=0.000
      15 -> 19         0.59734
      17 -> 21        -0.14626
      18 -> 23         0.32220
 
 Excited State   9:      Singlet-A      9.6745 eV  128.16 nm  f=0.0619  <S**2>=0.000
      17 -> 19         0.12833
      17 -> 20        -0.20915
      17 -> 21         0.58651
      18 -> 20        -0.14944
      18 -> 21        -0.10392
      18 -> 23         0.15115
 
 Excited State  10:      Singlet-A     10.0154 eV  123.79 nm  f=0.3005  <S**2>=0.000
      17 -> 19        -0.24147
      17 -> 20         0.38440
      17 -> 21         0.27932
      17 -> 22        -0.25512
      18 -> 20         0.27950
 
 Excited State  11:      Singlet-A     10.1835 eV  121.75 nm  f=0.0348  <S**2>=0.000
      14 -> 19         0.17387
      16 -> 20         0.16451
      17 -> 20         0.11870
      17 -> 21         0.15233
      17 -> 22         0.58861
      17 -> 23        -0.10255
      18 -> 24        -0.13092
 
 Excited State  12:      Singlet-A     10.3988 eV  119.23 nm  f=0.0096  <S**2>=0.000
      14 -> 19         0.57862
      16 -> 20         0.26021
      17 -> 22        -0.22326
 
 Excited State  13:      Singlet-A     10.5128 eV  117.94 nm  f=0.0030  <S**2>=0.000
      14 -> 19         0.18362
      16 -> 20        -0.13189
      17 -> 22         0.14718
      17 -> 23         0.25842
      17 -> 24        -0.10200
      18 -> 24         0.55939
 
 Excited State  14:      Singlet-A     10.6023 eV  116.94 nm  f=0.0128  <S**2>=0.000
      12 -> 19        -0.10290
      14 -> 19        -0.27549
      15 -> 20        -0.16821
      16 -> 20         0.56237
      18 -> 24         0.21069
 
 Excited State  15:      Singlet-A     10.6323 eV  116.61 nm  f=0.0079  <S**2>=0.000
      17 -> 23         0.60674
      17 -> 24        -0.12214
      18 -> 24        -0.26500
      18 -> 25         0.15693
 SavETr:  write IOETrn=   770 NScale= 10 NData=  16 NLR=1 NState=   15 LETran=     280.
 The selected state is a singlet
 CISAX will form     1 AO SS matrices at one time.
 NMat=     1 NSing=     1 JSym2X= 0.
 CISAX will form     1 AO SS matrices at one time.
 NMat=     1 NSing=     1 JSym2X= 0.
 Leave Link  914 at Tue Dec 15 16:27:54 2015, MaxMem=    33554432 cpu:        26.4
 (Enter /home/Applications/g09/g09/l1002.exe)
 Minotr:  Closed shell wavefunction.
          Computing CIS/TD-HF/TD-KS derivatives.
          Using Z-Vector for PSCF gradient.
          Skipping F1 and S1 gradient terms here.
          IDoAtm=111111111
          Frozen-core window.
          Direct CPHF calculation.
          Differentiating once with respect to electric field.
                with respect to dipole field.
          Differentiating once with respect to nuclear coordinates.
          Requested convergence is 1.0D-10 RMS, and 1.0D-09 maximum.
          NewPWx=F KeepS1=T KeepF1=T KeepIn=T MapXYZ=F SortEE=F KeepMc=T.
          MDV=      33554290 using IRadAn=       0.
 Using stored XC quadrature information.
 Keep R1 ints in memory in canonical form, NReq=1898913.
 FoFCou: FMM=F IPFlag=           0 FMFlag=           0 FMFlg1=           0
         NFxFlg=           0 DoJE=F BraDBF=F KetDBF=F FulRan=T
         wScrn=  0.000000 ICntrl=     600 IOpCl=  0 I1Cent=           0 NGrid=           0
         NMat0=    1 NMatS0=   1431 NMatT0=    0 NMatD0=    1 NMtDS0=    0 NMtDT0=    0
 Symmetry not used in FoFCou.
          Solving linear equations separately, MaxMat=       0.
          There are     1 degrees of freedom in the 1st order CPHF.  IDoFFX=0 NUNeed=     1.
 LinEq1:  Iter=  0 NonCon=     1 RMS=5.04D-02 Max=7.22D-01 NDo=     1
 AX will form     1 AO Fock derivatives at one time.
 LinEq1:  Iter=  1 NonCon=     1 RMS=1.48D-02 Max=2.00D-01 NDo=     1
 LinEq1:  Iter=  2 NonCon=     1 RMS=1.15D-02 Max=1.93D-01 NDo=     1
 LinEq1:  Iter=  3 NonCon=     1 RMS=5.62D-03 Max=8.39D-02 NDo=     1
 LinEq1:  Iter=  4 NonCon=     1 RMS=4.30D-03 Max=5.01D-02 NDo=     1
 LinEq1:  Iter=  5 NonCon=     1 RMS=1.28D-03 Max=1.55D-02 NDo=     1
 LinEq1:  Iter=  6 NonCon=     1 RMS=8.36D-04 Max=5.81D-03 NDo=     1
 LinEq1:  Iter=  7 NonCon=     1 RMS=1.90D-04 Max=1.41D-03 NDo=     1
 LinEq1:  Iter=  8 NonCon=     1 RMS=6.13D-05 Max=4.98D-04 NDo=     1
 LinEq1:  Iter=  9 NonCon=     1 RMS=1.40D-05 Max=8.42D-05 NDo=     1
 LinEq1:  Iter= 10 NonCon=     1 RMS=1.68D-06 Max=1.06D-05 NDo=     1
 LinEq1:  Iter= 11 NonCon=     1 RMS=2.33D-07 Max=1.44D-06 NDo=     1
 LinEq1:  Iter= 12 NonCon=     1 RMS=2.65D-08 Max=1.41D-07 NDo=     1
 LinEq1:  Iter= 13 NonCon=     1 RMS=3.80D-09 Max=2.30D-08 NDo=     1
 LinEq1:  Iter= 14 NonCon=     1 RMS=4.04D-10 Max=2.59D-09 NDo=     1
 LinEq1:  Iter= 15 NonCon=     0 RMS=4.45D-11 Max=2.44D-10 NDo=     1
 Linear equations converged to 1.000D-10 1.000D-09 after    15 iterations.
 End of Minotr F.D. properties file   721 does not exist.
 End of Minotr F.D. properties file   722 does not exist.
 End of Minotr F.D. properties file   788 does not exist.
 Leave Link 1002 at Tue Dec 15 16:28:08 2015, MaxMem=    33554432 cpu:        13.4
 (Enter /home/Applications/g09/g09/l601.exe)
 Copying SCF densities to generalized density rwf, IOpCl= 0 IROHF=0.

 **********************************************************************

            Population analysis using the SCF density.

 **********************************************************************

 Orbital symmetries:
       Occupied  (A) (A) (A) (A) (A) (A) (A) (A) (A) (A) (A) (A)
                 (A) (A) (A) (A) (A) (A)
       Virtual   (A) (A) (A) (A) (A) (A) (A) (A) (A) (A) (A) (A)
                 (A) (A) (A) (A) (A) (A) (A) (A) (A) (A) (A) (A)
                 (A) (A) (A) (A) (A) (A) (A) (A) (A) (A) (A)
 The electronic state is 1-A.
 Alpha  occ. eigenvalues --  -19.11183 -10.18664 -10.17351 -10.13416 -10.11974
 Alpha  occ. eigenvalues --   -1.11365  -0.80649  -0.74153  -0.60630  -0.56487
 Alpha  occ. eigenvalues --   -0.54250  -0.44909  -0.44151  -0.42064  -0.38502
 Alpha  occ. eigenvalues --   -0.36709  -0.27682  -0.23663
 Alpha virt. eigenvalues --    0.01819   0.07686   0.12869   0.14181   0.15946
 Alpha virt. eigenvalues --    0.19195   0.20024   0.22829   0.34809   0.41202
 Alpha virt. eigenvalues --    0.46020   0.65428   0.69637   0.69805   0.75569
 Alpha virt. eigenvalues --    0.76580   0.79105   0.79748   0.82801   0.84027
 Alpha virt. eigenvalues --    0.94351   0.97815   1.01766   1.05055   1.18466
 Alpha virt. eigenvalues --    1.20369   1.32328   1.36389   1.50470   1.56467
 Alpha virt. eigenvalues --    1.65166   1.74248   1.94096   2.13517   3.16242
     Molecular Orbital Coefficients:
                           1         2         3         4         5
                           O         O         O         O         O
     Eigenvalues --   -19.11183 -10.18664 -10.17351 -10.13416 -10.11974
   1 1   C  1S          0.00015  -0.01113  -0.00109   0.98548   0.03205
   2        2S          0.00076  -0.00481  -0.00012   0.10953   0.00060
   3        2PX        -0.00105  -0.00045   0.00028  -0.00135   0.00009
   4        2PY         0.00072   0.00210   0.00045  -0.00104   0.00056
   5        2PZ         0.00000   0.00000   0.00001  -0.00008  -0.00002
   6        3S         -0.00352   0.03187  -0.01392  -0.09435   0.02642
   7        3PX         0.00711  -0.00199   0.00560   0.02238  -0.01781
   8        3PY         0.00618  -0.01802   0.00985   0.02112  -0.00530
   9        3PZ        -0.00002  -0.00027   0.00008   0.00051  -0.00020
  10 2   C  1S         -0.00048   0.98539   0.01556   0.01074   0.00066
  11        2S         -0.00083   0.10602  -0.00167  -0.00293  -0.00051
  12        2PX        -0.00197  -0.00235   0.00100   0.00027  -0.00016
  13        2PY        -0.00121   0.00034  -0.00079  -0.00140  -0.00118
  14        2PZ        -0.00002  -0.00003  -0.00001  -0.00003  -0.00003
  15        3S          0.01659  -0.07074   0.01499   0.03628  -0.00630
  16        3PX        -0.01488   0.00478  -0.01360  -0.00911   0.00138
  17        3PY         0.00284  -0.01682   0.01341   0.02049  -0.00102
  18        3PZ         0.00036  -0.00006   0.00018   0.00036   0.00006
  19 3   O  1S          0.98276   0.00020   0.00024   0.00009   0.00010
  20        2S          0.10751   0.00160   0.00189   0.00046   0.00047
  21        2PX         0.00100   0.00081  -0.00044  -0.00002   0.00006
  22        2PY         0.00418   0.00060   0.00088   0.00000  -0.00009
  23        2PZ        -0.00011  -0.00005  -0.00004   0.00000  -0.00002
  24        3S         -0.05956   0.00022  -0.00028  -0.00335  -0.00433
  25        3PX        -0.00302  -0.00135  -0.00020  -0.00233   0.00084
  26        3PY        -0.01340  -0.00310  -0.00305  -0.00156  -0.00261
  27        3PZ         0.00032   0.00025   0.00018  -0.00002   0.00014
  28 4   C  1S         -0.00047  -0.01676   0.98533   0.00075   0.00474
  29        2S         -0.00062  -0.00532   0.10709  -0.00044  -0.00559
  30        2PX         0.00163  -0.00115   0.00289  -0.00026  -0.00194
  31        2PY        -0.00195  -0.00031  -0.00022  -0.00096  -0.00306
  32        2PZ         0.00007   0.00012   0.00027  -0.00001   0.00002
  33        3S          0.01819   0.02233  -0.08203  -0.00945   0.05019
  34        3PX         0.01232   0.01900  -0.01587  -0.00465   0.02213
  35        3PY        -0.00556   0.00896  -0.01726  -0.00059   0.01945
  36        3PZ         0.00036  -0.00040  -0.00101  -0.00009   0.00019
  37 5   C  1S          0.00011  -0.00022  -0.00532  -0.03271   0.98540
  38        2S          0.00055   0.00003  -0.00637  -0.00685   0.11054
  39        2PX         0.00118  -0.00002   0.00219  -0.00024   0.00052
  40        2PY         0.00036   0.00055   0.00347   0.00045  -0.00198
  41        2PZ         0.00001  -0.00001   0.00006  -0.00002  -0.00010
  42        3S         -0.00333  -0.02041   0.04512   0.03508  -0.10608
  43        3PX        -0.00403   0.00040  -0.00783   0.01663  -0.00780
  44        3PY         0.00849   0.01212  -0.02224  -0.01276   0.03211
  45        3PZ        -0.00002   0.00046  -0.00022   0.00012   0.00057
  46 6   H  1S         -0.00113  -0.00037  -0.00114  -0.00023  -0.00439
  47        2S         -0.00383  -0.00168   0.00294   0.00410   0.00533
  48 7   H  1S         -0.00034   0.00137  -0.00284  -0.00012  -0.00013
  49        2S          0.00193   0.00642   0.00683  -0.00016   0.00561
  50 8   H  1S          0.00039  -0.00305   0.00128  -0.00032   0.00002
  51        2S          0.00372   0.00858   0.00720   0.00444   0.00076
  52 9   H  1S         -0.00108  -0.00082  -0.00067  -0.00467  -0.00031
  53        2S         -0.00407   0.00222  -0.00243   0.00492   0.00453
                           6         7         8         9        10
                           O         O         O         O         O
     Eigenvalues --    -1.11365  -0.80649  -0.74153  -0.60630  -0.56487
   1 1   C  1S         -0.02315  -0.11725  -0.10762  -0.12001   0.04565
   2        2S          0.02231   0.12484   0.11501   0.12238  -0.04380
   3        2PX        -0.01394  -0.06423   0.02479   0.07765   0.04670
   4        2PY        -0.02433  -0.02699  -0.07653   0.02029  -0.19462
   5        2PZ        -0.00037  -0.00224  -0.00188  -0.00162   0.00012
   6        3S          0.03179   0.23602   0.23039   0.39800  -0.16185
   7        3PX        -0.03206  -0.02352  -0.01768   0.00161   0.01146
   8        3PY        -0.02822  -0.02648  -0.00024  -0.02741  -0.08567
   9        3PZ         0.00009  -0.00138  -0.00112  -0.00211   0.00067
  10 2   C  1S         -0.07172  -0.02904  -0.15063   0.04516  -0.09786
  11        2S          0.08029   0.03574   0.16253  -0.04536   0.10880
  12        2PX        -0.08553   0.02277  -0.01286   0.06932   0.10570
  13        2PY        -0.01345   0.10345   0.03452   0.17478   0.04692
  14        2PZ         0.00071   0.00013   0.00074   0.00072  -0.00160
  15        3S          0.06572   0.03167   0.36638  -0.17971   0.29188
  16        3PX         0.03300  -0.00143  -0.01267   0.03529   0.05816
  17        3PY        -0.01517   0.02583   0.04303   0.03972   0.04441
  18        3PZ        -0.00115   0.00012   0.00022   0.00028  -0.00126
  19 3   O  1S         -0.21071   0.08738   0.01360  -0.00554   0.06636
  20        2S          0.19182  -0.08456  -0.01319   0.00640  -0.06573
  21        2PX         0.02671  -0.01981   0.18051  -0.25383  -0.03627
  22        2PY         0.10920   0.02465  -0.03935   0.06186   0.07048
  23        2PZ        -0.00275   0.00103   0.00060  -0.00081   0.00049
  24        3S          0.67169  -0.31494  -0.04979   0.02073  -0.27628
  25        3PX         0.03428  -0.02032   0.14892  -0.22101  -0.03383
  26        3PY         0.13925   0.00697  -0.03355   0.05189   0.05763
  27        3PZ        -0.00361   0.00068   0.00069  -0.00033   0.00014
  28 4   C  1S         -0.07733  -0.09134   0.13154  -0.01417  -0.09751
  29        2S          0.08673   0.10586  -0.14080   0.00844   0.10680
  30        2PX         0.07146   0.05598  -0.01431  -0.01206  -0.03791
  31        2PY        -0.05015   0.14283   0.00620  -0.22468   0.01781
  32        2PZ         0.00292   0.00297  -0.00686   0.00409   0.00771
  33        3S          0.05914   0.15238  -0.34429   0.11387   0.31666
  34        3PX        -0.03296   0.01726  -0.02625   0.02512  -0.00543
  35        3PY         0.00087   0.03631  -0.02601  -0.06218   0.04414
  36        3PZ         0.00077   0.00185  -0.00433   0.00234   0.00571
  37 5   C  1S         -0.02881  -0.16374   0.04905   0.08615   0.07551
  38        2S          0.02899   0.17516  -0.05559  -0.08762  -0.07083
  39        2PX         0.00003   0.00504   0.09425   0.12560  -0.09042
  40        2PY        -0.03638  -0.08891   0.05580   0.01018  -0.19077
  41        2PZ        -0.00020  -0.00251   0.00131   0.00443   0.00104
  42        3S          0.04555   0.32897  -0.07499  -0.30553  -0.29129
  43        3PX         0.01924   0.01582  -0.00523   0.03981  -0.02736
  44        3PY        -0.04507  -0.03919  -0.01635   0.04373  -0.06330
  45        3PZ        -0.00052  -0.00134   0.00022   0.00264   0.00101
  46 6   H  1S          0.00881   0.07248  -0.02714  -0.08819  -0.13828
  47        2S          0.01800   0.01403  -0.00060  -0.04783  -0.07964
  48 7   H  1S          0.01434   0.02273  -0.07210   0.04389   0.09448
  49        2S         -0.01296   0.00083  -0.02884   0.03586   0.05677
  50 8   H  1S          0.01108   0.00581   0.08112  -0.05590   0.11214
  51        2S         -0.02006   0.00236   0.03172  -0.03591   0.06483
  52 9   H  1S          0.00748   0.05146   0.06014   0.13380  -0.09094
  53        2S          0.01809   0.01295   0.01577   0.07554  -0.04796
                          11        12        13        14        15
                           O         O         O         O         O
     Eigenvalues --    -0.54250  -0.44909  -0.44151  -0.42064  -0.38502
   1 1   C  1S          0.01392   0.03168  -0.00267   0.02310   0.02974
   2        2S         -0.01053  -0.03234   0.00348  -0.02703  -0.02713
   3        2PX        -0.13963  -0.15871  -0.03386   0.03493   0.27195
   4        2PY        -0.09260  -0.19205  -0.04773   0.12972  -0.02158
   5        2PZ        -0.00003  -0.00993   0.10080   0.02192   0.00393
   6        3S         -0.08556  -0.11467   0.00133  -0.06485  -0.16446
   7        3PX        -0.08269  -0.11682  -0.02494   0.03471   0.16949
   8        3PY        -0.05432  -0.11123  -0.02495   0.05610   0.02209
   9        3PZ        -0.00031  -0.00679   0.07538   0.01680   0.00387
  10 2   C  1S          0.03927  -0.04202  -0.00542   0.01312  -0.02069
  11        2S         -0.04115   0.04781   0.00677  -0.01789   0.02561
  12        2PX        -0.16910   0.11095  -0.03319   0.23509  -0.06109
  13        2PY         0.11919   0.11107   0.04290  -0.16176   0.05983
  14        2PZ         0.00271  -0.01934   0.17662   0.03216   0.01041
  15        3S         -0.14888   0.13746   0.01735  -0.04616   0.08689
  16        3PX        -0.10923   0.06861  -0.02507   0.16414  -0.02053
  17        3PY         0.10551   0.06592   0.03016  -0.12217   0.13150
  18        3PZ         0.00222  -0.01840   0.17017   0.03475   0.01068
  19 3   O  1S          0.02416   0.00472   0.00032  -0.01346   0.02805
  20        2S         -0.02305  -0.00369   0.00003   0.01326  -0.03365
  21        2PX         0.04490  -0.19800   0.01552  -0.18126   0.03402
  22        2PY         0.14874   0.05782  -0.00157   0.01256   0.30918
  23        2PZ        -0.00326  -0.03934   0.36389   0.07997   0.01291
  24        3S         -0.08291  -0.02134  -0.00247   0.05618  -0.07230
  25        3PX         0.04001  -0.19224   0.01454  -0.17072   0.03694
  26        3PY         0.13719   0.05502  -0.00151   0.00992   0.32858
  27        3PZ        -0.00288  -0.03878   0.36585   0.08241   0.01263
  28 4   C  1S          0.03359   0.04676   0.00857   0.00528  -0.00550
  29        2S         -0.03502  -0.05565  -0.01159   0.00056   0.00911
  30        2PX         0.20727   0.02160  -0.05770   0.28339   0.10211
  31        2PY         0.03418  -0.19680  -0.02541   0.05436  -0.02856
  32        2PZ        -0.00649  -0.02229   0.20097   0.03609   0.00300
  33        3S         -0.12826  -0.14853  -0.02677  -0.02388   0.05043
  34        3PX         0.14409   0.02300  -0.04897   0.20419   0.10168
  35        3PY         0.06080  -0.10796  -0.01856   0.02398   0.08386
  36        3PZ        -0.00716  -0.02066   0.18731   0.03603   0.00336
  37 5   C  1S          0.01704  -0.03410   0.00047  -0.03064   0.02304
  38        2S         -0.01616   0.03167  -0.00204   0.03584  -0.02187
  39        2PX         0.10578   0.07596   0.01399   0.00066  -0.25297
  40        2PY        -0.16266   0.23451   0.04397  -0.12877   0.14311
  41        2PZ        -0.00073  -0.01094   0.12576   0.02341  -0.00213
  42        3S         -0.10455   0.13921   0.01054   0.08454  -0.16559
  43        3PX         0.07663   0.01878   0.00559   0.01850  -0.14743
  44        3PY        -0.09908   0.13000   0.01316  -0.05234   0.12807
  45        3PZ         0.00213  -0.00853   0.08769   0.01868   0.00119
  46 6   H  1S         -0.11516   0.16377   0.02144  -0.04408   0.14928
  47        2S         -0.05617   0.12338   0.02243  -0.05090   0.14247
  48 7   H  1S         -0.12838  -0.03086   0.03932  -0.19355  -0.07185
  49        2S         -0.06831  -0.01658   0.02761  -0.17237  -0.06829
  50 8   H  1S         -0.13694   0.06487  -0.03033   0.18039  -0.03987
  51        2S         -0.06975   0.04774  -0.02391   0.15864  -0.03426
  52 9   H  1S         -0.09825  -0.20121  -0.03582   0.04894   0.10412
  53        2S         -0.05204  -0.14931  -0.02833   0.04936   0.10387
                          16        17        18        19        20
                           O         O         O         V         V
     Eigenvalues --    -0.36709  -0.27682  -0.23663   0.01819   0.07686
   1 1   C  1S          0.01596   0.00149  -0.00189   0.00305  -0.00098
   2        2S         -0.01490  -0.00140   0.00235  -0.00297  -0.00027
   3        2PX        -0.13622  -0.00706  -0.00471   0.00383  -0.00773
   4        2PY         0.21956   0.00679   0.00236  -0.00339   0.00650
   5        2PZ         0.00367  -0.22312   0.26711  -0.26194  -0.27241
   6        3S         -0.11425  -0.01094   0.00391  -0.00964   0.01390
   7        3PX        -0.10898  -0.00573   0.00034  -0.00046  -0.02169
   8        3PY         0.15885   0.00761   0.00555  -0.02246   0.01849
   9        3PZ         0.00379  -0.23826   0.29211  -0.44310  -0.52534
  10 2   C  1S         -0.01214  -0.00061  -0.00056   0.00088  -0.00683
  11        2S          0.01384   0.00034   0.00003   0.00160   0.00468
  12        2PX        -0.04869  -0.00135   0.00379   0.00981  -0.00032
  13        2PY        -0.24772  -0.00512  -0.00991  -0.00508  -0.00486
  14        2PZ        -0.00771   0.00310   0.33108   0.36979   0.13571
  15        3S          0.05043   0.00502   0.00660  -0.02289   0.06026
  16        3PX        -0.00353  -0.00209   0.00214   0.02872   0.00129
  17        3PY        -0.08363   0.00081  -0.00653  -0.02383  -0.01019
  18        3PZ        -0.00632   0.03945   0.34423   0.55832   0.26670
  19 3   O  1S          0.07040   0.00110   0.00254  -0.00008   0.00420
  20        2S         -0.06861  -0.00118  -0.00279   0.00065  -0.00433
  21        2PX         0.10439   0.00234   0.00224   0.00091   0.00140
  22        2PY         0.29448   0.00985   0.00139  -0.00171  -0.00275
  23        2PZ        -0.00873   0.31666  -0.06046  -0.27196   0.07009
  24        3S         -0.28365  -0.00454  -0.01108  -0.00097  -0.02576
  25        3PX         0.10771   0.00130   0.00081   0.00560   0.00271
  26        3PY         0.31692   0.01108   0.00331  -0.00422   0.00081
  27        3PZ        -0.00984   0.35761  -0.06950  -0.37268   0.10175
  28 4   C  1S         -0.02442  -0.00292  -0.00685   0.00583  -0.01715
  29        2S          0.02512   0.00284   0.00797  -0.00327   0.01158
  30        2PX        -0.04413  -0.00704  -0.00641   0.01734  -0.03592
  31        2PY        -0.18703  -0.00598  -0.00836   0.00070  -0.01817
  32        2PZ         0.01435  -0.15647  -0.28648   0.24454  -0.29636
  33        3S          0.11683   0.01014   0.02143  -0.04017   0.15003
  34        3PX        -0.02844  -0.00833  -0.01591   0.04591  -0.10506
  35        3PY        -0.01367  -0.00172  -0.00999   0.00401  -0.04303
  36        3PZ         0.01011  -0.10148  -0.30528   0.35534  -0.57707
  37 5   C  1S          0.01014   0.00255   0.00164  -0.00351   0.00113
  38        2S         -0.01309  -0.00341  -0.00305   0.00591  -0.00465
  39        2PX         0.20181   0.01488   0.00846   0.00437  -0.00483
  40        2PY         0.07131   0.00524   0.00332  -0.00831   0.01661
  41        2PZ         0.01453  -0.31770  -0.13223  -0.08034   0.36731
  42        3S         -0.08331  -0.00826   0.00740   0.00226   0.03341
  43        3PX         0.19209   0.01540   0.00932   0.00544  -0.02314
  44        3PY         0.02674  -0.00087  -0.00683   0.00771   0.00897
  45        3PZ         0.01259  -0.33238  -0.12318  -0.15368   0.73383
  46 6   H  1S         -0.02048  -0.00096  -0.00209   0.00290  -0.01038
  47        2S          0.01113   0.00105   0.00046  -0.00002  -0.04168
  48 7   H  1S          0.10695   0.00460  -0.00263   0.01436  -0.03221
  49        2S          0.10688   0.00742  -0.00546   0.05173  -0.18436
  50 8   H  1S          0.10835   0.00326   0.00124  -0.00294  -0.00588
  51        2S          0.11551   0.00520   0.00277  -0.01399  -0.03841
  52 9   H  1S          0.02085  -0.00035  -0.00262   0.00340   0.00041
  53        2S          0.03458  -0.00083  -0.00512   0.01710  -0.01160
                          21        22        23        24        25
                           V         V         V         V         V
     Eigenvalues --     0.12869   0.14181   0.15946   0.19195   0.20024
   1 1   C  1S          0.06279  -0.05561  -0.00619  -0.04113  -0.10906
   2        2S         -0.04010   0.05210   0.00981   0.04571   0.06856
   3        2PX         0.03029  -0.00729  -0.18988   0.17358  -0.00250
   4        2PY        -0.11725   0.00473  -0.06370  -0.05776   0.16729
   5        2PZ        -0.01482  -0.01242   0.00268   0.00169  -0.01043
   6        3S         -0.69617   0.41469  -0.14566   0.35023   1.37257
   7        3PX         0.03235   0.21159  -0.58753   0.95523   0.02391
   8        3PY        -0.39357   0.16918  -0.11260  -0.05456   0.82997
   9        3PZ        -0.03664  -0.03011   0.00885   0.00188  -0.03273
  10 2   C  1S          0.04055   0.12750   0.01163   0.09266  -0.02808
  11        2S         -0.02594  -0.09525  -0.00253  -0.08031   0.00444
  12        2PX        -0.04725   0.01096  -0.28223   0.04233  -0.00039
  13        2PY         0.04304   0.17207   0.08476   0.00163  -0.10606
  14        2PZ         0.00706   0.01018   0.00734  -0.00448   0.00397
  15        3S         -0.51209  -1.17306  -0.36574  -0.86555   0.56927
  16        3PX        -0.10968  -0.22114  -0.77732  -0.10034  -0.11396
  17        3PY         0.02305   0.60673   0.21062  -0.04677  -0.15693
  18        3PZ         0.01738   0.03026   0.01784  -0.00569   0.01614
  19 3   O  1S          0.01772  -0.09537   0.03199   0.02526   0.00243
  20        2S         -0.01027   0.06933  -0.02199  -0.01572  -0.00237
  21        2PX         0.04268   0.07900  -0.11251   0.25504  -0.12226
  22        2PY        -0.08541   0.15934  -0.06392  -0.09940   0.03044
  23        2PZ         0.01910  -0.00298  -0.01050   0.00036   0.00127
  24        3S         -0.16025   0.77499  -0.27512  -0.22208  -0.01487
  25        3PX         0.06602   0.11000  -0.21918   0.44116  -0.28334
  26        3PY        -0.17246   0.26656  -0.09946  -0.17333   0.06430
  27        3PZ         0.03247  -0.00699  -0.01830  -0.00142   0.00281
  28 4   C  1S          0.05713   0.06812  -0.02949  -0.11257   0.03843
  29        2S         -0.03599  -0.05011   0.01776   0.09419  -0.00993
  30        2PX         0.27983  -0.07518  -0.15742   0.03486   0.09235
  31        2PY        -0.01743   0.14429  -0.01647  -0.18022   0.09200
  32        2PZ        -0.05650  -0.02338   0.02735   0.02353  -0.01246
  33        3S         -0.72857  -0.54260   0.23663   0.96626  -0.81259
  34        3PX         0.71432  -0.05722  -0.60044  -0.25864   0.06072
  35        3PY        -0.00852   0.43595  -0.13610  -0.37701   0.17327
  36        3PZ        -0.13634  -0.05363   0.06636   0.06047  -0.05189
  37 5   C  1S          0.00129  -0.01503   0.07956   0.02731   0.10146
  38        2S          0.01087   0.00782  -0.05889  -0.04934  -0.06264
  39        2PX         0.07952  -0.03499  -0.08354   0.14625  -0.10117
  40        2PY        -0.13964   0.04584  -0.03397  -0.03978  -0.16406
  41        2PZ         0.04167   0.01281  -0.01395  -0.00393   0.00983
  42        3S         -0.25756   0.15539  -0.72756  -0.02147  -1.25434
  43        3PX         0.25017  -0.09998  -0.25651   0.78968  -0.36365
  44        3PY        -0.31805   0.16714  -0.33850  -0.51943  -0.83804
  45        3PZ         0.11332   0.04073  -0.04811  -0.01680   0.03878
  46 6   H  1S          0.08245  -0.04489   0.02245   0.07345   0.01533
  47        2S          0.75311  -0.39935   0.61943   0.96042   1.29387
  48 7   H  1S          0.10587   0.03818  -0.06995  -0.00018  -0.02025
  49        2S          1.23182   0.39354  -0.84071  -0.80716   0.48777
  50 8   H  1S          0.02140   0.10635   0.06770  -0.01459   0.02165
  51        2S          0.40389   1.27743   1.07730   0.43936  -0.28211
  52 9   H  1S          0.06095  -0.05624   0.06036  -0.05521  -0.01553
  53        2S          0.72868  -0.56207   0.77074  -0.92354  -1.31445
                          26        27        28        29        30
                           V         V         V         V         V
     Eigenvalues --     0.22829   0.34809   0.41202   0.46020   0.65428
   1 1   C  1S         -0.06242   0.08378   0.07607   0.08012   0.06279
   2        2S          0.01996  -0.02086  -0.03224   0.00558  -0.04483
   3        2PX         0.15936   0.08181   0.27175   0.00475   0.16022
   4        2PY        -0.00775   0.22655  -0.03830   0.21886   0.20075
   5        2PZ        -0.00295   0.00107  -0.00549  -0.00151   0.00458
   6        3S          1.20315  -1.39362  -1.26061  -1.89894  -0.17521
   7        3PX         0.42606   0.24335   1.60247   1.02661  -0.07124
   8        3PY        -0.25053   1.81902   0.04809   1.48712   0.19414
   9        3PZ        -0.01535   0.01002  -0.00020   0.02720   0.00206
  10 2   C  1S          0.00834  -0.08718  -0.05223  -0.06303  -0.03358
  11        2S          0.00461   0.00962   0.01855   0.04059   0.02975
  12        2PX        -0.27298  -0.08436  -0.26154  -0.15420   0.12336
  13        2PY        -0.11512   0.31439  -0.08641  -0.04275   0.21654
  14        2PZ         0.00357   0.00981   0.00236  -0.00207  -0.01147
  15        3S         -0.49124   1.60938   0.59409   1.31492   0.32435
  16        3PX        -0.83079  -0.46523  -0.99365  -0.18555  -0.28302
  17        3PY        -0.55910   1.66444   0.03303   1.52307   0.17643
  18        3PZ         0.00773   0.03775   0.01481   0.01707   0.01650
  19 3   O  1S          0.08762   0.04421  -0.00184  -0.01011   0.00509
  20        2S         -0.04310  -0.02198  -0.00161   0.00427  -0.03644
  21        2PX        -0.08772   0.04459  -0.30910  -0.00880   0.04756
  22        2PY        -0.05297  -0.17446   0.04525   0.04080  -0.15080
  23        2PZ         0.00634  -0.00073  -0.00356  -0.00031  -0.00423
[...]
               1          2          3          4          5          6
     1  C    5.244506   0.461747  -0.069686  -0.130527   0.418126  -0.026204
     2  C    0.461747   5.092858   0.283942  -0.153694  -0.119692   0.004951
     3  O   -0.069686   0.283942   8.095579   0.288274  -0.074604   0.002309
     4  C   -0.130527  -0.153694   0.288274   5.086148   0.443214  -0.032161
     5  C    0.418126  -0.119692  -0.074604   0.443214   5.272325   0.386807
     6  H   -0.026204   0.004951   0.002309  -0.032161   0.386807   0.471268
     7  H    0.002991   0.004311  -0.030684   0.382819  -0.038426  -0.000929
     8  H   -0.039208   0.376945  -0.024053   0.004073   0.002975  -0.000028
     9  H    0.387848  -0.023522   0.001467   0.004852  -0.026975  -0.000842
               7          8          9
     1  C    0.002991  -0.039208   0.387848
     2  C    0.004311   0.376945  -0.023522
     3  O   -0.030684  -0.024053   0.001467
     4  C    0.382819   0.004073   0.004852
     5  C   -0.038426   0.002975  -0.026975
     6  H   -0.000929  -0.000028  -0.000842
     7  H    0.472305  -0.000055  -0.000030
     8  H   -0.000055   0.467857  -0.000132
     9  H   -0.000030  -0.000132   0.464759
 Mulliken charges:
               1
     1  C   -0.249593
     2  C    0.072153
     3  O   -0.472543
     4  C    0.107002
     5  C   -0.263750
     6  H    0.194830
     7  H    0.207698
     8  H    0.211627
     9  H    0.192575
 Sum of Mulliken charges =   0.00000
 Mulliken charges with hydrogens summed into heavy atoms:
               1
     1  C   -0.057018
     2  C    0.283780
     3  O   -0.472543
     4  C    0.314701
     5  C   -0.068920
 Electronic spatial extent (au):  <R**2>=            295.0771
 Charge=              0.0000 electrons
 Dipole moment (field-independent basis, Debye):
    X=              0.2414    Y=              0.8757    Z=             -0.0010  Tot=              0.9084
 Quadrupole moment (field-independent basis, Debye-Ang):
   XX=            -24.0191   YY=            -27.7018   ZZ=            -31.8524
   XY=             -0.8249   XZ=             -0.2654   YZ=             -0.0220
 Traceless Quadrupole moment (field-independent basis, Debye-Ang):
   XX=              3.8387   YY=              0.1560   ZZ=             -3.9946
   XY=             -0.8249   XZ=             -0.2654   YZ=             -0.0220
 Octapole moment (field-independent basis, Debye-Ang**2):
  XXX=             -2.2445  YYY=              2.3548  ZZZ=              0.0698  XYY=              2.6226
  XXY=             -3.4669  XXZ=              0.2955  XZZ=             -1.1051  YZZ=             -3.1486
  YYZ=             -0.1389  XYZ=              0.2013
 Hexadecapole moment (field-independent basis, Debye-Ang**3):
 XXXX=           -159.2155 YYYY=           -157.7086 ZZZZ=            -30.9514 XXXY=              3.7909
 XXXZ=             -1.5503 YYYX=             -3.4382 YYYZ=             -0.1681 ZZZX=             -0.2998
 ZZZY=             -0.1063 XXYY=            -47.7829 XXZZ=            -39.7787 YYZZ=            -34.9637
 XXYZ=             -0.1392 YYXZ=             -0.1451 ZZXY=              0.7757
 N-N= 1.593667150278D+02 E-N=-8.512462320221D+02  KE= 2.268076217036D+02
 Orbital energies and kinetic energies (alpha):
                                 1                 2
   1         O               -19.111831         28.829794
   2         O               -10.186639         15.804741
   3         O               -10.173514         15.798498
   4         O               -10.134163         15.808068
   5         O               -10.119737         15.801296
   6         O                -1.113648          2.504957
   7         O                -0.806495          1.813225
   8         O                -0.741528          1.759228
   9         O                -0.606304          1.678527
  10         O                -0.564867          1.517314
  11         O                -0.542502          1.116570
  12         O                -0.449086          1.505139
  13         O                -0.441515          1.554443
  14         O                -0.420638          1.411155
  15         O                -0.385016          1.726621
  16         O                -0.367086          1.972799
  17         O                -0.276822          1.575895
  18         O                -0.236626          1.225541
  19         V                 0.018187          1.784269
  20         V                 0.076861          1.505958
  21         V                 0.128685          1.197108
  22         V                 0.141813          1.880989
  23         V                 0.159463          1.350112
  24         V                 0.191948          1.920457
  25         V                 0.200241          1.437533
  26         V                 0.228288          1.663673
  27         V                 0.348089          1.976563
  28         V                 0.412015          2.462485
  29         V                 0.460197          1.975086
  30         V                 0.654278          2.496389
  31         V                 0.696371          2.599723
  32         V                 0.698048          2.504192
  33         V                 0.755687          2.549381
  34         V                 0.765802          2.497955
  35         V                 0.791054          2.611465
  36         V                 0.797479          2.539755
  37         V                 0.828007          2.675758
  38         V                 0.840270          2.601964
  39         V                 0.943513          2.845206
  40         V                 0.978154          3.121063
  41         V                 1.017656          3.116083
  42         V                 1.050548          3.255381
  43         V                 1.184659          2.772964
  44         V                 1.203686          2.885839
  45         V                 1.323279          2.520550
  46         V                 1.363891          2.981163
  47         V                 1.504705          4.930217
  48         V                 1.564675          3.298354
  49         V                 1.651659          4.074738
  50         V                 1.742479          4.193418
  51         V                 1.940958          4.184784
  52         V                 2.135173          4.178812
  53         V                 3.162423          6.824913
 Total kinetic energy from orbitals= 2.268076217036D+02
 No NMR shielding tensors so no spin-rotation constants.
 Leave Link  601 at Tue Dec 15 16:28:08 2015, MaxMem=    33554432 cpu:         0.1
 (Enter /home/Applications/g09/g09/l701.exe)
 Compute integral first derivatives.
 ... and contract with generalized density number  6.
 Leave Link  701 at Tue Dec 15 16:28:08 2015, MaxMem=    33554432 cpu:         0.0
 (Enter /home/Applications/g09/g09/l702.exe)
 L702 exits ... SP integral derivatives will be done elsewhere.
 Leave Link  702 at Tue Dec 15 16:28:08 2015, MaxMem=    33554432 cpu:         0.0
 (Enter /home/Applications/g09/g09/l703.exe)
 Compute integral first derivatives, UseDBF=F ICtDFT=           0.
 Integral derivatives from FoFJK, PRISM(SPDF).
 Calling FoFJK, ICntrl=  10005127 FMM=F ISym2X=0 I1Cent= 0 IOpClX= 0 NMat=1 NMatS=1 NMatT=0.
 FoFJK:  IHMeth= 1 ICntrl=10005127 DoSepK=F KAlg= 0 I1Cent=   0 FoldK=F
 IRaf=         0 NMat=   1 IRICut=       1 DoRegI=T DoRafI=F ISym2E= 0.
 FoFCou: FMM=F IPFlag=           0 FMFlag=      100000 FMFlg1=         800
         NFxFlg=           0 DoJE=F BraDBF=F KetDBF=F FulRan=T
         wScrn=  0.000000 ICntrl=10005127 IOpCl=  0 I1Cent=           0 NGrid=           0
         NMat0=    1 NMatS0=      1 NMatT0=    0 NMatD0=    1 NMtDS0=    0 NMtDT0=    0
 Symmetry not used in FoFCou.
 Leave Link  703 at Tue Dec 15 16:28:09 2015, MaxMem=    33554432 cpu:         1.1
 (Enter /home/Applications/g09/g09/l716.exe)
 Dipole        =-7.53485772D-01 5.74143432D-01-1.35322374D-02
 ***** Axes restored to original set *****
 -------------------------------------------------------------------
 Center     Atomic                   Forces (Hartrees/Bohr)
 Number     Number              X              Y              Z
 -------------------------------------------------------------------
      1        6           0.006053063    0.041839055    0.004801386
      2        6           0.007613167   -0.100744766   -0.001526988
      3        8          -0.034301914    0.043239000   -0.001303430
      4        6          -0.201950490    0.100585137    0.001516414
      5        6           0.138207879   -0.094912843    0.001715865
      6        1           0.030619910    0.027898966   -0.000623049
      7        1           0.026835530   -0.023160564   -0.003602494
      8        1           0.004420091    0.023182517   -0.000557468
      9        1           0.022502764   -0.017926502   -0.000420235
 -------------------------------------------------------------------
 Cartesian Forces:  Max     0.201950490 RMS     0.060386242
 Z-matrix is all fixed cartesians, so copy forces.
 Force constants in Cartesian coordinates: 
                1             2             3             4             5 
      1  0.874768D+00
      2 -0.877652D-01  0.685174D+00
      3  0.853347D-02 -0.418143D-02  0.165308D+00
      4 -0.422642D+00 -0.707075D-01 -0.697924D-02  0.806353D+00
      5 -0.503695D-01 -0.188604D+00 -0.153180D-02 -0.650205D-02  0.806577D+00
      6 -0.852368D-02 -0.220350D-02 -0.826150D-01  0.126190D-01  0.546979D-02
      7 -0.677036D-02  0.280645D-01  0.141191D-03 -0.262454D+00  0.145044D+00
      8 -0.490188D-02  0.203506D-01 -0.217820D-03  0.187882D+00 -0.341882D+00
      9 -0.224435D-03  0.716384D-03  0.299020D-02 -0.188975D-02  0.144395D-02
     10  0.967451D-02  0.417043D-03  0.801507D-03  0.223972D-01  0.162366D-01
     11  0.349920D-01  0.151522D-02  0.339977D-02 -0.191394D-01 -0.138744D-01
     12 -0.462853D-03  0.635191D-04  0.131157D-03  0.111670D-03  0.484439D-04
     13 -0.151207D+00  0.158987D-01 -0.113667D-02  0.768410D-02 -0.319256D-01
     14 -0.350711D-02 -0.314969D+00  0.301962D-02  0.315466D-03 -0.133435D-02
     15 -0.588872D-03  0.651342D-02 -0.630755D-01  0.149156D-04 -0.740354D-03
     16  0.165289D-01  0.679597D-03 -0.111121D-03  0.000000D+00  0.000000D+00
     17 -0.236886D-01 -0.967700D-03  0.463446D-03  0.000000D+00  0.000000D+00
     18  0.409739D-03  0.257603D-03  0.116704D-01 -0.398021D-04  0.299707D-04
     19  0.171087D-04 -0.119040D-04 -0.611387D-03  0.507656D-05  0.553487D-05
     20  0.309549D-04 -0.215379D-04 -0.110619D-02 -0.215528D-05 -0.234986D-05
     21 -0.256810D-03  0.178684D-03  0.917720D-02  0.642774D-04  0.700803D-04
     22  0.607565D-02 -0.251324D-01 -0.730971D-03 -0.147322D+00 -0.891593D-01
     23 -0.288244D-02  0.119718D-01 -0.202815D-03 -0.858882D-01 -0.285572D+00
     24 -0.277512D-03 -0.826596D-03  0.224358D-01 -0.329433D-02 -0.532463D-02
     25 -0.326445D+00  0.138557D+00  0.932191D-04 -0.402173D-02  0.166700D-01
     26  0.138092D+00 -0.214450D+00  0.357212D-03 -0.595723D-02  0.246914D-01
     27  0.139095D-02 -0.518084D-03 -0.660221D-01 -0.606698D-03  0.534549D-03
                6             7             8             9            10 
      6  0.152083D+00
      7 -0.939557D-03  0.531073D+00
      8  0.799848D-03  0.100542D-01  0.636336D+00
      9 -0.400252D-01 -0.736630D-02 -0.943312D-02  0.530524D-01
     10 -0.110541D-02 -0.293521D+00 -0.199440D+00  0.120001D-01  0.113037D+01
     11  0.999967D-03 -0.155100D+00 -0.322718D+00  0.108724D-01 -0.620479D-01
     12  0.388150D-03  0.755447D-02  0.836319D-02 -0.498322D-01  0.190918D-02
     13  0.797557D-03 -0.807490D-02  0.686881D-02 -0.830722D-03 -0.708087D+00
     14 -0.583789D-04 -0.290610D-01  0.247716D-01 -0.203293D-02  0.151268D+00
     15  0.694659D-03  0.165622D-02 -0.980777D-03  0.791549D-02 -0.228803D-01
     16  0.564676D-05  0.383979D-05 -0.100034D-04 -0.197873D-03 -0.519158D-02
     17  0.318456D-04 -0.108429D-04  0.282481D-04  0.558761D-03  0.737669D-02
     18  0.153274D-02 -0.204818D-03  0.533595D-03  0.105548D-01 -0.257277D-02
     19  0.290660D-03  0.184886D-01 -0.158706D-01 -0.203133D-02 -0.155635D+00
     20 -0.123401D-03  0.111160D-01 -0.955371D-02 -0.156840D-02  0.861917D-01
     21  0.368021D-02 -0.839377D-03  0.866580D-03  0.439194D-02  0.118305D-01
     22 -0.324423D-02  0.212532D-01  0.154170D-01  0.627233D-03 -0.175131D-05
     23 -0.507829D-02 -0.101094D-01 -0.733422D-02 -0.431743D-03  0.000000D+00
     24 -0.582205D-01  0.105100D-03  0.110907D-03  0.544020D-02  0.680342D-04
     25  0.100055D-03  0.168633D-05  0.000000D+00 -0.869319D-04  0.000000D+00
     26  0.162129D-03  0.243148D-05  0.000000D+00 -0.125345D-03 -0.107821D-05
     27  0.224817D-01 -0.106932D-03 -0.424000D-04  0.551247D-02 -0.508636D-04
               11            12            13            14            15 
     11  0.805657D+00
     12 -0.526019D-02  0.239984D+00
     13  0.128201D+00 -0.192931D-01  0.116604D+01
     14 -0.252137D+00  0.714984D-02 -0.663555D-03  0.751864D+00
     15  0.109647D-01 -0.142867D+00  0.165635D-01 -0.159671D-01  0.232809D+00
     16 -0.187768D-01  0.296256D-03 -0.329382D+00 -0.144498D+00  0.398677D-02
     17  0.268013D-01  0.584142D-03 -0.146377D+00 -0.224243D+00  0.308761D-02
     18 -0.464310D-02  0.387164D-01  0.561717D-02  0.566380D-02 -0.937312D-01
     19  0.918722D-01  0.995936D-02  0.698397D-02  0.254899D-01  0.150829D-02
     20 -0.245244D+00 -0.109396D-01  0.424499D-02  0.150756D-01 -0.253848D-02
     21 -0.164432D-01 -0.922331D-01 -0.886858D-03  0.193679D-02  0.426105D-01
     22 -0.190942D-05 -0.100272D-03  0.191229D-05 -0.143993D-05 -0.736404D-04
     23  0.000000D+00 -0.478810D-04  0.179873D-05 -0.135443D-05 -0.692677D-04
     24  0.741763D-04  0.389531D-02 -0.110385D-03  0.831191D-04  0.425084D-02
     25  0.000000D+00  0.252530D-04  0.160354D-01  0.657674D-03 -0.186892D-03
     26  0.000000D+00  0.385303D-04  0.237506D-01  0.974254D-03 -0.269758D-03
     27  0.353901D-04  0.181763D-02 -0.720537D-03  0.205259D-03  0.113933D-01
               16            17            18            19            20 
     16  0.318062D+00
     17  0.162643D+00  0.198276D+00
     18 -0.428207D-02 -0.379248D-02  0.504344D-01
     19 -0.207708D-04  0.586533D-04  0.110794D-02  0.130161D+00
     20 -0.375808D-04  0.106122D-03  0.200460D-02 -0.101544D+00  0.239639D+00
     21  0.311780D-03 -0.880413D-03 -0.166307D-01 -0.102235D-01  0.142715D-01
     22  0.000000D+00  0.000000D+00  0.000000D+00  0.000000D+00  0.000000D+00
     23  0.000000D+00  0.000000D+00  0.000000D+00  0.000000D+00  0.000000D+00
     24  0.000000D+00  0.000000D+00  0.000000D+00  0.000000D+00  0.000000D+00
     25  0.000000D+00  0.000000D+00 -0.353836D-04  0.000000D+00  0.000000D+00
     26  0.000000D+00 -0.112169D-05 -0.539873D-04  0.000000D+00  0.000000D+00
     27 -0.938265D-05 -0.529146D-04 -0.254680D-02  0.000000D+00  0.000000D+00
               21            22            23            24            25 
     21  0.490038D-01
     22  0.000000D+00  0.119995D+00
     23  0.000000D+00  0.988812D-01  0.280939D+00
     24  0.000000D+00  0.337933D-02  0.569592D-02  0.304268D-01
     25  0.000000D+00 -0.224801D-05 -0.211452D-05  0.129764D-03  0.314433D+00
     26  0.000000D+00 -0.324135D-05 -0.304888D-05  0.187104D-03 -0.155883D+00
     27  0.000000D+00  0.142549D-03  0.134085D-03 -0.822854D-02 -0.390843D-04
               26            27 
     26  0.188787D+00
     27 -0.295884D-03  0.355923D-01
 Leave Link  716 at Tue Dec 15 16:28:09 2015, MaxMem=    33554432 cpu:         0.0
 (Enter /home/Applications/g09/g09/l103.exe)

 GradGradGradGradGradGradGradGradGradGradGradGradGradGradGradGradGradGrad
 Berny optimization.
 Search for a local minimum.
 Step number   1 out of a maximum of    2
 All quantities printed in internal units (Hartrees-Bohrs-Radians)
 Second derivative matrix not updated -- first step.
 ITU=  0
     Eigenvalues ---    0.01466   0.02668   0.06880   0.07359   0.07842
     Eigenvalues ---    0.08382   0.11320   0.12712   0.14879   0.22757
     Eigenvalues ---    0.26952   0.27866   0.39207   0.43657   0.59453
     Eigenvalues ---    0.86489   1.02200   1.24271   1.29255   1.42933
     Eigenvalues ---    1.98336
 Quadratic step=3.613D-01 exceeds max=3.000D-01 adjusted using Lamda=-3.040D-02.
 Angle between NR and scaled steps=  16.97 degrees.
 Angle between quadratic step and forces=  41.22 degrees.
 Linear search not attempted -- first point.
 TrRot= -0.017732 -0.003587  0.002498  1.096083  0.000168 -1.093836
 MatCor failed.
 Variable       Old X    -DE/DX   Delta X   Delta X   Delta X     New X
                                 (Linear)    (Quad)   (Total)
    X1        1.86445   0.00605   0.00000   0.05695   0.04246   1.90690
    Y1       -1.42807   0.04184   0.00000  -0.01110  -0.01036  -1.43842
    Z1        0.06299   0.00480   0.00000   0.02449   0.02706   0.09005
    X2       -0.72817   0.00761   0.00000   0.00974  -0.00317  -0.73133
    Y2       -2.05322  -0.10074   0.00000  -0.09056  -0.09576  -2.14897
    Z2        0.00789  -0.00153   0.00000  -0.00722  -0.00434   0.00355
    X3       -2.27052  -0.03430   0.00000  -0.08094  -0.09889  -2.36941
    Y3        0.07356   0.04324   0.00000   0.02580   0.01693   0.09049
    Z3       -0.00567  -0.00130   0.00000  -0.00036   0.00231  -0.00336
    X4       -0.57332  -0.20195   0.00000  -0.13878  -0.16135  -0.73467
    Y4        2.05937   0.10059   0.00000   0.09552   0.09032   2.14969
    Z4       -0.07312   0.00152   0.00000   0.01410   0.01633  -0.05679
    X5        1.74699   0.13821   0.00000   0.06399   0.04316   1.79015
    Y5        1.41905  -0.09491   0.00000  -0.04290  -0.04242   1.37663
    Z5        0.00427   0.00172   0.00000  -0.01562  -0.01347  -0.00920
    X6        3.33947   0.03062   0.00000   0.11431   0.09079   3.43027
    Y6        2.52971   0.02790   0.00000   0.03784   0.04200   2.57171
    Z6       -0.02467  -0.00062   0.00000  -0.03013  -0.02828  -0.05295
    X7       -1.67033   0.02684   0.00000   0.03876   0.01214  -1.65819
    Y7        3.89515  -0.02316   0.00000   0.06649   0.05924   3.95439
    Z7        0.07507  -0.00360   0.00000   0.00428   0.00631   0.08138
    X8       -1.62717   0.00442   0.00000  -0.00609  -0.01495  -1.64212
    Y8       -3.94369   0.02318   0.00000  -0.00420  -0.01145  -3.95515
    Z8       -0.03849  -0.00056   0.00000  -0.02952  -0.02630  -0.06479
    X9        3.48610   0.02250   0.00000   0.10176   0.08981   3.57591
    Y9       -2.52291  -0.01793   0.00000  -0.05300  -0.04851  -2.57142
    Z9        0.06367  -0.00042   0.00000   0.01778   0.02038   0.08406
         Item               Value     Threshold  Converged?
 Maximum Force            0.201950     0.000450     NO 
 RMS     Force            0.060386     0.000300     NO 
 Maximum Displacement     0.161352     0.001800     NO 
 RMS     Displacement     0.056633     0.001200     NO 
 Predicted change in Energy=-3.678235D-02
 GradGradGradGradGradGradGradGradGradGradGradGradGradGradGradGradGradGrad

 Leave Link  103 at Tue Dec 15 16:28:09 2015, MaxMem=    33554432 cpu:         0.0
 (Enter /home/Applications/g09/g09/l9999.exe)
 1\1\GINC-DUSTIN-DESKTOP\Force\RB3LYP-FC\3-21G\C4H4O1\DUSTIN\15-Dec-201
 5\0\\#P B3LYP/3-21G CIS(Singlets,NStates=15) pop(full) force\\FuranDFT
 \\0,1\C,0.986622,-0.7557,0.033335\C,-0.385329,-1.086516,0.004177\O,-1.
 20151,0.038924,-0.002999\C,-0.303388,1.08977,-0.038696\C,0.924467,0.75
 0927,0.002261\H,1.767174,1.338667,-0.013055\H,-0.883899,2.061226,0.039
 726\H,-0.861062,-2.086912,-0.020366\H,1.844764,-1.335068,0.033694\\Ver
 sion=ES64L-G09RevD.01\State=1-A\HF=-228.7306324\RMSD=7.955e-09\RMSF=6.
 039e-02\Dipole=0.3998237,0.858692,-0.0188081\PG=C01 [X(C4H4O1)]\\@


 AN AIRPLANE IS A COLLECTION OF SPARE PARTS
 FLYING IN CLOSE FORMATION.
 Job cpu time:       0 days  0 hours  0 minutes 46.8 seconds.
 File lengths (MBytes):  RWF=     14 Int=      0 D2E=      0 Chk=      3 Scr=      1
 Normal termination of Gaussian 09 at Tue Dec 15 16:28:09 2015.
