 Entering Gaussian System, Link 0=g09
 Input=FuranAM1_32P5.com
 Output=FuranAM1_32P5.log
 Initial command:
 /home/Applications/g09/g09/l1.exe "/home/Applications/g09/scratch/Gau-7841.inp" -scrdir="/home/Applications/g09/scratch/"
 Entering Link 1 = /home/Applications/g09/g09/l1.exe PID=      7843.
  
 Copyright (c) 1988,1990,1992,1993,1995,1998,2003,2009,2013,
            Gaussian, Inc.  All Rights Reserved.
  
 This is part of the Gaussian(R) 09 program.  It is based on
 the Gaussian(R) 03 system (copyright 2003, Gaussian, Inc.),
 the Gaussian(R) 98 system (copyright 1998, Gaussian, Inc.),
 the Gaussian(R) 94 system (copyright 1995, Gaussian, Inc.),
 the Gaussian 92(TM) system (copyright 1992, Gaussian, Inc.),
 the Gaussian 90(TM) system (copyright 1990, Gaussian, Inc.),
 the Gaussian 88(TM) system (copyright 1988, Gaussian, Inc.),
 the Gaussian 86(TM) system (copyright 1986, Carnegie Mellon
 University), and the Gaussian 82(TM) system (copyright 1983,
 Carnegie Mellon University). Gaussian is a federally registered
 trademark of Gaussian, Inc.
  
 This software contains proprietary and confidential information,
 including trade secrets, belonging to Gaussian, Inc.
  
 This software is provided under written license and may be
 used, copied, transmitted, or stored only in accord with that
 written license.
  
 The following legend is applicable only to US Government
 contracts under FAR:
  
                    RESTRICTED RIGHTS LEGEND
  
 Use, reproduction and disclosure by the US Government is
 subject to restrictions as set forth in subparagraphs (a)
 and (c) of the Commercial Computer Software - Restricted
 Rights clause in FAR 52.227-19.
  
 Gaussian, Inc.
 340 Quinnipiac St., Bldg. 40, Wallingford CT 06492
  
  
 ---------------------------------------------------------------
 Warning -- This program may not be used in any manner that
 competes with the business of Gaussian, Inc. or will provide
 assistance to any competitor of Gaussian, Inc.  The licensee
 of this program is prohibited from giving any competitor of
 Gaussian, Inc. access to this program.  By using this program,
 the user acknowledges that Gaussian, Inc. is engaged in the
 business of creating and licensing software in the field of
 computational chemistry and represents and warrants to the
 licensee that it is not a competitor of Gaussian, Inc. and that
 it will not use this program in any manner prohibited above.
 ---------------------------------------------------------------
  

 Cite this work as:
 Gaussian 09, Revision D.01,
 M. J. Frisch, G. W. Trucks, H. B. Schlegel, G. E. Scuseria, 
 M. A. Robb, J. R. Cheeseman, G. Scalmani, V. Barone, B. Mennucci, 
 G. A. Petersson, H. Nakatsuji, M. Caricato, X. Li, H. P. Hratchian, 
 A. F. Izmaylov, J. Bloino, G. Zheng, J. L. Sonnenberg, M. Hada, 
 M. Ehara, K. Toyota, R. Fukuda, J. Hasegawa, M. Ishida, T. Nakajima, 
 Y. Honda, O. Kitao, H. Nakai, T. Vreven, J. A. Montgomery, Jr., 
 J. E. Peralta, F. Ogliaro, M. Bearpark, J. J. Heyd, E. Brothers, 
 K. N. Kudin, V. N. Staroverov, T. Keith, R. Kobayashi, J. Normand, 
 K. Raghavachari, A. Rendell, J. C. Burant, S. S. Iyengar, J. Tomasi, 
 M. Cossi, N. Rega, J. M. Millam, M. Klene, J. E. Knox, J. B. Cross, 
 V. Bakken, C. Adamo, J. Jaramillo, R. Gomperts, R. E. Stratmann, 
 O. Yazyev, A. J. Austin, R. Cammi, C. Pomelli, J. W. Ochterski, 
 R. L. Martin, K. Morokuma, V. G. Zakrzewski, G. A. Voth, 
 P. Salvador, J. J. Dannenberg, S. Dapprich, A. D. Daniels, 
 O. Farkas, J. B. Foresman, J. V. Ortiz, J. Cioslowski, 
 and D. J. Fox, Gaussian, Inc., Wallingford CT, 2013.
 
 ******************************************
 Gaussian 09:  ES64L-G09RevD.01 24-Apr-2013
                15-Dec-2015 
 ******************************************
 ------------------------------------------------------------
 #P AM1(Input,print) CIS(Singlets,NStates=15) pop(full) force
 ------------------------------------------------------------
 1/10=7,30=1,38=1/1,3;
 2/12=2,17=6,18=5,40=1/2;
 3/5=2,16=1,25=1,41=700000,71=1,135=100,136=1/1,2,8,3;
 4/35=1/1;
 5/5=2,35=1,38=5/2;
 8/6=1,10=1,108=15/1;
 9/15=2,41=15,42=1,48=1,49=10/14;
 10/5=4/2;
 6/7=3,18=1/1;
 7/12=6,13=5,29=1/1,2,3,16;
 1/10=7,30=1/3;
 99//99;
 Leave Link    1 at Tue Dec 15 17:05:55 2015, MaxMem=           0 cpu:         0.0
 (Enter /home/Applications/g09/g09/l101.exe)
 -----------------
 AM1-Reparam Input
 -----------------
 Symbolic Z-matrix:
 Charge =  0 Multiplicity = 1
 6                     0.92657  -0.72557   0.03778 
 6                    -0.31083  -1.05086  -0.02446 
 8                    -1.1181    0.03851  -0.03296 
 6                    -0.38889   1.12792  -0.02673 
 6                     0.9055    0.67112  -0.01147 
 1                     1.77394   1.37038   0.03757 
 1                    -0.88875   2.07877  -0.0466 
 1                    -0.86223  -2.09339  -0.01119 
 1                     1.76244  -1.32539  -0.02262 
 
 NAtoms=      9 NQM=        9 NQMF=       0 NMMI=      0 NMMIF=      0
                NMic=       0 NMicF=      0.
                    Isotopes and Nuclear Properties:
 (Nuclear quadrupole moments (NQMom) in fm**2, nuclear magnetic moments (NMagM)
  in nuclear magnetons)

  Atom         1           2           3           4           5           6           7           8           9
 IAtWgt=          12          12          16          12          12           1           1           1           1
 AtmWgt=  12.0000000  12.0000000  15.9949146  12.0000000  12.0000000   1.0078250   1.0078250   1.0078250   1.0078250
 NucSpn=           0           0           0           0           0           1           1           1           1
 AtZEff=   0.0000000   0.0000000   0.0000000   0.0000000   0.0000000   0.0000000   0.0000000   0.0000000   0.0000000
 NQMom=    0.0000000   0.0000000   0.0000000   0.0000000   0.0000000   0.0000000   0.0000000   0.0000000   0.0000000
 NMagM=    0.0000000   0.0000000   0.0000000   0.0000000   0.0000000   2.7928460   2.7928460   2.7928460   2.7928460
 AtZNuc=   6.0000000   6.0000000   8.0000000   6.0000000   6.0000000   1.0000000   1.0000000   1.0000000   1.0000000
 Leave Link  101 at Tue Dec 15 17:05:55 2015, MaxMem=    33554432 cpu:         0.0
 (Enter /home/Applications/g09/g09/l103.exe)

 GradGradGradGradGradGradGradGradGradGradGradGradGradGradGradGradGradGrad
 Berny optimization.
 Initialization pass.
 Trust Radius=3.00D-01 FncErr=1.00D-07 GrdErr=1.00D-07
 Number of steps in this run=      2 maximum allowed number of steps=      2.
 GradGradGradGradGradGradGradGradGradGradGradGradGradGradGradGradGradGrad

 Leave Link  103 at Tue Dec 15 17:05:55 2015, MaxMem=    33554432 cpu:         0.0
 (Enter /home/Applications/g09/g09/l202.exe)
                          Input orientation:                          
 ---------------------------------------------------------------------
 Center     Atomic      Atomic             Coordinates (Angstroms)
 Number     Number       Type             X           Y           Z
 ---------------------------------------------------------------------
      1          6           0        0.926574   -0.725570    0.037783
      2          6           0       -0.310833   -1.050858   -0.024459
      3          8           0       -1.118099    0.038513   -0.032963
      4          6           0       -0.388894    1.127917   -0.026730
      5          6           0        0.905500    0.671122   -0.011471
      6          1           0        1.773941    1.370376    0.037567
      7          1           0       -0.888754    2.078772   -0.046597
      8          1           0       -0.862229   -2.093394   -0.011194
      9          1           0        1.762440   -1.325387   -0.022616
 ---------------------------------------------------------------------
                    Distance matrix (angstroms):
                    1          2          3          4          5
     1  C    0.000000
     2  C    1.280962   0.000000
     3  O    2.183922   1.355906   0.000000
     4  C    2.273770   2.180174   1.310946   0.000000
     5  C    1.397719   2.108281   2.120285   1.372716   0.000000
     6  H    2.260757   3.195701   3.184765   2.177332   1.116042
     7  H    3.341687   3.182619   2.053154   1.074421   2.280802
     8  H    2.252367   1.179447   2.147317   3.255938   3.281374
     9  H    1.030583   2.091370   3.187136   3.262967   2.172675
                    6          7          8          9
     6  H    0.000000
     7  H    2.756602   0.000000
     8  H    4.353099   4.172401   0.000000
     9  H    2.696459   4.314824   2.734749   0.000000
 Stoichiometry    C4H4O
 Framework group  C1[X(C4H4O)]
 Deg. of freedom    21
 Full point group                 C1      NOp   1
 Largest Abelian subgroup         C1      NOp   1
 Largest concise Abelian subgroup C1      NOp   1
                         Standard orientation:                         
 ---------------------------------------------------------------------
 Center     Atomic      Atomic             Coordinates (Angstroms)
 Number     Number       Type             X           Y           Z
 ---------------------------------------------------------------------
      1          6           0       -1.020417    0.619512   -0.026118
      2          6           0       -0.891285   -0.654347    0.012216
      3          8           0        0.411707   -1.029125   -0.003098
      4          6           0        1.176884    0.035336   -0.000925
      5          6           0        0.295869    1.087925    0.013852
      6          1           0        0.646310    2.146935   -0.021383
      7          1           0        2.242712   -0.100238    0.002443
      8          1           0       -1.675040   -1.535533   -0.006018
      9          1           0       -1.873945    1.191277    0.055588
 ---------------------------------------------------------------------
 Rotational constants (GHZ):     10.3281232      9.2420745      4.8789736
 Leave Link  202 at Tue Dec 15 17:05:55 2015, MaxMem=    33554432 cpu:         0.0
 (Enter /home/Applications/g09/g09/l301.exe)

 Semi-emprical parameters in input format:
 Method=8 CoreType=1 PeptideFC=0.0111590000 RIJScale=0.5404210000
 ****
 H       
 PQN=1 NValence=1 F0ss=0.4980120000 ZetaOverlap=1.0856700000 U=-0.4186260000
 Beta=-0.2268830000 CoreKO=1.0354420000 KON=0,0,0,1.0458670000 KON=1,0,1,1.0879310000
 KON=0,1,1,1.0589200000 KON=2,1,1,1.0697690000 EISol=-0.4188110042 EHeat=0.0830298228
 Alpha=1.4609850000
 GCore=0.0085280000,1.5127750000,2.2676710000
 GCore=0.0003530000,1.4551640000,3.4779940000
 GCore=-0.0013010000,0.5600570000,3.5861320000
 ****
 C       
 PQN=2,2 NValence=4 F0ss=0.4494440000 F0sp=0.4215150000 F0pp=0.3497590000 F2pp=0.1898720000
 G1sp=0.2701540000
 ZetaOverlap=1.8086650000,1.3781170000
 U=-1.7687090000,-1.4557970000
 Beta=-0.5012330000,-0.3063130000 DDN=0,1,0.7474020000 DDN=1,1,0.7268010000
 CoreKO=1.1356210000 KON=0,0,0,1.0966100000 KON=1,0,1,0.8998210000 KON=0,1,1,1.1124280000
 KON=2,1,1,0.7957910000 EISol=-4.4398989268 EHeat=0.2723305520 Alpha=1.2756240000
 DipHyp=1.4947180026
 GCore=0.0007890000,1.4001430000,2.6678360000
 GCore=0.0028980000,1.4001430000,3.2840710000
 GCore=-0.0013930000,1.3017660000,3.7634120000
 GCore=-0.0000850000,1.4001430000,4.6744780000
 ****
 O       
 PQN=2,2 NValence=6 F0ss=0.5596260000 F0sp=0.5321300000 F0pp=0.4958710000 F2pp=0.2543430000
 G1sp=0.4216980000
 ZetaOverlap=2.6354490000,2.4967270000
 U=-3.3169990000,-2.0345890000
 Beta=-1.1573400000,-1.1944970000 DDN=0,1,0.4953610000 DDN=1,1,0.5082060000
 CoreKO=0.8822960000 KON=0,0,0,0.8822960000 KON=1,0,1,0.5019540000 KON=0,1,1,0.7875880000
 KON=2,1,1,0.5515580000 EISol=-11.6164441184 EHeat=0.0949133088 Alpha=2.3677360000
 DipHyp=0.9906650029
 GCore=0.0205230000,1.2640290000,1.6023330000
 GCore=0.0056550000,1.9602000000,2.7307880000
 ****
 
 Standard basis: VSTO-6G (5D, 7F)
 Ernie: Thresh=  0.10000D-02 Tol=  0.10000D-05 Strict=F.
  NNHCO=     0 NNPyr=     0 NCTC=     0               EPep=         0.000000000
    EC=        69.315958819  ECS=         2.586240125   EG=         0.399401477
   EHC=         0.000000000  EAt=       -31.051283842  AtH=         1.516354808
 EPDDG=         0.000000000  ECC=        72.301600421 EAtT=        32.567638650
 There are    24 symmetry adapted cartesian basis functions of A   symmetry.
 There are    24 symmetry adapted basis functions of A   symmetry.
    24 basis functions,   144 primitive gaussians,    24 cartesian basis functions
    13 alpha electrons       13 beta electrons
       nuclear repulsion energy       104.8692390713 Hartrees.
 IExCor=    0 DFT=F Ex=HF Corr=None ExCW=0 ScaHFX=  1.000000
 ScaDFX=  1.000000  1.000000  1.000000  1.000000 ScalE2=  1.000000  1.000000
 IRadAn=      0 IRanWt=     -1 IRanGd=            0 ICorTp=0 IEmpDi=  4
 Integral buffers will be    131072 words long.
 Regular integral format.
 Two-electron integral symmetry is turned off.
 Leave Link  301 at Tue Dec 15 17:05:55 2015, MaxMem=    33554432 cpu:         0.0
 (Enter /home/Applications/g09/g09/l302.exe)
 Do NDO integrals.
 NPDir=0 NMtPBC=     1 NCelOv=     1 NCel=       1 NClECP=     1 NCelD=      1
         NCelK=      1 NCelE2=     1 NClLst=     1 CellRange=     0.0.
 One-electron integrals computed using PRISM.
 NBasis=    24 RedAO= F EigKep=  0.00D+00  NBF=    24
 NBsUse=    24 1.00D-04 EigRej=  0.00D+00 NBFU=    24
 Leave Link  302 at Tue Dec 15 17:05:55 2015, MaxMem=    33554432 cpu:         0.0
 (Enter /home/Applications/g09/g09/l308.exe)
 Leave Link  308 at Tue Dec 15 17:05:55 2015, MaxMem=    33554432 cpu:         0.0
 (Enter /home/Applications/g09/g09/l303.exe)
 DipDrv:  MaxL=1.
 Leave Link  303 at Tue Dec 15 17:05:55 2015, MaxMem=    33554432 cpu:         0.0
 (Enter /home/Applications/g09/g09/l401.exe)
 Simple Huckel Guess.
 JPrj=0 DoOrth=F DoCkMO=F.
 Leave Link  401 at Tue Dec 15 17:05:55 2015, MaxMem=    33554432 cpu:         0.0
 (Enter /home/Applications/g09/g09/l502.exe)
 Closed shell SCF:
 Using DIIS extrapolation, IDIIS=  1040.
 Overlap will be assumed to be unity.
 Two-electron integral symmetry not used.
 Keep J ints in memory in canonical form, NReq=888082.
 IVT=       79475 IEndB=       79475 NGot=    33554432 MDV=    33473473
 LenX=    33473473 LenY=    33472456
 Requested convergence on RMS density matrix=1.00D-08 within 128 cycles.
 Requested convergence on MAX density matrix=1.00D-06.
 Requested convergence on             energy=1.00D-06.
 No special actions if energy rises.
 FoFCou: FMM=F IPFlag=           0 FMFlag=           0 FMFlg1=           0
         NFxFlg=           0 DoJE=F BraDBF=F KetDBF=F FulRan=T
         wScrn=  0.000000 ICntrl=     600 IOpCl=  2 I1Cent=           0 NGrid=           0
         NMat0=    1 NMatS0=     54 NMatT0=    0 NMatD0=    1 NMtDS0=    0 NMtDT0=    0
 Symmetry not used in FoFCou.

 Cycle   1  Pass 1  IDiag  1:
 E=  5.01214884107310    
 DIIS: error= 1.40D-01 at cycle   1 NSaved=   1.
 NSaved= 1 IEnMin= 1 EnMin=  5.01214884107310     IErMin= 1 ErrMin= 1.40D-01
 ErrMax= 1.40D-01  0.00D+00 EMaxC= 1.00D-01 BMatC= 4.16D-01 BMatP= 4.16D-01
 IDIUse=3 WtCom= 0.00D+00 WtEn= 1.00D+00
 Coeff-Com:  0.100D+01
 Coeff-En:   0.100D+01
 Coeff:      0.100D+01
 GapD=    2.000 DampG=2.000 DampE=0.250 DampFc=0.5000 IDamp=-1.
 Damping current iteration by 5.00D-01
 RMSDP=6.21D-02 MaxDP=6.87D-01              OVMax= 0.00D+00

 Cycle   2  Pass 1  IDiag  1:
 E=  4.13921343639542     Delta-E=       -0.872935404678 Rises=F Damp=T
 DIIS: error= 8.26D-02 at cycle   2 NSaved=   2.
 NSaved= 2 IEnMin= 2 EnMin=  4.13921343639542     IErMin= 2 ErrMin= 8.26D-02
 ErrMax= 8.26D-02  0.00D+00 EMaxC= 1.00D-01 BMatC= 1.56D-01 BMatP= 4.16D-01
 IDIUse=3 WtCom= 1.74D-01 WtEn= 8.26D-01
 Coeff-Com: -0.120D+01 0.220D+01
 Coeff-En:   0.000D+00 0.100D+01
 Coeff:     -0.209D+00 0.121D+01
 RMSDP=3.69D-02 MaxDP=3.60D-01 DE=-8.73D-01 OVMax= 0.00D+00

 Cycle   3  Pass 1  IDiag  1:
 E=  2.94573302667020     Delta-E=       -1.193480409725 Rises=F Damp=F
 DIIS: error= 2.30D-02 at cycle   3 NSaved=   3.
 NSaved= 3 IEnMin= 3 EnMin=  2.94573302667020     IErMin= 3 ErrMin= 2.30D-02
 ErrMax= 2.30D-02  0.00D+00 EMaxC= 1.00D-01 BMatC= 1.72D-02 BMatP= 1.56D-01
 IDIUse=3 WtCom= 7.70D-01 WtEn= 2.30D-01
 Coeff-Com:  0.498D+00-0.115D+01 0.165D+01
 Coeff-En:   0.000D+00 0.000D+00 0.100D+01
 Coeff:      0.383D+00-0.884D+00 0.150D+01
 RMSDP=1.33D-02 MaxDP=6.51D-02 DE=-1.19D+00 OVMax= 0.00D+00

 Cycle   4  Pass 1  IDiag  1:
 E=  2.87461234973223     Delta-E=       -0.071120676938 Rises=F Damp=F
 DIIS: error= 5.56D-03 at cycle   4 NSaved=   4.
 NSaved= 4 IEnMin= 4 EnMin=  2.87461234973223     IErMin= 4 ErrMin= 5.56D-03
 ErrMax= 5.56D-03  0.00D+00 EMaxC= 1.00D-01 BMatC= 1.12D-03 BMatP= 1.72D-02
 IDIUse=3 WtCom= 9.44D-01 WtEn= 5.56D-02
 Coeff-Com: -0.874D-01 0.179D+00-0.433D+00 0.134D+01
 Coeff-En:   0.000D+00 0.000D+00 0.000D+00 0.100D+01
 Coeff:     -0.826D-01 0.169D+00-0.409D+00 0.132D+01
 RMSDP=3.98D-03 MaxDP=2.33D-02 DE=-7.11D-02 OVMax= 0.00D+00

 Cycle   5  Pass 1  IDiag  3:
 E=  2.86958952048951     Delta-E=       -0.005022829243 Rises=F Damp=F
 DIIS: error= 1.06D-03 at cycle   5 NSaved=   5.
 NSaved= 5 IEnMin= 5 EnMin=  2.86958952048951     IErMin= 5 ErrMin= 1.06D-03
 ErrMax= 1.06D-03  0.00D+00 EMaxC= 1.00D-01 BMatC= 4.27D-05 BMatP= 1.12D-03
 IDIUse=3 WtCom= 9.89D-01 WtEn= 1.06D-02
 Coeff-Com:  0.192D-01-0.354D-01 0.932D-01-0.448D+00 0.137D+01
 Coeff-En:   0.000D+00 0.000D+00 0.000D+00 0.000D+00 0.100D+01
 Coeff:      0.190D-01-0.351D-01 0.922D-01-0.443D+00 0.137D+01
 Gap=     0.404 Goal=   None    Shift=    0.000
 RMSDP=8.70D-04 MaxDP=5.66D-03 DE=-5.02D-03 OVMax= 6.19D-03

 Cycle   6  Pass 1  IDiag  3:
 E=  2.86936928910778     Delta-E=       -0.000220231382 Rises=F Damp=F
 DIIS: error= 2.40D-04 at cycle   6 NSaved=   6.
 NSaved= 6 IEnMin= 6 EnMin=  2.86936928910778     IErMin= 6 ErrMin= 2.40D-04
 ErrMax= 2.40D-04  0.00D+00 EMaxC= 1.00D-01 BMatC= 2.19D-06 BMatP= 4.27D-05
 IDIUse=3 WtCom= 9.98D-01 WtEn= 2.40D-03
 Coeff-Com: -0.184D-02 0.355D-02-0.189D-01 0.125D+00-0.577D+00 0.147D+01
 Coeff-En:   0.000D+00 0.000D+00 0.000D+00 0.000D+00 0.000D+00 0.100D+01
 Coeff:     -0.184D-02 0.354D-02-0.188D-01 0.124D+00-0.576D+00 0.147D+01
 Gap=     0.405 Goal=   None    Shift=    0.000
 RMSDP=2.11D-04 MaxDP=1.38D-03 DE=-2.20D-04 OVMax= 1.37D-03

 Cycle   7  Pass 1  IDiag  3:
 E=  2.86935831793072     Delta-E=       -0.000010971177 Rises=F Damp=F
 DIIS: error= 3.24D-05 at cycle   7 NSaved=   7.
 NSaved= 7 IEnMin= 7 EnMin=  2.86935831793072     IErMin= 7 ErrMin= 3.24D-05
 ErrMax= 3.24D-05  0.00D+00 EMaxC= 1.00D-01 BMatC= 5.34D-08 BMatP= 2.19D-06
 IDIUse=1 WtCom= 1.00D+00 WtEn= 0.00D+00
 Coeff-Com:  0.146D-03-0.325D-03 0.667D-02-0.493D-01 0.240D+00-0.683D+00
 Coeff-Com:  0.149D+01
 Coeff:      0.146D-03-0.325D-03 0.667D-02-0.493D-01 0.240D+00-0.683D+00
 Coeff:      0.149D+01
 Gap=     0.405 Goal=   None    Shift=    0.000
 RMSDP=3.19D-05 MaxDP=1.88D-04 DE=-1.10D-05 OVMax= 2.63D-04

 Cycle   8  Pass 1  IDiag  3:
 E=  2.86935806168251     Delta-E=       -0.000000256248 Rises=F Damp=F
 DIIS: error= 4.10D-06 at cycle   8 NSaved=   8.
 NSaved= 8 IEnMin= 8 EnMin=  2.86935806168251     IErMin= 8 ErrMin= 4.10D-06
 ErrMax= 4.10D-06  0.00D+00 EMaxC= 1.00D-01 BMatC= 1.05D-09 BMatP= 5.34D-08
 IDIUse=1 WtCom= 1.00D+00 WtEn= 0.00D+00
 Coeff-Com: -0.169D-04-0.427D-05-0.177D-02 0.143D-01-0.721D-01 0.207D+00
 Coeff-Com: -0.488D+00 0.134D+01
 Coeff:     -0.169D-04-0.427D-05-0.177D-02 0.143D-01-0.721D-01 0.207D+00
 Coeff:     -0.488D+00 0.134D+01
 Gap=     0.405 Goal=   None    Shift=    0.000
 RMSDP=3.90D-06 MaxDP=2.61D-05 DE=-2.56D-07 OVMax= 3.22D-05

 Cycle   9  Pass 1  IDiag  3:
 E=  2.86935805716816     Delta-E=       -0.000000004514 Rises=F Damp=F
 DIIS: error= 1.01D-06 at cycle   9 NSaved=   9.
 NSaved= 9 IEnMin= 9 EnMin=  2.86935805716816     IErMin= 9 ErrMin= 1.01D-06
 ErrMax= 1.01D-06  0.00D+00 EMaxC= 1.00D-01 BMatC= 4.66D-11 BMatP= 1.05D-09
 IDIUse=1 WtCom= 1.00D+00 WtEn= 0.00D+00
 Coeff-Com:  0.838D-05-0.212D-05 0.101D-03-0.816D-03 0.425D-02-0.111D-01
 Coeff-Com:  0.254D-01-0.222D+00 0.120D+01
 Coeff:      0.838D-05-0.212D-05 0.101D-03-0.816D-03 0.425D-02-0.111D-01
 Coeff:      0.254D-01-0.222D+00 0.120D+01
 Gap=     0.405 Goal=   None    Shift=    0.000
 RMSDP=9.00D-07 MaxDP=7.04D-06 DE=-4.51D-09 OVMax= 8.43D-06

 Cycle  10  Pass 1  IDiag  3:
 E=  2.86935805693648     Delta-E=       -0.000000000232 Rises=F Damp=F
 DIIS: error= 3.13D-07 at cycle  10 NSaved=  10.
 NSaved=10 IEnMin=10 EnMin=  2.86935805693648     IErMin=10 ErrMin= 3.13D-07
 ErrMax= 3.13D-07  0.00D+00 EMaxC= 1.00D-01 BMatC= 3.24D-12 BMatP= 4.66D-11
 IDIUse=1 WtCom= 1.00D+00 WtEn= 0.00D+00
 Coeff-Com:  0.148D-05-0.463D-05-0.745D-05 0.274D-04-0.874D-04-0.331D-03
 Coeff-Com:  0.937D-03 0.428D-01-0.442D+00 0.140D+01
 Coeff:      0.148D-05-0.463D-05-0.745D-05 0.274D-04-0.874D-04-0.331D-03
 Coeff:      0.937D-03 0.428D-01-0.442D+00 0.140D+01
 Gap=     0.405 Goal=   None    Shift=    0.000
 RMSDP=2.84D-07 MaxDP=2.95D-06 DE=-2.32D-10 OVMax= 3.42D-06

 Cycle  11  Pass 1  IDiag  3:
 E=  2.86935805691731     Delta-E=       -0.000000000019 Rises=F Damp=F
 DIIS: error= 8.78D-08 at cycle  11 NSaved=  11.
 NSaved=11 IEnMin=11 EnMin=  2.86935805691731     IErMin=11 ErrMin= 8.78D-08
 ErrMax= 8.78D-08  0.00D+00 EMaxC= 1.00D-01 BMatC= 2.10D-13 BMatP= 3.24D-12
 IDIUse=1 WtCom= 1.00D+00 WtEn= 0.00D+00
 Coeff-Com: -0.612D-06 0.108D-05-0.304D-05 0.622D-04-0.387D-03 0.144D-02
 Coeff-Com: -0.348D-02-0.851D-02 0.167D+00-0.720D+00 0.156D+01
 Coeff:     -0.612D-06 0.108D-05-0.304D-05 0.622D-04-0.387D-03 0.144D-02
 Coeff:     -0.348D-02-0.851D-02 0.167D+00-0.720D+00 0.156D+01
 Gap=     0.405 Goal=   None    Shift=    0.000
 RMSDP=8.35D-08 MaxDP=8.58D-07 DE=-1.92D-11 OVMax= 1.01D-06

 Cycle  12  Pass 1  IDiag  3:
 E=  2.86935805691613     Delta-E=       -0.000000000001 Rises=F Damp=F
 DIIS: error= 1.73D-08 at cycle  12 NSaved=  12.
 NSaved=12 IEnMin=12 EnMin=  2.86935805691613     IErMin=12 ErrMin= 1.73D-08
 ErrMax= 1.73D-08  0.00D+00 EMaxC= 1.00D-01 BMatC= 1.25D-14 BMatP= 2.10D-13
 IDIUse=1 WtCom= 1.00D+00 WtEn= 0.00D+00
 Coeff-Com:  0.487D-07-0.397D-07 0.105D-05-0.341D-04 0.221D-03-0.837D-03
 Coeff-Com:  0.210D-02 0.402D-02-0.896D-01 0.404D+00-0.101D+01 0.169D+01
 Coeff:      0.487D-07-0.397D-07 0.105D-05-0.341D-04 0.221D-03-0.837D-03
 Coeff:      0.210D-02 0.402D-02-0.896D-01 0.404D+00-0.101D+01 0.169D+01
 Gap=     0.405 Goal=   None    Shift=    0.000
 RMSDP=1.93D-08 MaxDP=1.65D-07 DE=-1.18D-12 OVMax= 1.83D-07

 Cycle  13  Pass 1  IDiag  3:
 E=  2.86935805691611     Delta-E=        0.000000000000 Rises=F Damp=F
 DIIS: error= 4.02D-09 at cycle  13 NSaved=  13.
 NSaved=13 IEnMin=13 EnMin=  2.86935805691611     IErMin=13 ErrMin= 4.02D-09
 ErrMax= 4.02D-09  0.00D+00 EMaxC= 1.00D-01 BMatC= 5.06D-16 BMatP= 1.25D-14
 IDIUse=1 WtCom= 1.00D+00 WtEn= 0.00D+00
 Coeff-Com:  0.199D-07-0.380D-07-0.485D-06 0.147D-04-0.936D-04 0.357D-03
 Coeff-Com: -0.907D-03-0.165D-02 0.382D-01-0.173D+00 0.432D+00-0.830D+00
 Coeff-Com:  0.154D+01
 Coeff:      0.199D-07-0.380D-07-0.485D-06 0.147D-04-0.936D-04 0.357D-03
 Coeff:     -0.907D-03-0.165D-02 0.382D-01-0.173D+00 0.432D+00-0.830D+00
 Coeff:      0.154D+01
 Gap=     0.405 Goal=   None    Shift=    0.000
 RMSDP=3.58D-09 MaxDP=2.68D-08 DE=-1.42D-14 OVMax= 2.35D-08

 Cycle  14  Pass 2  IDiag  1:
 SCF Done:  E(RAM1) =   2.86935805692     A.U. after   14 cycles
            NFock= 13  Conv=0.36D-08     -V/T= 1.1934
 KE=-1.483621585311D+01 PE=-1.706047621422D+02 EE= 8.344109698094D+01
 Leave Link  502 at Tue Dec 15 17:05:55 2015, MaxMem=    33554432 cpu:         0.0
 (Enter /home/Applications/g09/g09/l801.exe)
 Range of M.O.s used for correlation:     1    24
 NBasis=    24 NAE=    13 NBE=    13 NFC=     0 NFV=     0
 NROrb=     24 NOA=    13 NOB=    13 NVA=    11 NVB=    11
 Leave Link  801 at Tue Dec 15 17:05:55 2015, MaxMem=    33554432 cpu:         0.0
 (Enter /home/Applications/g09/g09/l914.exe)
 RHF ground state
 MDV=    33554432 DFT=F DoStab=F Mixed=F DoRPA=F DoScal=F NonHer=F
 Making orbital integer symmetry assigments:
 Orbital symmetries:
       Occupied  (A) (A) (A) (A) (A) (A) (A) (A) (A) (A) (A) (A)
                 (A)
       Virtual   (A) (A) (A) (A) (A) (A) (A) (A) (A) (A) (A)
    60 initial guesses have been made.
 Convergence on wavefunction:    0.000001000000000
 Davidson Disk Diagonalization:  ConvIn= 1.00D-06 SkipCon=T Conv= 1.00D-06.
 Max sub-space:   240 roots to seek:    60 dimension of matrix:          286
 Iteration     1 Dimension    60 NMult     0 NNew     60
 CISAX will form    60 AO SS matrices at one time.
 NMat=    60 NSing=    60 JSym2X= 0.
 FoFJK:  IHMeth= 8 ICntrl=       0 DoSepK=F KAlg= 0 I1Cent=   0 FoldK=F
 IRaf=         1 NMat= 120 IRICut=       1 DoRegI=T DoRafI=F ISym2E= 0.
 FoFCou: FMM=F IPFlag=           0 FMFlag=      100000 FMFlg1=           0
         NFxFlg=           0 DoJE=F BraDBF=F KetDBF=F FulRan=T
         wScrn=  0.000000 ICntrl=       0 IOpCl=  0 I1Cent=           0 NGrid=           0
         NMat0=  120 NMatS0=     60 NMatT0=    0 NMatD0=  120 NMtDS0=    0 NMtDT0=    0
 Symmetry not used in FoFCou.
 New state      7 was old state      9
 New state      8 was old state     10
 New state      9 was old state      7
 New state     10 was old state      8
 New state     11 was old state     12
 New state     12 was old state     11
 New state     13 was old state     14
 New state     14 was old state     13
 New state     15 was old state     16
 Excitation Energies [eV] at current iteration:
 Root      1 :     5.379040079318345
 Root      2 :     6.156485071021601
 Root      3 :     6.608106155940926
 Root      4 :     6.673931290774157
 Root      5 :     7.601132033886032
 Root      6 :     7.793078626497397
 Root      7 :     8.055681067362148
 Root      8 :     8.527985896135110
 Root      9 :     8.724051764537203
 Root     10 :     9.112039848199652
 Root     11 :     9.136216218206441
 Root     12 :     9.356080969935062
 Root     13 :     9.571414752142125
 Root     14 :     9.683850148869640
 Root     15 :     9.905823516599298
 Root     16 :     9.959118390445328
 Root     17 :    10.089365045452410
 Root     18 :    10.188495185405200
 Root     19 :    10.569133276435740
 Root     20 :    10.895873904307780
 Root     21 :    10.967141802392910
 Root     22 :    11.134748943444240
 Root     23 :    11.358235714407390
 Root     24 :    11.503707298793400
 Root     25 :    11.703026757563880
 Root     26 :    11.896234891660000
 Root     27 :    11.948161745735310
 Root     28 :    12.109602772373590
 Root     29 :    12.218555080412960
 Root     30 :    12.378058719800850
 Root     31 :    12.589031376428190
 Root     32 :    12.712330465098520
 Root     33 :    12.887356940466180
 Root     34 :    12.936283272664710
 Root     35 :    13.131071714068320
 Root     36 :    13.243513096029900
 Root     37 :    13.414574464956700
 Root     38 :    13.588006766209770
 Root     39 :    13.810308150681310
 Root     40 :    14.003668083972710
 Root     41 :    14.079819570273450
 Root     42 :    14.142322830493700
 Root     43 :    14.298796774377760
 Root     44 :    14.461771189776360
 Root     45 :    14.477200649812490
 Root     46 :    14.702075543616060
 Root     47 :    14.848752256777380
 Root     48 :    15.329116061907980
 Root     49 :    15.381553962966830
 Root     50 :    15.415901904624730
 Root     51 :    15.696760389195390
 Root     52 :    15.830735841267580
 Root     53 :    15.984948567064200
 Root     54 :    16.430290064228980
 Root     55 :    16.621530107956160
 Root     56 :    16.972642301207830
 Root     57 :    17.049157525440660
 Root     58 :    17.261496782251110
 Root     59 :    17.409154864803470
 Root     60 :    17.731767583046950
 Iteration     2 Dimension   120 NMult    60 NNew     60
 CISAX will form    60 AO SS matrices at one time.
 NMat=    60 NSing=    60 JSym2X= 0.
 Root      1 not converged, maximum delta is    0.022563566786092
 Root      2 not converged, maximum delta is    0.014500436631151
 Root      3 not converged, maximum delta is    0.024441543232116
 Root      4 not converged, maximum delta is    0.027411831102574
 Root      5 not converged, maximum delta is    0.031739525259983
 Root      6 not converged, maximum delta is    0.021682519024973
 Root      7 not converged, maximum delta is    0.021387065634662
 Root      8 not converged, maximum delta is    0.020531630465074
 Root      9 not converged, maximum delta is    0.030700462019523
 Root     10 not converged, maximum delta is    0.051513757420084
 Root     11 not converged, maximum delta is    0.038206769530728
 Root     12 not converged, maximum delta is    0.067834874494079
 New state     13 was old state     14
 Root     13 not converged, maximum delta is    0.284503829423073
 New state     14 was old state     13
 Root     14 not converged, maximum delta is    0.162336765719738
 Root     15 not converged, maximum delta is    0.105443220173452
 Excitation Energies [eV] at current iteration:
 Root      1 :     5.303704943719923   Change is   -0.075335135598422
 Root      2 :     6.140714172833992   Change is   -0.015770898187609
 Root      3 :     6.570595853976085   Change is   -0.037510301964841
 Root      4 :     6.643705632912145   Change is   -0.030225657862013
 Root      5 :     7.553991510761792   Change is   -0.047140523124240
 Root      6 :     7.775443034826147   Change is   -0.017635591671250
 Root      7 :     8.034045112181712   Change is   -0.021635955180436
 Root      8 :     8.511003220336708   Change is   -0.016982675798402
 Root      9 :     8.671382010251531   Change is   -0.052669754285671
 Root     10 :     9.050439143751793   Change is   -0.061600704447858
 Root     11 :     9.073841979008833   Change is   -0.062374239197609
 Root     12 :     9.279549049656081   Change is   -0.076531920278981
 Root     13 :     9.404338022666058   Change is   -0.279512126203583
 Root     14 :     9.537317851500646   Change is   -0.034096900641480
 Root     15 :     9.814223440870075   Change is   -0.091600075729225
 Root     16 :     9.868806157844821   Change is   -0.090312232600507
 Root     17 :     9.979943168960972   Change is   -0.109421876491434
 Root     18 :    10.172438737117400   Change is   -0.016056448287793
 Root     19 :    10.453334559963490   Change is   -0.115798716472246
 Root     20 :    10.641560107277730   Change is   -0.254313797030057
 Root     21 :    10.798211445229040   Change is   -0.168930357163872
 Root     22 :    10.967403643309130   Change is   -0.390832071098260
 Root     23 :    11.039637955987060   Change is   -0.095110987457173
 Root     24 :    11.326232881591820   Change is   -0.177474417201579
 Root     25 :    11.633677080506620   Change is   -0.069349677057255
 Root     26 :    11.677690703038180   Change is   -0.270471042697129
 Root     27 :    11.743472920967040   Change is   -0.152761970692960
 Root     28 :    11.974100505857430   Change is   -0.135502266516165
 Root     29 :    12.031436804202820   Change is   -0.187118276210147
 Root     30 :    12.197292355370830   Change is   -0.180766364430019
 Root     31 :    12.401701855154400   Change is   -0.310628609944120
 Root     32 :    12.463717393168570   Change is   -0.125313983259616
 Root     33 :    12.741162393544890   Change is   -0.195120879119816
 Root     34 :    12.840613172856640   Change is   -0.046743767609541
 Root     35 :    12.912128222815960   Change is   -0.218943491252355
 Root     36 :    13.103687723152500   Change is   -0.139825372877406
 Root     37 :    13.191426908827800   Change is   -0.223147556128891
 Root     38 :    13.441118193474930   Change is   -0.146888572734837
 Root     39 :    13.683754742646250   Change is   -0.126553408035059
 Root     40 :    13.726452224565890   Change is   -0.572344549811867
 Root     41 :    13.853426423149010   Change is   -0.150241660823695
 Root     42 :    13.938299659158370   Change is   -0.141519911115074
 Root     43 :    13.973812675778470   Change is   -0.168510154715232
 Root     44 :    14.301722688386260   Change is   -0.160048501390106
 Root     45 :    14.431379282172090   Change is   -0.045821367640399
 Root     46 :    14.579171942586830   Change is   -0.122903601029231
 Root     47 :    14.592113359913370   Change is   -0.256638896864009
 Root     48 :    15.149961592517070   Change is   -0.231592370449762
 Root     49 :    15.255034277213160   Change is   -0.160867627411563
 Root     50 :    15.267057085869930   Change is   -0.062058976038044
 Root     51 :    15.464720827823000   Change is   -0.232039561372390
 Root     52 :    15.570487783706960   Change is   -0.260248057560621
 Root     53 :    15.860368492322650   Change is   -0.124580074741547
 Root     54 :    16.276190896675080   Change is   -0.154099167553899
 Root     55 :    16.395480052651100   Change is   -0.226050055305062
 Root     56 :    16.628394469117380   Change is   -0.344247832090449
 Root     57 :    16.725821284380470   Change is   -0.323336241060187
 Root     58 :    16.866287798662880
 Root     59 :    17.022491890297720   Change is   -0.386662974505749
 Root     60 :    17.095897214955100   Change is   -0.165599567296019
 Iteration     3 Dimension   135 NMult   120 NNew     15
 CISAX will form    15 AO SS matrices at one time.
 NMat=    15 NSing=    15 JSym2X= 0.
 Root      1 not converged, maximum delta is    0.001597304799780
 Root      2 not converged, maximum delta is    0.000078126576396
 Root      3 not converged, maximum delta is    0.000096950118528
 Root      4 not converged, maximum delta is    0.000023964825283
 Root      5 not converged, maximum delta is    0.000051916647013
 Root      6 not converged, maximum delta is    0.000091782745604
 Root      7 not converged, maximum delta is    0.000045576436193
 Root      8 not converged, maximum delta is    0.000099457786667
 Root      9 not converged, maximum delta is    0.001282892027585
 Root     10 not converged, maximum delta is    0.002255289703482
 Root     11 not converged, maximum delta is    0.001592124359872
 Root     12 not converged, maximum delta is    0.002522640378153
 Root     13 not converged, maximum delta is    0.002096371780634
 Root     14 not converged, maximum delta is    0.000576865860162
 Root     15 not converged, maximum delta is    0.000398926609688
 Excitation Energies [eV] at current iteration:
 Root      1 :     5.303402026818334   Change is   -0.000302916901589
 Root      2 :     6.140713342848143   Change is   -0.000000829985849
 Root      3 :     6.570594909287351   Change is   -0.000000944688734
 Root      4 :     6.643705427350984   Change is   -0.000000205561162
 Root      5 :     7.553990942742768   Change is   -0.000000568019024
 Root      6 :     7.775440684788226   Change is   -0.000002350037921
 Root      7 :     8.034044744548936   Change is   -0.000000367632775
 Root      8 :     8.511001380230619   Change is   -0.000001840106090
 Root      9 :     8.671079502295873   Change is   -0.000302507955658
 Root     10 :     9.050003406732611   Change is   -0.000435737019183
 Root     11 :     9.073823312465830   Change is   -0.000018666543003
 Root     12 :     9.278984355295416   Change is   -0.000564694360666
 Root     13 :     9.403681489945301   Change is   -0.000656532720756
 Root     14 :     9.537245904312401   Change is   -0.000071947188244
 Root     15 :     9.814213321266010   Change is   -0.000010119604065
 Iteration     4 Dimension   143 NMult   135 NNew      8
 CISAX will form     8 AO SS matrices at one time.
 NMat=     8 NSing=     8 JSym2X= 0.
 Root      1 not converged, maximum delta is    0.000051403919747
 Root      2 not converged, maximum delta is    0.000003311239196
 Root      3 not converged, maximum delta is    0.000002792697944
 Root      4 not converged, maximum delta is    0.000002078660646
 Root      5 not converged, maximum delta is    0.000001994004640
 Root      6 not converged, maximum delta is    0.000002888958176
 Root      7 not converged, maximum delta is    0.000001943938213
 Root      8 not converged, maximum delta is    0.000007145667882
 Root      9 not converged, maximum delta is    0.000133174666122
 Root     10 not converged, maximum delta is    0.000105166103646
 Root     11 not converged, maximum delta is    0.000025825429036
 Root     12 not converged, maximum delta is    0.000113140562543
 Root     13 not converged, maximum delta is    0.000110361866329
 Root     14 not converged, maximum delta is    0.000022492024107
 Root     15 not converged, maximum delta is    0.000008931556122
 Excitation Energies [eV] at current iteration:
 Root      1 :     5.303401248870259   Change is   -0.000000777948075
 Root      2 :     6.140713339655362   Change is   -0.000000003192780
 Root      3 :     6.570594906681395   Change is   -0.000000002605957
 Root      4 :     6.643705426268730   Change is   -0.000000001082253
 Root      5 :     7.553990941811499   Change is   -0.000000000931269
 Root      6 :     7.775440682995746   Change is   -0.000000001792480
 Root      7 :     8.034044743730950   Change is   -0.000000000817985
 Root      8 :     8.511001375014953   Change is   -0.000000005215665
 Root      9 :     8.671077918512736   Change is   -0.000001583783136
 Root     10 :     9.050000796099146   Change is   -0.000002610633463
 Root     11 :     9.073823184096947   Change is   -0.000000128368883
 Root     12 :     9.278982301741257   Change is   -0.000002053554158
 Root     13 :     9.403678589506743   Change is   -0.000002900438559
 Root     14 :     9.537245710526854   Change is   -0.000000193785547
 Root     15 :     9.814213297690140   Change is   -0.000000023575869
 Convergence achieved on expansion vectors.
 ***********************************************************************
 Excited states from <AA,BB:AA,BB> singles matrix:
 ***********************************************************************
 
 1PDM for each excited state written to RWF  633
 Ground to excited state transition densities written to RWF  633
 Ground to excited state transition electric dipole moments (Au):
       state          X           Y           Z        Dip. S.      Osc.
         1         1.4264      0.6384      0.0743      2.4478      0.3180
         2         0.0536      0.0324      0.0801      0.0103      0.0016
         3         0.0483      0.0074      0.1596      0.0279      0.0045
         4         0.0112     -0.0068     -0.0705      0.0051      0.0008
         5         0.0042     -0.0047      0.2628      0.0691      0.0128
         6         0.0067      0.0186     -0.1343      0.0184      0.0035
         7         0.0046      0.0027      0.1798      0.0323      0.0064
         8        -0.0224      0.0191      0.0903      0.0090      0.0019
         9        -0.5543      0.1798     -0.0430      0.3415      0.0725
        10        -0.2749     -0.7006      0.0562      0.5695      0.1263
        11        -0.0813     -0.1862     -0.2929      0.1271      0.0282
        12         0.6077     -0.0497      0.0119      0.3720      0.0846
        13        -0.2381     -0.5080     -0.0734      0.3202      0.0738
        14         0.0602      0.1135     -0.5199      0.2868      0.0670
        15        -0.0089     -0.0208     -0.1294      0.0173      0.0041
 Ground to excited state transition velocity dipole moments (Au):
       state          X           Y           Z        Dip. S.      Osc.
         1        -0.1626     -0.0831     -0.0023      0.0333      0.1141
         2        -0.0049     -0.0093     -0.1391      0.0195      0.0575
         3        -0.0093      0.0026     -0.1125      0.0128      0.0352
         4        -0.0041      0.0020      0.0671      0.0045      0.0124
         5        -0.0002     -0.0002     -0.0451      0.0020      0.0049
         6        -0.0043     -0.0044      0.0024      0.0000      0.0001
         7        -0.0048     -0.0046     -0.0311      0.0010      0.0023
         8         0.0039     -0.0137     -0.0448      0.0022      0.0047
         9         0.1406     -0.1304      0.0082      0.0368      0.0771
        10         0.0119      0.1591      0.0040      0.0255      0.0511
        11         0.0079      0.0368     -0.0224      0.0019      0.0038
        12        -0.0750     -0.0238     -0.0014      0.0062      0.0121
        13         0.0396      0.0208     -0.0207      0.0024      0.0047
        14        -0.0177     -0.0028     -0.0290      0.0012      0.0022
        15        -0.0007      0.0019      0.0241      0.0006      0.0011
 Ground to excited state transition magnetic dipole moments (Au):
       state          X           Y           Z
         1        -0.0107     -0.0172      0.5649
         2         0.0669     -0.2642      0.0300
         3        -0.4480      0.3916      0.0310
         4        -0.2404      0.4850      0.0156
         5        -0.6664      0.1606      0.0060
         6         0.5779      0.6031      0.0045
         7        -0.1396     -0.4888      0.0120
         8        -0.0767      0.0534      0.0172
         9        -0.0082     -0.0119      0.0038
        10         0.0389     -0.0365     -0.0303
        11        -0.1055      0.1813     -0.0340
        12        -0.0098      0.0051      0.1364
        13         0.0048     -0.0434      0.0326
        14        -0.0815     -0.1200      0.0064
        15        -0.2499      0.6640      0.0022
 Ground to excited state transition velocity quadrupole moments (Au):
       state          XX          YY          ZZ          XY          XZ          YZ
         1         0.2279     -0.2097      0.0032     -0.1892     -0.0046     -0.0157
         2         0.0079     -0.0065     -0.0031      0.0060      0.2104      0.0030
         3         0.0144      0.0176      0.0060     -0.0130     -0.0341     -0.0932
         4         0.0209      0.0121      0.0078     -0.0042      0.2154      0.1841
         5         0.0122     -0.0089     -0.0127      0.0093     -0.2284     -0.1770
         6         0.0322      0.0041      0.0032     -0.0073      0.0003     -0.1564
         7         0.0061      0.0017      0.0056     -0.0073      0.3401     -0.0326
         8         0.0229     -0.0252     -0.0003      0.0134      0.1385      0.0118
         9        -0.0800     -0.1977     -0.0104      0.1635     -0.0406      0.0085
        10        -0.3412      0.0624     -0.0519     -0.0955      0.0493      0.0371
        11        -0.0831      0.0246      0.0014     -0.0158     -0.1615     -0.1175
        12        -0.2166     -0.2379     -0.0422     -0.2587      0.0019      0.0047
        13        -0.2195      0.0636     -0.0135      0.0377      0.0562      0.0037
        14         0.0636     -0.0410     -0.0080     -0.0353      0.0494     -0.0841
        15         0.0272     -0.0381     -0.0009     -0.0222      0.0852      0.0184
 <0|del|b> * <b|rxdel|0> + <0|del|b> * <b|delr+rdel|0>
 Rotatory Strengths (R) in cgs (10**-40 erg-esu-cm/Gauss)
       state          XX          YY          ZZ    R(velocity)    E-M Angle
         1         0.3167      4.5979      1.7837      2.2328       88.98
         2        -0.8996     -5.7895      0.2947     -2.1315       93.06
         3        -1.3334      0.1422      6.2120      1.6736       88.54
         4         1.9086      2.2653      4.5915      2.9218       85.24
         5        -0.9801      0.3889      0.1334     -0.1526       90.33
         6        -3.2984     -2.2296     -7.2390     -4.2557      158.41
         7         4.3930      0.2779      1.4376      2.0362       80.93
         8        -0.2345     -0.4798     -3.3652     -1.3598      113.79
         9        -2.6296     -1.4049      4.9856      0.3170       81.42
        10       -15.0506      1.2380      2.1770     -3.8785      123.95
        11        14.5513     -1.4427      0.8724      4.6603       44.86
        12         0.1020     -0.1810      0.9542      0.2918       87.75
        13        -3.6116      0.4556      0.3173     -0.9463      121.07
        14         1.3273      1.7449      0.1543      1.0755       71.15
        15         0.6208      0.7440      1.6096      0.9915       84.92
 1/2[<0|r|b>*<b|rxdel|0> + (<0|rxdel|b>*<b|r|0>)*]
 Rotatory Strengths (R) in cgs (10**-40 erg-esu-cm/Gauss)
       state          XX          YY          ZZ     R(length)
         1        10.7453      7.7484    -29.6677     -3.7247
         2        -2.5349      6.0558     -1.7007      0.6068
         3        15.3000     -2.0478     -3.4970      3.2517
         4         1.9126      2.3308      0.7799      1.6744
         5         1.9865      0.5299     -1.1170      0.4665
         6        -2.7413     -7.9348      0.4309     -3.4151
         7         0.4583      0.9226     -1.5199     -0.0463
         8        -1.2152     -0.7205     -1.0969     -1.0109
         9        -3.2251      1.5164      0.1149     -0.5313
        10         7.5615    -18.1019      1.2056     -3.1116
        11        -6.0665     23.8729     -7.0510      3.5851
        12         4.2291      0.1794     -1.1463      1.0874
        13         0.8162    -15.6001      1.6916     -4.3641
        14         3.4668      9.6320      2.3415      5.1468
        15        -1.5724      9.7586      0.2008      2.7957
  1/2[<0|del|b>*<b|r|0> + (<0|r|b>*<b|del|0>)*] (Au)
       state          X           Y           Z        Dip. S.   Osc.(frdel)
         1        -0.2319     -0.0531     -0.0002      0.2851      0.1901
         2        -0.0003     -0.0003     -0.0111      0.0117      0.0078
         3        -0.0004      0.0000     -0.0180      0.0184      0.0123
         4         0.0000      0.0000     -0.0047      0.0048      0.0032
         5         0.0000      0.0000     -0.0119      0.0119      0.0079
         6         0.0000     -0.0001     -0.0003      0.0004      0.0003
         7         0.0000      0.0000     -0.0056      0.0056      0.0038
         8        -0.0001     -0.0003     -0.0041      0.0044      0.0029
         9        -0.0780     -0.0234     -0.0004      0.1018      0.0678
        10        -0.0033     -0.1115      0.0002      0.1145      0.0764
        11        -0.0006     -0.0068      0.0065      0.0009      0.0006
        12        -0.0456      0.0012      0.0000      0.0444      0.0296
        13        -0.0094     -0.0106      0.0015      0.0185      0.0123
        14        -0.0011     -0.0003      0.0151     -0.0137     -0.0091
        15         0.0000      0.0000     -0.0031      0.0031      0.0021

 Excitation energies and oscillator strengths:
 
 Excited State   1:      Singlet-A      5.3034 eV  233.78 nm  f=0.3180  <S**2>=0.000
      13 -> 14         0.69326
 This state for optimization and/or second-order correction.
 Total Energy, E(CIS) =   3.06425447512    
 Copying the excited state density for this state as the 1-particle RhoCI density.
 
 Excited State   2:      Singlet-A      6.1407 eV  201.91 nm  f=0.0016  <S**2>=0.000
      10 -> 15         0.12018
      13 -> 15         0.66963
      13 -> 17         0.12016
      13 -> 18         0.10061
 
 Excited State   3:      Singlet-A      6.5706 eV  188.70 nm  f=0.0045  <S**2>=0.000
      12 -> 14         0.33161
      13 -> 16         0.54990
      13 -> 17         0.21048
      13 -> 18        -0.14613
 
 Excited State   4:      Singlet-A      6.6437 eV  186.62 nm  f=0.0008  <S**2>=0.000
       9 -> 14         0.11314
      12 -> 14         0.60728
      13 -> 16        -0.30604
      13 -> 17        -0.11859
 
 Excited State   5:      Singlet-A      7.5540 eV  164.13 nm  f=0.0128  <S**2>=0.000
      11 -> 14        -0.13708
      13 -> 15        -0.12340
      13 -> 17         0.45123
      13 -> 18         0.37683
      13 -> 19        -0.11567
      13 -> 20        -0.17072
      13 -> 21         0.24396
 
 Excited State   6:      Singlet-A      7.7754 eV  159.46 nm  f=0.0035  <S**2>=0.000
      10 -> 14        -0.18757
      11 -> 14         0.64750
      13 -> 18         0.11513
      13 -> 20        -0.11969
 
 Excited State   7:      Singlet-A      8.0340 eV  154.32 nm  f=0.0064  <S**2>=0.000
      10 -> 16         0.13231
      11 -> 14         0.12587
      13 -> 16        -0.22933
      13 -> 17         0.46038
      13 -> 18        -0.28435
      13 -> 19         0.17142
      13 -> 20         0.19668
      13 -> 21        -0.20911
 
 Excited State   8:      Singlet-A      8.5110 eV  145.68 nm  f=0.0019  <S**2>=0.000
      13 -> 16         0.11548
      13 -> 18         0.31223
      13 -> 19         0.59438
 
 Excited State   9:      Singlet-A      8.6711 eV  142.99 nm  f=0.0725  <S**2>=0.000
       8 -> 15         0.11527
      10 -> 14         0.52716
      11 -> 14         0.14374
      12 -> 15         0.37311
 
 Excited State  10:      Singlet-A      9.0500 eV  137.00 nm  f=0.1263  <S**2>=0.000
       8 -> 15         0.10371
      10 -> 14        -0.35723
      11 -> 14        -0.11675
      11 -> 15         0.10462
      12 -> 15         0.45472
      12 -> 16        -0.25308
      12 -> 18         0.14230
      13 -> 20        -0.10766
 
 Excited State  11:      Singlet-A      9.0738 eV  136.64 nm  f=0.0282  <S**2>=0.000
      13 -> 18         0.33424
      13 -> 19        -0.27217
      13 -> 20         0.45207
      13 -> 21        -0.28087
 
 Excited State  12:      Singlet-A      9.2790 eV  133.62 nm  f=0.0846  <S**2>=0.000
       9 -> 16        -0.13784
      10 -> 14        -0.14271
      11 -> 16        -0.17540
      11 -> 17        -0.10253
      12 -> 15         0.12769
      12 -> 16         0.52418
      12 -> 17         0.28915
 
 Excited State  13:      Singlet-A      9.4037 eV  131.85 nm  f=0.0738  <S**2>=0.000
       9 -> 15        -0.12323
       9 -> 18        -0.12147
      11 -> 15         0.28704
      11 -> 16         0.11261
      11 -> 17         0.23785
      12 -> 15         0.18138
      12 -> 16         0.18903
      12 -> 17        -0.15443
      12 -> 18        -0.27450
      12 -> 19         0.18998
      12 -> 21        -0.14431
      13 -> 21         0.14873
 
 Excited State  14:      Singlet-A      9.5372 eV  130.00 nm  f=0.0670  <S**2>=0.000
       9 -> 14        -0.13531
      13 -> 20         0.42103
      13 -> 21         0.48775
 
 Excited State  15:      Singlet-A      9.8142 eV  126.33 nm  f=0.0041  <S**2>=0.000
       9 -> 14         0.66245
      12 -> 14        -0.11792
      13 -> 21         0.13645
 SavETr:  write IOETrn=   770 NScale= 10 NData=  16 NLR=1 NState=   15 LETran=     280.
 The selected state is a singlet
 CISAX will form     1 AO SS matrices at one time.
 NMat=     1 NSing=     1 JSym2X= 0.
 Leave Link  914 at Tue Dec 15 17:05:55 2015, MaxMem=    33554432 cpu:         0.1
 (Enter /home/Applications/g09/g09/l1002.exe)
 Minotr:  Closed shell wavefunction.
          Computing CIS/TD-HF/TD-KS derivatives.
          Using Z-Vector for PSCF gradient.
          Skipping F1 and S1 gradient terms here.
          IDoAtm=111111111
          Direct CPHF calculation.
          Differentiating once with respect to electric field.
                with respect to dipole field.
          Differentiating once with respect to nuclear coordinates.
          Electric field/nuclear overlap derivatives assumed to be zero.
          Requested convergence is 1.0D-10 RMS, and 1.0D-09 maximum.
          NewPWx=T KeepS1=F KeepF1=F KeepIn=T MapXYZ=F SortEE=F KeepMc=T.
          MDV=      33495423 using IRadAn=       0.
 Keep J ints in memory in canonical form, NReq=871704.
 FoFCou: FMM=F IPFlag=           0 FMFlag=           0 FMFlg1=           0
         NFxFlg=           0 DoJE=F BraDBF=F KetDBF=F FulRan=T
         wScrn=  0.000000 ICntrl=     600 IOpCl=  2 I1Cent=           0 NGrid=           0
         NMat0=    1 NMatS0=     54 NMatT0=    0 NMatD0=    1 NMtDS0=    0 NMtDT0=    0
 Symmetry not used in FoFCou.
          Solving linear equations separately, MaxMat=       0.
          There are     1 degrees of freedom in the 1st order CPHF.  IDoFFX=0 NUNeed=     1.
 LinEq1:  Iter=  0 NonCon=     1 RMS=8.21D-03 Max=4.94D-02 NDo=     1
 AX will form     1 AO Fock derivatives at one time.
 LinEq1:  Iter=  1 NonCon=     1 RMS=7.55D-04 Max=2.14D-03 NDo=     1
 LinEq1:  Iter=  2 NonCon=     1 RMS=1.22D-04 Max=1.05D-03 NDo=     1
 LinEq1:  Iter=  3 NonCon=     1 RMS=1.44D-05 Max=4.56D-05 NDo=     1
 LinEq1:  Iter=  4 NonCon=     1 RMS=1.89D-06 Max=9.54D-06 NDo=     1
 LinEq1:  Iter=  5 NonCon=     1 RMS=1.93D-07 Max=7.04D-07 NDo=     1
 LinEq1:  Iter=  6 NonCon=     1 RMS=2.91D-08 Max=1.03D-07 NDo=     1
 LinEq1:  Iter=  7 NonCon=     1 RMS=3.82D-09 Max=1.07D-08 NDo=     1
 LinEq1:  Iter=  8 NonCon=     1 RMS=4.77D-10 Max=1.70D-09 NDo=     1
 LinEq1:  Iter=  9 NonCon=     0 RMS=5.22D-11 Max=1.80D-10 NDo=     1
 Linear equations converged to 1.000D-10 1.000D-09 after     9 iterations.
 End of Minotr F.D. properties file   721 does not exist.
 End of Minotr F.D. properties file   722 does not exist.
 End of Minotr F.D. properties file   788 does not exist.
 Leave Link 1002 at Tue Dec 15 17:05:55 2015, MaxMem=    33554432 cpu:         0.0
 (Enter /home/Applications/g09/g09/l601.exe)
 Copying SCF densities to generalized density rwf, IOpCl= 0 IROHF=0.

 **********************************************************************

            Population analysis using the SCF density.

 **********************************************************************

 Orbital symmetries:
       Occupied  (A) (A) (A) (A) (A) (A) (A) (A) (A) (A) (A) (A)
                 (A)
       Virtual   (A) (A) (A) (A) (A) (A) (A) (A) (A) (A) (A)
 The electronic state is 1-A.
 Alpha  occ. eigenvalues --   -1.74542  -1.13945  -0.93183  -0.80287  -0.74744
 Alpha  occ. eigenvalues --   -0.65996  -0.65511  -0.54961  -0.49115  -0.43898
 Alpha  occ. eigenvalues --   -0.43471  -0.39409  -0.28877
 Alpha virt. eigenvalues --    0.11627   0.16153   0.18522   0.23936   0.26916
 Alpha virt. eigenvalues --    0.28065   0.29309   0.31034   0.39213   0.47713
 Alpha virt. eigenvalues --    0.52515
     Molecular Orbital Coefficients:
                           1         2         3         4         5
                           O         O         O         O         O
     Eigenvalues --    -1.74542  -1.13945  -0.93183  -0.80287  -0.74744
   1 1   C  1S          0.11616   0.50856  -0.21005  -0.27358  -0.12693
   2        1PX         0.11514   0.16314   0.15764   0.25513  -0.08135
   3        1PY        -0.09437  -0.04099   0.19766   0.02266  -0.40329
   4        1PZ         0.00243   0.01210  -0.00517  -0.01298  -0.00943
   5 2   C  1S          0.27379   0.23889  -0.48890   0.12430   0.40685
   6        1PX         0.28476  -0.03051   0.03501   0.36067  -0.15979
   7        1PY        -0.01445   0.35255   0.08235  -0.36420  -0.12704
   8        1PZ        -0.00442  -0.00379   0.00967  -0.00530  -0.01585
   9 3   O  1S          0.76025  -0.32856  -0.06327  -0.02138  -0.24437
  10        1PX        -0.02113  -0.06438   0.21141  -0.28023  -0.04208
  11        1PY         0.08010   0.12976   0.10711  -0.06383   0.09203
  12        1PZ         0.00047  -0.00002   0.00062   0.00058  -0.00169
  13 4   C  1S          0.29193   0.11840   0.54130  -0.16877   0.38157
  14        1PX        -0.22289  -0.18862   0.01798  -0.09203   0.19801
  15        1PY        -0.20631   0.25855   0.01863   0.51244   0.05274
  16        1PZ        -0.00015   0.00043   0.00128  -0.00084   0.00020
  17 5   C  1S          0.12628   0.44704   0.29034   0.25140  -0.12851
  18        1PX        -0.01624  -0.14855   0.23990   0.18371   0.31358
  19        1PY        -0.15505  -0.12484  -0.05024   0.07088  -0.22360
  20        1PZ        -0.00193  -0.00601  -0.00451  -0.00770   0.00119
  21 6   H  1S          0.00962   0.13044   0.14069   0.17110  -0.10929
  22 7   H  1S          0.05589  -0.01394   0.24730  -0.11802   0.27788
  23 8   H  1S          0.04669   0.02006  -0.23112   0.04062   0.27740
  24 9   H  1S          0.00995   0.17349  -0.11047  -0.22731  -0.13637
                           6         7         8         9        10
                           O         O         O         O         O
     Eigenvalues --    -0.65996  -0.65511  -0.54961  -0.49115  -0.43898
   1 1   C  1S          0.18516  -0.03289   0.11109  -0.00437  -0.01742
   2        1PX        -0.19886   0.01062   0.09459  -0.28963   0.12570
   3        1PY         0.24027  -0.02051  -0.02885  -0.28854  -0.10372
   4        1PZ         0.04922   0.40364   0.00013  -0.00448  -0.24911
   5 2   C  1S          0.08620   0.00438   0.06579  -0.12898   0.01213
   6        1PX        -0.23290   0.03581   0.52895  -0.15349  -0.07110
   7        1PY        -0.24103   0.01761   0.23649   0.44108   0.06839
   8        1PZ         0.05921   0.56051  -0.00763  -0.02692  -0.59561
   9 3   O  1S          0.22859  -0.02825  -0.02775   0.33829   0.01485
  10        1PX         0.02288  -0.00818  -0.14671   0.01959   0.03409
  11        1PY        -0.21280   0.02293  -0.04667  -0.13817  -0.01233
  12        1PZ         0.02266   0.23515   0.00104  -0.00362   0.03388
  13 4   C  1S          0.06185  -0.00263  -0.05784  -0.12837  -0.04490
  14        1PX         0.39756  -0.04087   0.59427  -0.00872   0.04166
  15        1PY         0.13454  -0.00562   0.05028   0.48662  -0.09060
  16        1PZ         0.05310   0.54778   0.00007   0.02267   0.67552
  17 5   C  1S          0.22928  -0.02006  -0.13876  -0.06563   0.04888
  18        1PX         0.04084   0.00178  -0.15004   0.39529  -0.04216
  19        1PY         0.34414  -0.04624  -0.01093  -0.06108   0.12385
  20        1PZ         0.03648   0.39474   0.00008   0.01464   0.16398
  21 6   H  1S          0.30650  -0.03967  -0.10159   0.00901   0.09809
  22 7   H  1S          0.25512  -0.02369   0.32883  -0.07484   0.00411
  23 8   H  1S          0.22887  -0.02215  -0.30649  -0.19236   0.01531
  24 9   H  1S          0.27561  -0.01502  -0.00172   0.04872  -0.13859
                          11        12        13        14        15
                           O         O         O         V         V
     Eigenvalues --    -0.43471  -0.39409  -0.28877   0.11627   0.16153
   1 1   C  1S          0.08783  -0.06090  -0.02235  -0.02973  -0.09598
   2        1PX        -0.36696  -0.36708   0.01396   0.01800   0.03472
   3        1PY         0.36266  -0.08416  -0.00402  -0.00638   0.19741
   4        1PZ        -0.08486   0.00536   0.53039   0.69310  -0.00340
   5 2   C  1S         -0.06248   0.18743  -0.00783  -0.00246  -0.19717
   6        1PX         0.23179   0.34882  -0.00266  -0.00330   0.27763
   7        1PY        -0.26511   0.10651  -0.00528   0.00205   0.42669
   8        1PZ        -0.21496  -0.00660  -0.42249  -0.23785   0.00038
   9 3   O  1S         -0.08042  -0.20783  -0.00089  -0.00010   0.01089
  10        1PX        -0.10110  -0.06407  -0.00049  -0.00055  -0.00467
  11        1PY         0.04994   0.19546  -0.00023   0.00184   0.09606
  12        1PZ         0.00521  -0.00021  -0.20301  -0.01443   0.00040
  13 4   C  1S          0.14451   0.08495   0.00097  -0.00301  -0.03154
  14        1PX        -0.13501  -0.18474   0.00191   0.00475   0.01212
  15        1PY         0.20216  -0.27785  -0.00085  -0.00312   0.04559
  16        1PZ         0.20466  -0.01036  -0.32366   0.20345  -0.00055
  17 5   C  1S         -0.12019  -0.06454   0.01629  -0.01207  -0.11028
  18        1PX         0.08471   0.29634  -0.01304   0.00465   0.07297
  19        1PY        -0.35132   0.44764   0.00197  -0.00775   0.06379
  20        1PZ         0.04854   0.00569   0.62683  -0.64750   0.00258
  21 6   H  1S         -0.28763   0.35767  -0.00548   0.00873  -0.03056
  22 7   H  1S         -0.01049  -0.09664   0.00205  -0.00508   0.01537
  23 8   H  1S         -0.02870  -0.15791   0.00304   0.00104   0.78557
  24 9   H  1S          0.41549   0.16577   0.00194   0.02338  -0.01135
                          16        17        18        19        20
                           V         V         V         V         V
     Eigenvalues --     0.18522   0.23936   0.26916   0.28065   0.29309
   1 1   C  1S         -0.08973  -0.01110  -0.00549  -0.05982   0.05452
   2        1PX        -0.10662  -0.03072   0.41950  -0.25056  -0.43380
   3        1PY         0.00109   0.29136   0.29125   0.52492  -0.09464
   4        1PZ         0.00434   0.01126  -0.00821   0.01208   0.01706
   5 2   C  1S          0.00307   0.26205   0.25175   0.32680  -0.06649
   6        1PX        -0.06695  -0.09795  -0.12701  -0.10324   0.13565
   7        1PY         0.01742   0.13770   0.10207   0.18935  -0.01856
   8        1PZ        -0.00155  -0.00612  -0.00120  -0.00945  -0.00250
   9 3   O  1S          0.01579   0.04728  -0.00547   0.01471  -0.03778
  10        1PX        -0.06464   0.00043   0.04630   0.01269   0.02947
  11        1PY         0.08814   0.00443  -0.00554   0.02452  -0.09740
  12        1PZ        -0.00046  -0.00076  -0.00600  -0.00285   0.00463
  13 4   C  1S         -0.13907   0.42240  -0.27682  -0.15086  -0.17379
  14        1PX        -0.48002   0.01023  -0.05764   0.03972   0.02640
  15        1PY         0.18788   0.26056  -0.18340  -0.07755  -0.20334
  16        1PZ         0.00377   0.00553  -0.00137  -0.00166  -0.00110
  17 5   C  1S         -0.13309  -0.13346   0.05331  -0.02899   0.61473
  18        1PX        -0.24912  -0.14787   0.56061   0.04430   0.06164
  19        1PY         0.20751   0.46823   0.10999  -0.38287   0.06536
  20        1PZ        -0.00664  -0.00751   0.00592   0.00126  -0.02314
  21 6   H  1S         -0.04521  -0.39814  -0.33574   0.33850  -0.44942
  22 7   H  1S          0.73872  -0.26483   0.17168   0.04116   0.06455
  23 8   H  1S         -0.04171  -0.10419  -0.10505  -0.08892   0.06429
  24 9   H  1S         -0.07828  -0.26358   0.22550  -0.44681  -0.30918
                          21        22        23        24
                           V         V         V         V
     Eigenvalues --     0.31034   0.39213   0.47713   0.52515
   1 1   C  1S          0.70948  -0.00490   0.06391   0.02288
   2        1PX         0.05853   0.00514  -0.03361  -0.01761
   3        1PY         0.00933   0.00175   0.01447  -0.04529
   4        1PZ         0.03902   0.03189   0.00224   0.00111
   5 2   C  1S         -0.22943   0.00190  -0.14360   0.15774
   6        1PX         0.09392  -0.00331  -0.20477   0.18623
   7        1PY        -0.22400   0.00268  -0.08124  -0.14136
   8        1PZ        -0.00120  -0.21193   0.00086  -0.00179
   9 3   O  1S         -0.02846   0.00039   0.16293   0.01105
  10        1PX         0.01348   0.01000  -0.32444   0.84824
  11        1PY        -0.06176  -0.00717   0.84173   0.32450
  12        1PZ         0.00317   0.94940   0.01036  -0.00610
  13 4   C  1S          0.01248  -0.00073  -0.13844  -0.17949
  14        1PX        -0.09979  -0.00211   0.22135   0.06660
  15        1PY         0.00006   0.00261   0.04094   0.23057
  16        1PZ        -0.00091  -0.22818  -0.00156   0.00171
  17 5   C  1S         -0.29829  -0.00166   0.06152  -0.01485
  18        1PX         0.31391   0.00037   0.03304  -0.04149
  19        1PY         0.08175  -0.00045   0.05264   0.02048
  20        1PZ         0.00200   0.01964  -0.00022  -0.00017
  21 6   H  1S          0.04535   0.00051  -0.05204  -0.00662
  22 7   H  1S          0.04696   0.00097  -0.04054  -0.01571
  23 8   H  1S          0.04018  -0.00093  -0.03295   0.00935
  24 9   H  1S         -0.40615   0.00400  -0.04563   0.00589
     Density Matrix:
                           1         2         3         4         5
   1 1   C  1S          0.93432
   2        1PX        -0.06805   1.10865
   3        1PY         0.10750  -0.06049   1.00885
   4        1PZ        -0.01430  -0.00006  -0.00185   1.03281
   5 2   C  1S          0.35420  -0.05187  -0.55449   0.01273   1.23939
   6        1PX        -0.10528   0.11489   0.17667  -0.00158   0.23623
   7        1PY         0.44874  -0.00862  -0.51676   0.01252  -0.16316
   8        1PZ        -0.01575   0.00425   0.01110   0.34377   0.00971
   9 3   O  1S          0.03084  -0.00063  -0.05448   0.00130  -0.00222
  10        1PX        -0.03007  -0.01395   0.05295  -0.00138  -0.38399
  11        1PY         0.01309   0.02008  -0.07542   0.00065   0.11989
  12        1PZ         0.00196  -0.00168   0.00324  -0.04101   0.00873
  13 4   C  1S         -0.01576  -0.01262   0.04083   0.00076   0.00449
  14        1PX         0.02818   0.01736  -0.01127   0.00140   0.00573
  15        1PY         0.04310   0.00245  -0.00084   0.00207  -0.06473
  16        1PZ         0.01188  -0.00437   0.00293  -0.26749  -0.00105
  17 5   C  1S          0.29741   0.48415   0.23963   0.02389  -0.01344
  18        1PX        -0.47671  -0.49810  -0.31401  -0.01900  -0.02859
  19        1PY        -0.11597  -0.16388   0.05048   0.00102   0.02817
  20        1PZ        -0.03923  -0.00361  -0.01415   0.89725  -0.00424
  21 6   H  1S          0.00613   0.02006  -0.00054  -0.00463   0.09292
  22 7   H  1S          0.06838   0.06418   0.01445   0.00282   0.05040
  23 8   H  1S          0.06903   0.02290  -0.08158   0.00189   0.49024
  24 9   H  1S          0.54396  -0.66964   0.44716   0.03080   0.07029
                           6         7         8         9        10
   6        1PX         1.55639
   7        1PY        -0.07607   1.35056
   8        1PZ        -0.00493   0.00635   1.79674
   9 3   O  1S          0.08518  -0.01188   0.00050   1.93649
  10        1PX        -0.45087   0.18604   0.00790   0.09220   0.33514
  11        1PY         0.22483   0.10283  -0.00238  -0.29839   0.01540
  12        1PZ         0.00830  -0.00130   0.39546  -0.00336  -0.00171
  13 4   C  1S          0.03511  -0.04501  -0.00173   0.00321   0.23541
  14        1PX         0.00200   0.01135   0.00036  -0.06515  -0.02581
  15        1PY        -0.02567   0.01391   0.00119  -0.06509  -0.30922
  16        1PZ         0.00023  -0.00011   0.00011  -0.00004   0.00160
  17 5   C  1S         -0.05529   0.03064  -0.00663   0.03041   0.01462
  18        1PX         0.00203  -0.00755   0.00277   0.03777  -0.00471
  19        1PY         0.01377  -0.01465  -0.00401  -0.04776   0.01991
  20        1PZ        -0.00030   0.00092  -0.29988  -0.00081  -0.00106
  21 6   H  1S          0.01215   0.07092   0.00290   0.01183   0.01943
  22 7   H  1S          0.05350  -0.00414  -0.00134   0.02314   0.07419
  23 8   H  1S         -0.54921  -0.56746  -0.00333   0.01320  -0.02808
  24 9   H  1S          0.04868   0.00888  -0.00097   0.01152  -0.03002
                          11        12        13        14        15
  11        1PY         0.31039
  12        1PZ         0.00155   0.19643
  13 4   C  1S          0.34840  -0.00013   1.24019
  14        1PX        -0.34348  -0.00013  -0.06443   1.40063
  15        1PY        -0.30054  -0.00331  -0.26651   0.12090   1.51775
  16        1PZ        -0.00337   0.43919  -0.00420   0.00093  -0.00365
  17 5   C  1S          0.03684  -0.00221   0.32229  -0.23106   0.39645
  18        1PX         0.05732   0.00215   0.39185  -0.12655   0.41800
  19        1PY        -0.11205  -0.00135  -0.34589   0.21809  -0.33406
  20        1PZ        -0.00037  -0.05571  -0.00377   0.00228  -0.00493
  21 6   H  1S          0.00697   0.00142   0.06403  -0.04350  -0.01880
  22 7   H  1S         -0.03408   0.00032   0.54200   0.75682  -0.03485
  23 8   H  1S         -0.07259  -0.00085   0.05657  -0.04405  -0.02945
  24 9   H  1S          0.00530  -0.00078   0.08252  -0.05352   0.05669
                          16        17        18        19        20
  16        1PZ         1.81297
  17 5   C  1S          0.00761   0.95520
  18        1PX         0.00451  -0.04059   0.97866
  19        1PY        -0.00430   0.12271   0.08206   1.12149
  20        1PZ         0.27253   0.01034  -0.00504   0.00183   1.15936
  21 6   H  1S          0.00055   0.51640   0.24038   0.78578  -0.01302
  22 7   H  1S          0.00066   0.06646   0.05535  -0.07808  -0.00023
  23 8   H  1S          0.00098   0.08968  -0.07078  -0.04219  -0.00051
  24 9   H  1S         -0.00664   0.00055  -0.03216   0.00078   0.01093
                          21        22        23        24
  21 6   H  1S          0.80869
  22 7   H  1S         -0.00631   0.68895
  23 8   H  1S          0.00175   0.01124   0.68883
  24 9   H  1S         -0.00989   0.01053  -0.00647   0.82111
    Full Mulliken population analysis:
                           1         2         3         4         5
   1 1   C  1S          0.93432
   2        1PX         0.00000   1.10865
   3        1PY         0.00000   0.00000   1.00885
   4        1PZ         0.00000   0.00000   0.00000   1.03281
   5 2   C  1S          0.00000   0.00000   0.00000   0.00000   1.23939
   6        1PX         0.00000   0.00000   0.00000   0.00000   0.00000
   7        1PY         0.00000   0.00000   0.00000   0.00000   0.00000
   8        1PZ         0.00000   0.00000   0.00000   0.00000   0.00000
   9 3   O  1S          0.00000   0.00000   0.00000   0.00000   0.00000
  10        1PX         0.00000   0.00000   0.00000   0.00000   0.00000
  11        1PY         0.00000   0.00000   0.00000   0.00000   0.00000
  12        1PZ         0.00000   0.00000   0.00000   0.00000   0.00000
  13 4   C  1S          0.00000   0.00000   0.00000   0.00000   0.00000
  14        1PX         0.00000   0.00000   0.00000   0.00000   0.00000
  15        1PY         0.00000   0.00000   0.00000   0.00000   0.00000
  16        1PZ         0.00000   0.00000   0.00000   0.00000   0.00000
  17 5   C  1S          0.00000   0.00000   0.00000   0.00000   0.00000
  18        1PX         0.00000   0.00000   0.00000   0.00000   0.00000
  19        1PY         0.00000   0.00000   0.00000   0.00000   0.00000
  20        1PZ         0.00000   0.00000   0.00000   0.00000   0.00000
  21 6   H  1S          0.00000   0.00000   0.00000   0.00000   0.00000
  22 7   H  1S          0.00000   0.00000   0.00000   0.00000   0.00000
  23 8   H  1S          0.00000   0.00000   0.00000   0.00000   0.00000
  24 9   H  1S          0.00000   0.00000   0.00000   0.00000   0.00000
                           6         7         8         9        10
   6        1PX         1.55639
   7        1PY         0.00000   1.35056
   8        1PZ         0.00000   0.00000   1.79674
   9 3   O  1S          0.00000   0.00000   0.00000   1.93649
  10        1PX         0.00000   0.00000   0.00000   0.00000   0.33514
  11        1PY         0.00000   0.00000   0.00000   0.00000   0.00000
  12        1PZ         0.00000   0.00000   0.00000   0.00000   0.00000
  13 4   C  1S          0.00000   0.00000   0.00000   0.00000   0.00000
  14        1PX         0.00000   0.00000   0.00000   0.00000   0.00000
  15        1PY         0.00000   0.00000   0.00000   0.00000   0.00000
  16        1PZ         0.00000   0.00000   0.00000   0.00000   0.00000
  17 5   C  1S          0.00000   0.00000   0.00000   0.00000   0.00000
  18        1PX         0.00000   0.00000   0.00000   0.00000   0.00000
  19        1PY         0.00000   0.00000   0.00000   0.00000   0.00000
  20        1PZ         0.00000   0.00000   0.00000   0.00000   0.00000
  21 6   H  1S          0.00000   0.00000   0.00000   0.00000   0.00000
  22 7   H  1S          0.00000   0.00000   0.00000   0.00000   0.00000
  23 8   H  1S          0.00000   0.00000   0.00000   0.00000   0.00000
  24 9   H  1S          0.00000   0.00000   0.00000   0.00000   0.00000
                          11        12        13        14        15
  11        1PY         0.31039
  12        1PZ         0.00000   0.19643
  13 4   C  1S          0.00000   0.00000   1.24019
  14        1PX         0.00000   0.00000   0.00000   1.40063
  15        1PY         0.00000   0.00000   0.00000   0.00000   1.51775
  16        1PZ         0.00000   0.00000   0.00000   0.00000   0.00000
  17 5   C  1S          0.00000   0.00000   0.00000   0.00000   0.00000
  18        1PX         0.00000   0.00000   0.00000   0.00000   0.00000
  19        1PY         0.00000   0.00000   0.00000   0.00000   0.00000
  20        1PZ         0.00000   0.00000   0.00000   0.00000   0.00000
  21 6   H  1S          0.00000   0.00000   0.00000   0.00000   0.00000
  22 7   H  1S          0.00000   0.00000   0.00000   0.00000   0.00000
  23 8   H  1S          0.00000   0.00000   0.00000   0.00000   0.00000
  24 9   H  1S          0.00000   0.00000   0.00000   0.00000   0.00000
                          16        17        18        19        20
  16        1PZ         1.81297
  17 5   C  1S          0.00000   0.95520
  18        1PX         0.00000   0.00000   0.97866
  19        1PY         0.00000   0.00000   0.00000   1.12149
  20        1PZ         0.00000   0.00000   0.00000   0.00000   1.15936
  21 6   H  1S          0.00000   0.00000   0.00000   0.00000   0.00000
  22 7   H  1S          0.00000   0.00000   0.00000   0.00000   0.00000
  23 8   H  1S          0.00000   0.00000   0.00000   0.00000   0.00000
  24 9   H  1S          0.00000   0.00000   0.00000   0.00000   0.00000
                          21        22        23        24
  21 6   H  1S          0.80869
  22 7   H  1S          0.00000   0.68895
  23 8   H  1S          0.00000   0.00000   0.68883
  24 9   H  1S          0.00000   0.00000   0.00000   0.82111
     Gross orbital populations:
                           1
   1 1   C  1S          0.93432
   2        1PX         1.10865
   3        1PY         1.00885
   4        1PZ         1.03281
   5 2   C  1S          1.23939
   6        1PX         1.55639
   7        1PY         1.35056
   8        1PZ         1.79674
   9 3   O  1S          1.93649
  10        1PX         0.33514
  11        1PY         0.31039
  12        1PZ         0.19643
  13 4   C  1S          1.24019
  14        1PX         1.40063
  15        1PY         1.51775
  16        1PZ         1.81297
  17 5   C  1S          0.95520
  18        1PX         0.97866
  19        1PY         1.12149
  20        1PZ         1.15936
  21 6   H  1S          0.80869
  22 7   H  1S          0.68895
  23 8   H  1S          0.68883
  24 9   H  1S          0.82111
          Condensed to atoms (all electrons):
               1          2          3          4          5          6
     1  C    4.084629   0.000000   0.000000   0.000000   0.000000   0.000000
     2  C    0.000000   5.943079   0.000000   0.000000   0.000000   0.000000
     3  O    0.000000   0.000000   2.778458   0.000000   0.000000   0.000000
     4  C    0.000000   0.000000   0.000000   5.971552   0.000000   0.000000
     5  C    0.000000   0.000000   0.000000   0.000000   4.214710   0.000000
     6  H    0.000000   0.000000   0.000000   0.000000   0.000000   0.808689
     7  H    0.000000   0.000000   0.000000   0.000000   0.000000   0.000000
     8  H    0.000000   0.000000   0.000000   0.000000   0.000000   0.000000
     9  H    0.000000   0.000000   0.000000   0.000000   0.000000   0.000000
               7          8          9
     1  C    0.000000   0.000000   0.000000
     2  C    0.000000   0.000000   0.000000
     3  O    0.000000   0.000000   0.000000
     4  C    0.000000   0.000000   0.000000
     5  C    0.000000   0.000000   0.000000
     6  H    0.000000   0.000000   0.000000
     7  H    0.688946   0.000000   0.000000
     8  H    0.000000   0.688826   0.000000
     9  H    0.000000   0.000000   0.821111
 Mulliken charges:
               1
     1  C   -0.084629
     2  C   -1.943079
     3  O    3.221542
     4  C   -1.971552
     5  C   -0.214710
     6  H    0.191311
     7  H    0.311054
     8  H    0.311174
     9  H    0.178889
 Sum of Mulliken charges =   0.00000
 Mulliken charges with hydrogens summed into heavy atoms:
               1
     1  C    0.094260
     2  C   -1.631906
     3  O    3.221542
     4  C   -1.660498
     5  C   -0.023399
 Charge=              0.0000 electrons
 Dipole moment (field-independent basis, Debye):
    X=              3.0126    Y=             -9.4651    Z=             -0.1315  Tot=              9.9338
 N-N= 1.048692390713D+02 E-N=-1.706047621257D+02  KE=-1.483621585311D+01
 Orbital energies and kinetic energies (alpha):
                                 1                 2
   1         O                -1.745419         -1.259225
   2         O                -1.139455         -0.995104
   3         O                -0.931833         -0.845431
   4         O                -0.802874         -0.597917
   5         O                -0.747437         -0.672481
   6         O                -0.659956         -0.567990
   7         O                -0.655112         -0.536236
   8         O                -0.549608         -0.400324
   9         O                -0.491146         -0.271651
  10         O                -0.438984         -0.335180
  11         O                -0.434711         -0.397762
  12         O                -0.394089         -0.277555
  13         O                -0.288768         -0.261251
  14         V                 0.116267         -0.167662
  15         V                 0.161533         -0.222830
  16         V                 0.185224         -0.193891
  17         V                 0.239360         -0.157849
  18         V                 0.269156         -0.119576
  19         V                 0.280651         -0.130014
  20         V                 0.293090         -0.153819
  21         V                 0.310344         -0.135926
  22         V                 0.392125          0.493611
  23         V                 0.477129          0.523257
  24         V                 0.525154          0.586821
 Total kinetic energy from orbitals=-1.483621585311D+01
 Leave Link  601 at Tue Dec 15 17:05:55 2015, MaxMem=    33554432 cpu:         0.0
 (Enter /home/Applications/g09/g09/l701.exe)
 Compute integral first derivatives.
 ... and contract with generalized density number  6.
 Leave Link  701 at Tue Dec 15 17:05:55 2015, MaxMem=    33554432 cpu:         0.0
 (Enter /home/Applications/g09/g09/l702.exe)
 L702 exits ... SP integral derivatives will be done elsewhere.
 Leave Link  702 at Tue Dec 15 17:05:55 2015, MaxMem=    33554432 cpu:         0.0
 (Enter /home/Applications/g09/g09/l703.exe)
 Compute integral first derivatives, UseDBF=F ICtDFT=           0.
 Integral derivatives from FoFJK, PRISM(SPDF).
 Calling FoFJK, ICntrl=  10005127 FMM=F ISym2X=0 I1Cent= 0 IOpClX= 0 NMat=1 NMatS=1 NMatT=0.
 FoFJK:  IHMeth= 8 ICntrl=10005127 DoSepK=F KAlg= 0 I1Cent=   0 FoldK=F
 IRaf=         0 NMat=   1 IRICut=       1 DoRegI=T DoRafI=F ISym2E= 0.
 FoFCou: FMM=F IPFlag=           0 FMFlag=      100000 FMFlg1=         800
         NFxFlg=           0 DoJE=F BraDBF=F KetDBF=F FulRan=T
         wScrn=  0.000000 ICntrl=10005127 IOpCl=  0 I1Cent=           0 NGrid=           0
         NMat0=    1 NMatS0=      1 NMatT0=    0 NMatD0=    1 NMtDS0=    0 NMtDT0=    0
 Symmetry not used in FoFCou.
 Leave Link  703 at Tue Dec 15 17:05:55 2015, MaxMem=    33554432 cpu:         0.0
 (Enter /home/Applications/g09/g09/l716.exe)
 Dipole        = 1.32507049D+00-4.10283825D+00-2.57402585D-02
 ***** Axes restored to original set *****
 -------------------------------------------------------------------
 Center     Atomic                   Forces (Hartrees/Bohr)
 Number     Number              X              Y              Z
 -------------------------------------------------------------------
      1        6           0.257616465   -0.038025045    0.014421987
      2        6          -0.392304767   -0.222072581   -0.007268234
      3        8          -0.014688553   -0.030191827   -0.001227727
      4        6          -0.205816871    0.135097205   -0.007113621
      5        6           0.207396450    0.134013439    0.006563003
      6        1           0.038221202    0.027027452   -0.000601762
      7        1          -0.007441325    0.078979979   -0.000439947
      8        1           0.016633727   -0.013810489   -0.001856161
      9        1           0.100383672   -0.071018133   -0.002477538
 -------------------------------------------------------------------
 Cartesian Forces:  Max     0.392304767 RMS     0.124451687
 Z-matrix is all fixed cartesians, so copy forces.
 Force constants in Cartesian coordinates: 
                1             2             3             4             5 
      1  0.116000D+01
      2 -0.227313D-01  0.889017D+00
      3  0.145346D-01  0.303560D-02  0.269069D+00
      4 -0.691286D+00 -0.143536D+00 -0.298999D-01  0.108797D+01
      5 -0.115993D+00 -0.239449D+00 -0.858903D-02  0.174074D-01  0.836578D+00
      6 -0.339721D-01 -0.804587D-02 -0.135611D+00  0.308603D-01  0.494627D-02
      7 -0.820891D-02  0.311812D-01  0.294440D-03 -0.293472D+00  0.169004D+00
      8 -0.609563D-02  0.231348D-01  0.269413D-03  0.218163D+00 -0.385120D+00
      9 -0.160168D-02  0.366921D-02  0.773536D-02 -0.100658D-02 -0.813217D-03
     10  0.121467D-01  0.179692D-03 -0.317468D-04  0.262950D-01  0.194880D-01
     11  0.343420D-01  0.513412D-03 -0.139999D-03 -0.175928D-01 -0.130489D-01
     12 -0.228300D-02  0.144269D-03 -0.221499D-02  0.173963D-03 -0.144547D-03
     13 -0.174780D+00  0.172345D-01 -0.736301D-03  0.976850D-02 -0.376603D-01
     14 -0.736780D-02 -0.459174D+00  0.153482D-01  0.172023D-03 -0.678593D-03
     15 -0.136476D-02  0.188153D-01 -0.922344D-01  0.741361D-03 -0.313244D-02
     16  0.177530D-01  0.268786D-03  0.260918D-04  0.267265D-04 -0.154811D-04
     17 -0.222521D-01 -0.387605D-03 -0.147040D-02 -0.108381D-04  0.627784D-05
     18  0.290503D-02  0.766938D-03  0.205050D-01 -0.318769D-03  0.184644D-03
     19  0.000000D+00 -0.136894D-05 -0.388079D-04  0.142285D-05  0.000000D+00
     20  0.000000D+00  0.455688D-05  0.129183D-03  0.000000D+00  0.000000D+00
     21  0.472516D-05  0.252540D-03  0.715923D-02 -0.638876D-04  0.465386D-05
     22  0.662138D-02 -0.251181D-01 -0.365075D-03 -0.134186D+00 -0.712692D-01
     23 -0.351012D-02  0.132272D-01  0.655458D-03 -0.677253D-01 -0.224531D+00
     24 -0.635110D-03 -0.453728D-02  0.363390D-01  0.203261D-02  0.468867D-02
     25 -0.322244D+00  0.142522D+00  0.162167D-01 -0.511734D-02  0.190387D-01
     26  0.143608D+00 -0.226887D+00 -0.923838D-02 -0.687753D-02  0.262437D-01
     27  0.224123D-01 -0.141007D-01 -0.110747D+00 -0.251904D-02  0.285499D-02
                6             7             8             9            10 
      6  0.228422D+00
      7 -0.294050D-02  0.581102D+00
      8  0.196533D-02  0.399295D-01  0.833619D+00
      9 -0.556605D-01  0.560703D-02 -0.143249D-03  0.668105D-01
     10  0.324712D-03 -0.311945D+00 -0.258281D+00 -0.315731D-02  0.918526D+00
     11 -0.360881D-03 -0.211464D+00 -0.476043D+00 -0.190415D-02  0.115045D-01
     12 -0.166149D-02 -0.268684D-02 -0.185782D-02 -0.497079D-01  0.973584D-02
     13  0.265934D-02 -0.107727D-01  0.719221D-02  0.259240D-03 -0.466400D+00
     14  0.119789D-03 -0.304810D-01  0.204128D-01 -0.769533D-05  0.117500D+00
     15 -0.221515D-02  0.182992D-04  0.230354D-03  0.805124D-02 -0.375458D-02
     16 -0.450431D-03  0.161252D-05  0.000000D+00 -0.144371D-03 -0.608459D-02
     17  0.182658D-03  0.244889D-05  0.000000D+00 -0.219253D-03  0.756480D-02
     18  0.537233D-02 -0.634768D-04  0.997279D-05  0.568317D-02 -0.114382D-03
     19 -0.148345D-03  0.233858D-01 -0.156573D-01  0.647134D-03 -0.172538D+00
     20  0.611867D-04  0.122996D-01 -0.823524D-02  0.413067D-03  0.102045D+00
     21  0.666088D-02  0.276910D-03 -0.205308D-03  0.348769D-02 -0.295965D-02
     22  0.143135D-02  0.199022D-01  0.147450D-01 -0.426980D-03  0.000000D+00
     23  0.155637D-02 -0.105270D-01 -0.779884D-02  0.270129D-03  0.000000D+00
     24 -0.804672D-01 -0.624877D-04 -0.191266D-04  0.348168D-02 -0.465252D-04
     25  0.223571D-02  0.773266D-05  0.435256D-05 -0.176477D-03  0.000000D+00
     26 -0.424848D-03  0.554214D-04  0.311956D-04 -0.126484D-02  0.000000D+00
     27  0.351593D-01 -0.443372D-03 -0.249565D-03  0.101188D-01  0.363936D-05
               11            12            13            14            15 
     11  0.996156D+00
     12 -0.490172D-02  0.203221D+00
     13  0.911374D-01 -0.952974D-03  0.848960D+00
     14 -0.219861D+00  0.166441D-02 -0.160886D-02  0.835884D+00
     15  0.132647D-02 -0.102233D+00  0.146893D-01 -0.962232D-02  0.209711D+00
     16 -0.172960D-01 -0.162982D-02 -0.233585D+00 -0.103812D+00 -0.892037D-02
     17  0.214494D-01  0.402758D-03 -0.106101D+00 -0.190208D+00 -0.587876D-02
     18  0.448203D-03  0.231203D-01 -0.118662D-01 -0.781120D-02 -0.778820D-01
     19  0.109350D+00 -0.291983D-02  0.895563D-02  0.253555D-01 -0.645749D-03
     20 -0.309173D+00  0.443820D-02  0.469621D-02  0.133154D-01  0.239504D-03
     21  0.533418D-02 -0.808885D-01 -0.561130D-03 -0.664398D-03  0.277102D-01
     22  0.000000D+00  0.187828D-04  0.319504D-04 -0.185070D-04 -0.538471D-03
     23  0.000000D+00  0.517848D-04 -0.234230D-04  0.135676D-04  0.394756D-03
     24  0.338910D-05  0.485068D-02 -0.512779D-03  0.297023D-03  0.864205D-02
     25  0.191850D-04  0.543873D-03  0.178206D-01  0.260951D-03 -0.225023D-03
     26  0.714877D-05  0.202660D-03  0.251336D-01  0.295550D-03 -0.237286D-02
     27  0.194508D-03  0.551410D-02 -0.297849D-02  0.676242D-03  0.204505D-01
               16            17            18            19            20 
     16  0.221823D+00
     17  0.120826D+00  0.169143D+00
     18  0.101954D-01  0.687453D-02  0.411029D-01
     19 -0.136058D-05 -0.206629D-05  0.535594D-04  0.140197D+00
     20  0.452907D-05  0.687819D-05 -0.178287D-03 -0.119044D+00  0.304082D+00
     21  0.250999D-03  0.381186D-03 -0.988056D-02  0.305204D-02 -0.510286D-02
     22  0.000000D+00  0.000000D+00  0.000000D+00  0.000000D+00  0.000000D+00
     23  0.000000D+00  0.000000D+00  0.000000D+00  0.000000D+00  0.000000D+00
     24  0.000000D+00  0.000000D+00  0.000000D+00  0.000000D+00  0.000000D+00
     25  0.663324D-04 -0.268990D-04 -0.791153D-03  0.000000D+00  0.000000D+00
     26  0.247170D-04 -0.100232D-04 -0.294802D-03  0.000000D+00  0.000000D+00
     27  0.672517D-03 -0.272717D-03 -0.802117D-02  0.000000D+00  0.000000D+00
               21            22            23            24            25 
     21  0.457511D-01
     22  0.000000D+00  0.107647D+00
     23  0.000000D+00  0.817747D-01  0.219006D+00
     24  0.000000D+00 -0.103074D-02 -0.226054D-02  0.417767D-01
     25  0.000000D+00 -0.158907D-04  0.116495D-04  0.255033D-03  0.309483D+00
     26  0.000000D+00 -0.113891D-03  0.834944D-04  0.182787D-02 -0.161830D+00
     27  0.000000D+00  0.911133D-03 -0.667957D-03 -0.146230D-01 -0.180587D-01
               26            27 
     26  0.200236D+00
     27  0.115652D-01  0.621487D-01
 Leave Link  716 at Tue Dec 15 17:05:55 2015, MaxMem=    33554432 cpu:         0.0
 (Enter /home/Applications/g09/g09/l103.exe)

 GradGradGradGradGradGradGradGradGradGradGradGradGradGradGradGradGradGrad
 Berny optimization.
 Search for a local minimum.
 Step number   1 out of a maximum of    2
 All quantities printed in internal units (Hartrees-Bohrs-Radians)
 Second derivative matrix not updated -- first step.
 ITU=  0
     Eigenvalues ---    0.02194   0.03510   0.06830   0.07132   0.07955
     Eigenvalues ---    0.09926   0.13198   0.16073   0.16186   0.24235
     Eigenvalues ---    0.27860   0.33646   0.40829   0.46303   0.62743
     Eigenvalues ---    0.84414   1.11891   1.38480   1.55150   1.64031
     Eigenvalues ---    1.94483
 Quadratic step=1.431D+00 exceeds max=3.000D-01 adjusted using Lamda=-1.183D+00.
 Angle between NR and scaled steps=  32.11 degrees.
 Angle between quadratic step and forces=  18.41 degrees.
 Linear search not attempted -- first point.
 TrRot= -0.007111 -0.001422  0.000159  0.000065 -0.000089  0.000065
 MatCor failed.
 Variable       Old X    -DE/DX   Delta X   Delta X   Delta X     New X
                                 (Linear)    (Quad)   (Total)
    X1        1.75097   0.25762   0.00000   0.08838   0.08145   1.83242
    Y1       -1.37113  -0.03803   0.00000  -0.03420  -0.03538  -1.40651
    Z1        0.07140   0.01442   0.00000   0.00305   0.00337   0.07477
    X2       -0.58739  -0.39230   0.00000  -0.14388  -0.15071  -0.73810
    Y2       -1.98583  -0.22207   0.00000  -0.10819  -0.10971  -2.09555
    Z2       -0.04622  -0.00727   0.00000  -0.00010   0.00000  -0.04623
    X3       -2.11290  -0.01469   0.00000  -0.01790  -0.02502  -2.13792
    Y3        0.07278  -0.03019   0.00000  -0.01249  -0.01419   0.05859
    Z3       -0.06229  -0.00123   0.00000  -0.00111  -0.00114  -0.06343
    X4       -0.73490  -0.20582   0.00000  -0.08191  -0.08930  -0.82420
    Y4        2.13145   0.13510   0.00000   0.07041   0.06888   2.20034
    Z4       -0.05051  -0.00711   0.00000  -0.00402  -0.00394  -0.05445
    X5        1.71115   0.20740   0.00000   0.09934   0.09206   1.80321
    Y5        1.26824   0.13401   0.00000   0.07773   0.07655   1.34478
    Z5       -0.02168   0.00656   0.00000   0.00442   0.00474  -0.01694
    X6        3.35226   0.03822   0.00000   0.04974   0.04228   3.39455
    Y6        2.58964   0.02703   0.00000   0.03560   0.03462   2.62426
    Z6        0.07099  -0.00060   0.00000   0.00030   0.00076   0.07175
    X7       -1.67950  -0.00744   0.00000  -0.01339  -0.02101  -1.70052
    Y7        3.92831   0.07898   0.00000   0.07218   0.07054   3.99885
    Z7       -0.08806  -0.00044   0.00000  -0.00054  -0.00054  -0.08859
    X8       -1.62938   0.01663   0.00000  -0.00291  -0.00949  -1.63887
    Y8       -3.95594  -0.01381   0.00000  -0.03278  -0.03441  -3.99035
    Z8       -0.02115  -0.00186   0.00000  -0.00133  -0.00132  -0.02247
    X9        3.33053   0.10038   0.00000   0.08652   0.07975   3.41028
    Y9       -2.50462  -0.07102   0.00000  -0.05593  -0.05690  -2.56152
    Z9       -0.04274  -0.00248   0.00000  -0.00239  -0.00193  -0.04467
         Item               Value     Threshold  Converged?
 Maximum Force            0.392305     0.000450     NO 
 RMS     Force            0.124452     0.000300     NO 
 Maximum Displacement     0.150709     0.001800     NO 
 RMS     Displacement     0.057687     0.001200     NO 
 Predicted change in Energy=-1.456275D-01
 GradGradGradGradGradGradGradGradGradGradGradGradGradGradGradGradGradGrad

 Leave Link  103 at Tue Dec 15 17:05:56 2015, MaxMem=    33554432 cpu:         0.0
 (Enter /home/Applications/g09/g09/l9999.exe)
 1\1\GINC-DUSTIN-DESKTOP\Force\RAM1-FC\STO-3G\C4H4O1\DUSTIN\15-Dec-2015
 \0\\#P AM1(Input,print) CIS(Singlets,NStates=15) pop(full) force\\AM1-
 Reparam Input\\0,1\C,0.926574,-0.72557,0.037783\C,-0.310833,-1.050858,
 -0.024459\O,-1.118099,0.038513,-0.032963\C,-0.388894,1.127917,-0.02673
 \C,0.9055,0.671122,-0.011471\H,1.773941,1.370376,0.037567\H,-0.888754,
 2.078772,-0.046597\H,-0.862229,-2.093394,-0.011194\H,1.76244,-1.325387
 ,-0.022616\\Version=ES64L-G09RevD.01\State=1-A\HF=2.8693581\RMSD=3.581
 e-09\RMSF=1.245e-01\Dipole=-4.3066994,-0.1951464,-0.0633572\PG=C01 [X(
 C4H4O1)]\\@


 DEMOCRATS BUY MOST OF THE BOOKS THAT HAVE BEEN
 BANNED; REPUBLICANS FORM CENSORSHIP COMMITTEES AND
 READ THEM AS A GROUP.
 Job cpu time:       0 days  0 hours  0 minutes  0.7 seconds.
 File lengths (MBytes):  RWF=      7 Int=      0 D2E=      0 Chk=      2 Scr=      1
 Normal termination of Gaussian 09 at Tue Dec 15 17:05:56 2015.
