 Entering Gaussian System, Link 0=g09
 Input=FuranAM1_1P0.com
 Output=FuranAM1_1P0.log
 Initial command:
 /home/Applications/g09/g09/l1.exe "/home/Applications/g09/scratch/Gau-10586.inp" -scrdir="/home/Applications/g09/scratch/"
 Entering Link 1 = /home/Applications/g09/g09/l1.exe PID=     10592.
  
 Copyright (c) 1988,1990,1992,1993,1995,1998,2003,2009,2013,
            Gaussian, Inc.  All Rights Reserved.
  
 This is part of the Gaussian(R) 09 program.  It is based on
 the Gaussian(R) 03 system (copyright 2003, Gaussian, Inc.),
 the Gaussian(R) 98 system (copyright 1998, Gaussian, Inc.),
 the Gaussian(R) 94 system (copyright 1995, Gaussian, Inc.),
 the Gaussian 92(TM) system (copyright 1992, Gaussian, Inc.),
 the Gaussian 90(TM) system (copyright 1990, Gaussian, Inc.),
 the Gaussian 88(TM) system (copyright 1988, Gaussian, Inc.),
 the Gaussian 86(TM) system (copyright 1986, Carnegie Mellon
 University), and the Gaussian 82(TM) system (copyright 1983,
 Carnegie Mellon University). Gaussian is a federally registered
 trademark of Gaussian, Inc.
  
 This software contains proprietary and confidential information,
 including trade secrets, belonging to Gaussian, Inc.
  
 This software is provided under written license and may be
 used, copied, transmitted, or stored only in accord with that
 written license.
  
 The following legend is applicable only to US Government
 contracts under FAR:
  
                    RESTRICTED RIGHTS LEGEND
  
 Use, reproduction and disclosure by the US Government is
 subject to restrictions as set forth in subparagraphs (a)
 and (c) of the Commercial Computer Software - Restricted
 Rights clause in FAR 52.227-19.
  
 Gaussian, Inc.
 340 Quinnipiac St., Bldg. 40, Wallingford CT 06492
  
  
 ---------------------------------------------------------------
 Warning -- This program may not be used in any manner that
 competes with the business of Gaussian, Inc. or will provide
 assistance to any competitor of Gaussian, Inc.  The licensee
 of this program is prohibited from giving any competitor of
 Gaussian, Inc. access to this program.  By using this program,
 the user acknowledges that Gaussian, Inc. is engaged in the
 business of creating and licensing software in the field of
 computational chemistry and represents and warrants to the
 licensee that it is not a competitor of Gaussian, Inc. and that
 it will not use this program in any manner prohibited above.
 ---------------------------------------------------------------
  

 Cite this work as:
 Gaussian 09, Revision D.01,
 M. J. Frisch, G. W. Trucks, H. B. Schlegel, G. E. Scuseria, 
 M. A. Robb, J. R. Cheeseman, G. Scalmani, V. Barone, B. Mennucci, 
 G. A. Petersson, H. Nakatsuji, M. Caricato, X. Li, H. P. Hratchian, 
 A. F. Izmaylov, J. Bloino, G. Zheng, J. L. Sonnenberg, M. Hada, 
 M. Ehara, K. Toyota, R. Fukuda, J. Hasegawa, M. Ishida, T. Nakajima, 
 Y. Honda, O. Kitao, H. Nakai, T. Vreven, J. A. Montgomery, Jr., 
 J. E. Peralta, F. Ogliaro, M. Bearpark, J. J. Heyd, E. Brothers, 
 K. N. Kudin, V. N. Staroverov, T. Keith, R. Kobayashi, J. Normand, 
 K. Raghavachari, A. Rendell, J. C. Burant, S. S. Iyengar, J. Tomasi, 
 M. Cossi, N. Rega, J. M. Millam, M. Klene, J. E. Knox, J. B. Cross, 
 V. Bakken, C. Adamo, J. Jaramillo, R. Gomperts, R. E. Stratmann, 
 O. Yazyev, A. J. Austin, R. Cammi, C. Pomelli, J. W. Ochterski, 
 R. L. Martin, K. Morokuma, V. G. Zakrzewski, G. A. Voth, 
 P. Salvador, J. J. Dannenberg, S. Dapprich, A. D. Daniels, 
 O. Farkas, J. B. Foresman, J. V. Ortiz, J. Cioslowski, 
 and D. J. Fox, Gaussian, Inc., Wallingford CT, 2013.
 
 ******************************************
 Gaussian 09:  ES64L-G09RevD.01 24-Apr-2013
                15-Dec-2015 
 ******************************************
 ------------------------------------------------------------
 #P AM1(Input,print) CIS(Singlets,NStates=15) pop(full) force
 ------------------------------------------------------------
 1/10=7,30=1,38=1/1,3;
 2/12=2,17=6,18=5,40=1/2;
 3/5=2,16=1,25=1,41=700000,71=1,135=100,136=1/1,2,8,3;
 4/35=1/1;
 5/5=2,35=1,38=5/2;
 8/6=1,10=1,108=15/1;
 9/15=2,41=15,42=1,48=1,49=10/14;
 10/5=4/2;
 6/7=3,18=1/1;
 7/12=6,13=5,29=1/1,2,3,16;
 1/10=7,30=1/3;
 99//99;
 Leave Link    1 at Tue Dec 15 17:08:51 2015, MaxMem=           0 cpu:         0.0
 (Enter /home/Applications/g09/g09/l101.exe)
 -----------------
 AM1-Reparam Input
 -----------------
 Symbolic Z-matrix:
 Charge =  0 Multiplicity = 1
 6                     0.97564  -0.66844   0.04444 
 6                    -0.35295  -1.05215  -0.04464 
 8                    -1.16901   0.00837   0.00169 
 6                    -0.36766   1.06548   0.02468 
 6                     0.94903   0.73648   0.01543 
 1                     1.77175   1.33961   0.0134 
 1                    -0.84933   2.03906   0.02918 
 1                    -0.79223  -2.07565   0.02142 
 1                     1.85857  -1.40388   0.03528 
 
 NAtoms=      9 NQM=        9 NQMF=       0 NMMI=      0 NMMIF=      0
                NMic=       0 NMicF=      0.
                    Isotopes and Nuclear Properties:
 (Nuclear quadrupole moments (NQMom) in fm**2, nuclear magnetic moments (NMagM)
  in nuclear magnetons)

  Atom         1           2           3           4           5           6           7           8           9
 IAtWgt=          12          12          16          12          12           1           1           1           1
 AtmWgt=  12.0000000  12.0000000  15.9949146  12.0000000  12.0000000   1.0078250   1.0078250   1.0078250   1.0078250
 NucSpn=           0           0           0           0           0           1           1           1           1
 AtZEff=   0.0000000   0.0000000   0.0000000   0.0000000   0.0000000   0.0000000   0.0000000   0.0000000   0.0000000
 NQMom=    0.0000000   0.0000000   0.0000000   0.0000000   0.0000000   0.0000000   0.0000000   0.0000000   0.0000000
 NMagM=    0.0000000   0.0000000   0.0000000   0.0000000   0.0000000   2.7928460   2.7928460   2.7928460   2.7928460
 AtZNuc=   6.0000000   6.0000000   8.0000000   6.0000000   6.0000000   1.0000000   1.0000000   1.0000000   1.0000000
 Leave Link  101 at Tue Dec 15 17:08:51 2015, MaxMem=    33554432 cpu:         0.1
 (Enter /home/Applications/g09/g09/l103.exe)

 GradGradGradGradGradGradGradGradGradGradGradGradGradGradGradGradGradGrad
 Berny optimization.
 Initialization pass.
 Trust Radius=3.00D-01 FncErr=1.00D-07 GrdErr=1.00D-07
 Number of steps in this run=      2 maximum allowed number of steps=      2.
 GradGradGradGradGradGradGradGradGradGradGradGradGradGradGradGradGradGrad

 Leave Link  103 at Tue Dec 15 17:08:51 2015, MaxMem=    33554432 cpu:         0.0
 (Enter /home/Applications/g09/g09/l202.exe)
                          Input orientation:                          
 ---------------------------------------------------------------------
 Center     Atomic      Atomic             Coordinates (Angstroms)
 Number     Number       Type             X           Y           Z
 ---------------------------------------------------------------------
      1          6           0        0.975639   -0.668440    0.044435
      2          6           0       -0.352946   -1.052150   -0.044642
      3          8           0       -1.169008    0.008370    0.001692
      4          6           0       -0.367658    1.065478    0.024677
      5          6           0        0.949033    0.736479    0.015427
      6          1           0        1.771752    1.339605    0.013397
      7          1           0       -0.849328    2.039065    0.029177
      8          1           0       -0.792227   -2.075653    0.021419
      9          1           0        1.858570   -1.403878    0.035276
 ---------------------------------------------------------------------
                    Distance matrix (angstroms):
                    1          2          3          4          5
     1  C    0.000000
     2  C    1.385751   0.000000
     3  O    2.249313   1.338957   0.000000
     4  C    2.193470   2.118813   1.326713   0.000000
     5  C    1.405470   2.213132   2.239739   1.357203   0.000000
     6  H    2.160325   3.199719   3.228063   2.156930   1.020114
     7  H    3.265168   3.131686   2.055887   1.086231   2.220590
     8  H    2.259674   1.115746   2.117901   3.169696   3.307584
     9  H    1.149139   2.240737   3.340928   3.324744   2.325678
                    6          7          8          9
     6  H    0.000000
     7  H    2.712850   0.000000
     8  H    4.270602   4.115121   0.000000
     9  H    2.744944   4.380252   2.734629   0.000000
 Stoichiometry    C4H4O
 Framework group  C1[X(C4H4O)]
 Deg. of freedom    21
 Full point group                 C1      NOp   1
 Largest Abelian subgroup         C1      NOp   1
 Largest concise Abelian subgroup C1      NOp   1
                         Standard orientation:                         
 ---------------------------------------------------------------------
 Center     Atomic      Atomic             Coordinates (Angstroms)
 Number     Number       Type             X           Y           Z
 ---------------------------------------------------------------------
      1          6           0       -1.157311    0.290330   -0.028214
      2          6           0       -0.572330   -0.964085    0.039219
      3          8           0        0.763191   -0.880420   -0.007601
      4          6           0        1.032317    0.418708   -0.009386
      5          6           0       -0.081540    1.193798    0.014300
      6          1           0       -0.168388    2.210029    0.033333
      7          1           0        2.082468    0.696339   -0.010745
      8          1           0       -1.054420   -1.966954   -0.042835
      9          1           0       -2.292005    0.471443   -0.014456
 ---------------------------------------------------------------------
 Rotational constants (GHZ):      9.8840788      9.1575612      4.7566375
 Leave Link  202 at Tue Dec 15 17:08:51 2015, MaxMem=    33554432 cpu:         0.0
 (Enter /home/Applications/g09/g09/l301.exe)

 Semi-emprical parameters in input format:
 Method=8 CoreType=1 PeptideFC=0.0106250000 RIJScale=0.5404210000
 ****
 H       
 PQN=1 NValence=1 F0ss=0.4721550000 ZetaOverlap=1.0856700000 U=-0.4188110000
 Beta=-0.2268830000 CoreKO=1.0354420000 KON=0,0,0,1.0458670000 KON=1,0,1,1.0589200000
 KON=0,1,1,1.0589200000 KON=2,1,1,1.0697690000 EISol=-0.4188110042 EHeat=0.0830298228
 Alpha=1.4609850000
 GCore=0.0085280000,1.5127750000,2.2676710000
 GCore=0.0003530000,1.4368830000,3.4779940000
 GCore=-0.0013010000,0.5600570000,3.5861320000
 ****
 C       
 PQN=2,2 NValence=4 F0ss=0.4494440000 F0sp=0.4261420000 F0pp=0.3388090000 F2pp=0.1878900000
 G1sp=0.2701540000
 ZetaOverlap=1.8086650000,1.3781170000
 U=-1.7687090000,-1.4557970000
 Beta=-0.5453250000,-0.3336900000 DDN=0,1,0.7474020000 DDN=1,1,0.7268010000
 CoreKO=1.0227200000 KON=0,0,0,1.1124280000 KON=1,0,1,0.8473510000 KON=0,1,1,1.1124280000
 KON=2,1,1,0.8516400000 EISol=-4.4398989268 EHeat=0.2723305520 Alpha=1.2756240000
 DipHyp=1.4947180026
 GCore=0.0007890000,1.3361580000,2.6678360000
 GCore=0.0028980000,1.4001430000,3.2840710000
 GCore=-0.0015090000,1.3827320000,3.8739390000
 GCore=-0.0001030000,1.4001430000,4.6088130000
 ****
 O       
 PQN=2,2 NValence=6 F0ss=0.5666750000 F0sp=0.5321300000 F0pp=0.4958710000 F2pp=0.2358080000
 G1sp=0.4216980000
 ZetaOverlap=2.6354490000,2.5240390000
 U=-3.5951870000,-2.0345890000
 Beta=-1.1573400000,-1.2994290000 DDN=0,1,0.4953610000 DDN=1,1,0.4852320000
 CoreKO=0.8515990000 KON=0,0,0,0.8822960000 KON=1,0,1,0.5019540000 KON=0,1,1,0.8671530000
 KON=2,1,1,0.5515580000 EISol=-11.6164441184 EHeat=0.0949133088 Alpha=2.4031680000
 DipHyp=0.9906650029
 GCore=0.0204720000,1.2640290000,1.6023330000
 GCore=0.0051530000,1.9602000000,2.7307880000
 ****
 
 Standard basis: VSTO-6G (5D, 7F)
 Ernie: Thresh=  0.10000D-02 Tol=  0.10000D-05 Strict=F.
  NNHCO=     0 NNPyr=     0 NCTC=     0               EPep=         0.000000000
    EC=        70.395815794  ECS=         2.559456884   EG=         0.385105697
   EHC=         0.000000000  EAt=       -31.051283842  AtH=         1.516354808
 EPDDG=         0.000000000  ECC=        73.340378374 EAtT=        32.567638650
 There are    24 symmetry adapted cartesian basis functions of A   symmetry.
 There are    24 symmetry adapted basis functions of A   symmetry.
    24 basis functions,   144 primitive gaussians,    24 cartesian basis functions
    13 alpha electrons       13 beta electrons
       nuclear repulsion energy       105.9080170244 Hartrees.
 IExCor=    0 DFT=F Ex=HF Corr=None ExCW=0 ScaHFX=  1.000000
 ScaDFX=  1.000000  1.000000  1.000000  1.000000 ScalE2=  1.000000  1.000000
 IRadAn=      0 IRanWt=     -1 IRanGd=            0 ICorTp=0 IEmpDi=  4
 Integral buffers will be    131072 words long.
 Regular integral format.
 Two-electron integral symmetry is turned off.
 Leave Link  301 at Tue Dec 15 17:08:51 2015, MaxMem=    33554432 cpu:         0.0
 (Enter /home/Applications/g09/g09/l302.exe)
 Do NDO integrals.
 NPDir=0 NMtPBC=     1 NCelOv=     1 NCel=       1 NClECP=     1 NCelD=      1
         NCelK=      1 NCelE2=     1 NClLst=     1 CellRange=     0.0.
 One-electron integrals computed using PRISM.
 NBasis=    24 RedAO= F EigKep=  0.00D+00  NBF=    24
 NBsUse=    24 1.00D-04 EigRej=  0.00D+00 NBFU=    24
 Leave Link  302 at Tue Dec 15 17:08:51 2015, MaxMem=    33554432 cpu:         0.0
 (Enter /home/Applications/g09/g09/l308.exe)
 Leave Link  308 at Tue Dec 15 17:08:51 2015, MaxMem=    33554432 cpu:         0.0
 (Enter /home/Applications/g09/g09/l303.exe)
 DipDrv:  MaxL=1.
 Leave Link  303 at Tue Dec 15 17:08:51 2015, MaxMem=    33554432 cpu:         0.0
 (Enter /home/Applications/g09/g09/l401.exe)
 Simple Huckel Guess.
 JPrj=0 DoOrth=F DoCkMO=F.
 Leave Link  401 at Tue Dec 15 17:08:51 2015, MaxMem=    33554432 cpu:         0.0
 (Enter /home/Applications/g09/g09/l502.exe)
 Closed shell SCF:
 Using DIIS extrapolation, IDIIS=  1040.
 Overlap will be assumed to be unity.
 Two-electron integral symmetry not used.
 Keep J ints in memory in canonical form, NReq=888082.
 IVT=       79475 IEndB=       79475 NGot=    33554432 MDV=    33473473
 LenX=    33473473 LenY=    33472456
 Requested convergence on RMS density matrix=1.00D-08 within 128 cycles.
 Requested convergence on MAX density matrix=1.00D-06.
 Requested convergence on             energy=1.00D-06.
 No special actions if energy rises.
 FoFCou: FMM=F IPFlag=           0 FMFlag=           0 FMFlg1=           0
         NFxFlg=           0 DoJE=F BraDBF=F KetDBF=F FulRan=T
         wScrn=  0.000000 ICntrl=     600 IOpCl=  2 I1Cent=           0 NGrid=           0
         NMat0=    1 NMatS0=     54 NMatT0=    0 NMatD0=    1 NMtDS0=    0 NMtDT0=    0
 Symmetry not used in FoFCou.

 Cycle   1  Pass 1  IDiag  1:
 E=  4.10830390296108    
 DIIS: error= 1.49D-01 at cycle   1 NSaved=   1.
 NSaved= 1 IEnMin= 1 EnMin=  4.10830390296108     IErMin= 1 ErrMin= 1.49D-01
 ErrMax= 1.49D-01  0.00D+00 EMaxC= 1.00D-01 BMatC= 5.02D-01 BMatP= 5.02D-01
 IDIUse=3 WtCom= 0.00D+00 WtEn= 1.00D+00
 Coeff-Com:  0.100D+01
 Coeff-En:   0.100D+01
 Coeff:      0.100D+01
 GapD=    2.000 DampG=2.000 DampE=0.250 DampFc=0.5000 IDamp=-1.
 Damping current iteration by 5.00D-01
 RMSDP=6.35D-02 MaxDP=6.74D-01              OVMax= 0.00D+00

 Cycle   2  Pass 1  IDiag  1:
 E=  3.11979306109610     Delta-E=       -0.988510841865 Rises=F Damp=T
 DIIS: error= 9.02D-02 at cycle   2 NSaved=   2.
 NSaved= 2 IEnMin= 2 EnMin=  3.11979306109610     IErMin= 2 ErrMin= 9.02D-02
 ErrMax= 9.02D-02  0.00D+00 EMaxC= 1.00D-01 BMatC= 1.77D-01 BMatP= 5.02D-01
 IDIUse=3 WtCom= 9.81D-02 WtEn= 9.02D-01
 Coeff-Com: -0.119D+01 0.219D+01
 Coeff-En:   0.000D+00 0.100D+01
 Coeff:     -0.117D+00 0.112D+01
 RMSDP=3.60D-02 MaxDP=3.49D-01 DE=-9.89D-01 OVMax= 0.00D+00

 Cycle   3  Pass 1  IDiag  1:
 E=  1.85833371874094     Delta-E=       -1.261459342355 Rises=F Damp=F
 DIIS: error= 2.22D-02 at cycle   3 NSaved=   3.
 NSaved= 3 IEnMin= 3 EnMin=  1.85833371874094     IErMin= 3 ErrMin= 2.22D-02
 ErrMax= 2.22D-02  0.00D+00 EMaxC= 1.00D-01 BMatC= 1.50D-02 BMatP= 1.77D-01
 IDIUse=3 WtCom= 7.78D-01 WtEn= 2.22D-01
 Coeff-Com:  0.411D+00-0.907D+00 0.150D+01
 Coeff-En:   0.000D+00 0.000D+00 0.100D+01
 Coeff:      0.320D+00-0.706D+00 0.139D+01
 RMSDP=1.13D-02 MaxDP=6.01D-02 DE=-1.26D+00 OVMax= 0.00D+00

 Cycle   4  Pass 1  IDiag  1:
 E=  1.79968252182557     Delta-E=       -0.058651196915 Rises=F Damp=F
 DIIS: error= 6.13D-03 at cycle   4 NSaved=   4.
 NSaved= 4 IEnMin= 4 EnMin=  1.79968252182557     IErMin= 4 ErrMin= 6.13D-03
 ErrMax= 6.13D-03  0.00D+00 EMaxC= 1.00D-01 BMatC= 1.41D-03 BMatP= 1.50D-02
 IDIUse=3 WtCom= 9.39D-01 WtEn= 6.13D-02
 Coeff-Com: -0.813D-01 0.158D+00-0.480D+00 0.140D+01
 Coeff-En:   0.000D+00 0.000D+00 0.000D+00 0.100D+01
 Coeff:     -0.763D-01 0.149D+00-0.451D+00 0.138D+01
 RMSDP=4.44D-03 MaxDP=2.58D-02 DE=-5.87D-02 OVMax= 0.00D+00

 Cycle   5  Pass 1  IDiag  3:
 E=  1.79337077070959     Delta-E=       -0.006311751116 Rises=F Damp=F
 DIIS: error= 1.38D-03 at cycle   5 NSaved=   5.
 NSaved= 5 IEnMin= 5 EnMin=  1.79337077070959     IErMin= 5 ErrMin= 1.38D-03
 ErrMax= 1.38D-03  0.00D+00 EMaxC= 1.00D-01 BMatC= 5.89D-05 BMatP= 1.41D-03
 IDIUse=3 WtCom= 9.86D-01 WtEn= 1.38D-02
 Coeff-Com:  0.217D-01-0.392D-01 0.140D+00-0.568D+00 0.145D+01
 Coeff-En:   0.000D+00 0.000D+00 0.000D+00 0.000D+00 0.100D+01
 Coeff:      0.214D-01-0.386D-01 0.138D+00-0.560D+00 0.144D+01
 Gap=     0.423 Goal=   None    Shift=    0.000
 RMSDP=1.01D-03 MaxDP=6.17D-03 DE=-6.31D-03 OVMax= 8.27D-03

 Cycle   6  Pass 1  IDiag  3:
 E=  1.79307494330595     Delta-E=       -0.000295827404 Rises=F Damp=F
 DIIS: error= 2.98D-04 at cycle   6 NSaved=   6.
 NSaved= 6 IEnMin= 6 EnMin=  1.79307494330595     IErMin= 6 ErrMin= 2.98D-04
 ErrMax= 2.98D-04  0.00D+00 EMaxC= 1.00D-01 BMatC= 2.30D-06 BMatP= 5.89D-05
 IDIUse=3 WtCom= 9.97D-01 WtEn= 2.98D-03
 Coeff-Com: -0.212D-02 0.403D-02-0.270D-01 0.131D+00-0.510D+00 0.140D+01
 Coeff-En:   0.000D+00 0.000D+00 0.000D+00 0.000D+00 0.000D+00 0.100D+01
 Coeff:     -0.211D-02 0.402D-02-0.269D-01 0.131D+00-0.508D+00 0.140D+01
 Gap=     0.424 Goal=   None    Shift=    0.000
 RMSDP=2.04D-04 MaxDP=1.36D-03 DE=-2.96D-04 OVMax= 1.28D-03

 Cycle   7  Pass 1  IDiag  3:
 E=  1.79306418284715     Delta-E=       -0.000010760459 Rises=F Damp=F
 DIIS: error= 5.12D-05 at cycle   7 NSaved=   7.
 NSaved= 7 IEnMin= 7 EnMin=  1.79306418284715     IErMin= 7 ErrMin= 5.12D-05
 ErrMax= 5.12D-05  0.00D+00 EMaxC= 1.00D-01 BMatC= 5.13D-08 BMatP= 2.30D-06
 IDIUse=1 WtCom= 1.00D+00 WtEn= 0.00D+00
 Coeff-Com:  0.159D-03-0.302D-03 0.801D-02-0.435D-01 0.189D+00-0.604D+00
 Coeff-Com:  0.145D+01
 Coeff:      0.159D-03-0.302D-03 0.801D-02-0.435D-01 0.189D+00-0.604D+00
 Coeff:      0.145D+01
 Gap=     0.424 Goal=   None    Shift=    0.000
 RMSDP=2.66D-05 MaxDP=2.05D-04 DE=-1.08D-05 OVMax= 2.07D-04

 Cycle   8  Pass 1  IDiag  3:
 E=  1.79306396598676     Delta-E=       -0.000000216860 Rises=F Damp=F
 DIIS: error= 9.90D-06 at cycle   8 NSaved=   8.
 NSaved= 8 IEnMin= 8 EnMin=  1.79306396598676     IErMin= 8 ErrMin= 9.90D-06
 ErrMax= 9.90D-06  0.00D+00 EMaxC= 1.00D-01 BMatC= 1.26D-09 BMatP= 5.13D-08
 IDIUse=1 WtCom= 1.00D+00 WtEn= 0.00D+00
 Coeff-Com:  0.235D-04-0.756D-04-0.170D-02 0.105D-01-0.508D-01 0.169D+00
 Coeff-Com: -0.478D+00 0.135D+01
 Coeff:      0.235D-04-0.756D-04-0.170D-02 0.105D-01-0.508D-01 0.169D+00
 Coeff:     -0.478D+00 0.135D+01
 Gap=     0.424 Goal=   None    Shift=    0.000
 RMSDP=4.20D-06 MaxDP=4.04D-05 DE=-2.17D-07 OVMax= 3.23D-05

 Cycle   9  Pass 1  IDiag  3:
 E=  1.79306396031213     Delta-E=       -0.000000005675 Rises=F Damp=F
 DIIS: error= 2.10D-06 at cycle   9 NSaved=   9.
 NSaved= 9 IEnMin= 9 EnMin=  1.79306396031213     IErMin= 9 ErrMin= 2.10D-06
 ErrMax= 2.10D-06  0.00D+00 EMaxC= 1.00D-01 BMatC= 8.82D-11 BMatP= 1.26D-09
 IDIUse=1 WtCom= 1.00D+00 WtEn= 0.00D+00
 Coeff-Com: -0.133D-05 0.148D-04 0.742D-04-0.706D-03 0.495D-02-0.175D-01
 Coeff-Com:  0.599D-01-0.362D+00 0.132D+01
 Coeff:     -0.133D-05 0.148D-04 0.742D-04-0.706D-03 0.495D-02-0.175D-01
 Coeff:      0.599D-01-0.362D+00 0.132D+01
 Gap=     0.424 Goal=   None    Shift=    0.000
 RMSDP=1.27D-06 MaxDP=1.20D-05 DE=-5.67D-09 OVMax= 1.23D-05

 Cycle  10  Pass 1  IDiag  3:
 E=  1.79306395980683     Delta-E=       -0.000000000505 Rises=F Damp=F
 DIIS: error= 7.62D-07 at cycle  10 NSaved=  10.
 NSaved=10 IEnMin=10 EnMin=  1.79306395980683     IErMin=10 ErrMin= 7.62D-07
 ErrMax= 7.62D-07  0.00D+00 EMaxC= 1.00D-01 BMatC= 1.27D-11 BMatP= 8.82D-11
 IDIUse=1 WtCom= 1.00D+00 WtEn= 0.00D+00
 Coeff-Com: -0.128D-05-0.262D-05-0.190D-04 0.197D-03-0.174D-02 0.594D-02
 Coeff-Com: -0.215D-01 0.177D+00-0.962D+00 0.180D+01
 Coeff:     -0.128D-05-0.262D-05-0.190D-04 0.197D-03-0.174D-02 0.594D-02
 Coeff:     -0.215D-01 0.177D+00-0.962D+00 0.180D+01
 Gap=     0.424 Goal=   None    Shift=    0.000
 RMSDP=6.79D-07 MaxDP=6.79D-06 DE=-5.05D-10 OVMax= 7.27D-06

 Cycle  11  Pass 1  IDiag  3:
 E=  1.79306395971696     Delta-E=       -0.000000000090 Rises=F Damp=F
 DIIS: error= 1.66D-07 at cycle  11 NSaved=  11.
 NSaved=11 IEnMin=11 EnMin=  1.79306395971696     IErMin=11 ErrMin= 1.66D-07
 ErrMax= 1.66D-07  0.00D+00 EMaxC= 1.00D-01 BMatC= 5.57D-13 BMatP= 1.27D-11
 IDIUse=1 WtCom= 1.00D+00 WtEn= 0.00D+00
 Coeff-Com: -0.916D-06 0.201D-05 0.596D-05-0.383D-04 0.313D-03-0.892D-03
 Coeff-Com:  0.371D-02-0.417D-01 0.264D+00-0.667D+00 0.144D+01
 Coeff:     -0.916D-06 0.201D-05 0.596D-05-0.383D-04 0.313D-03-0.892D-03
 Coeff:      0.371D-02-0.417D-01 0.264D+00-0.667D+00 0.144D+01
 Gap=     0.424 Goal=   None    Shift=    0.000
 RMSDP=1.37D-07 MaxDP=1.27D-06 DE=-8.99D-11 OVMax= 1.39D-06

 Cycle  12  Pass 1  IDiag  3:
 E=  1.79306395971328     Delta-E=       -0.000000000004 Rises=F Damp=F
 DIIS: error= 1.03D-08 at cycle  12 NSaved=  12.
 NSaved=12 IEnMin=12 EnMin=  1.79306395971328     IErMin=12 ErrMin= 1.03D-08
 ErrMax= 1.03D-08  0.00D+00 EMaxC= 1.00D-01 BMatC= 8.92D-15 BMatP= 5.57D-13
 IDIUse=1 WtCom= 1.00D+00 WtEn= 0.00D+00
 Coeff-Com:  0.691D-07-0.121D-06-0.785D-06 0.162D-05-0.320D-04 0.381D-04
 Coeff-Com: -0.392D-03 0.936D-02-0.676D-01 0.184D+00-0.480D+00 0.135D+01
 Coeff:      0.691D-07-0.121D-06-0.785D-06 0.162D-05-0.320D-04 0.381D-04
 Coeff:     -0.392D-03 0.936D-02-0.676D-01 0.184D+00-0.480D+00 0.135D+01
 Gap=     0.424 Goal=   None    Shift=    0.000
 RMSDP=1.23D-08 MaxDP=7.40D-08 DE=-3.68D-12 OVMax= 7.76D-08

 Cycle  13  Pass 1  IDiag  3:
 E=  1.79306395971338     Delta-E=        0.000000000000 Rises=F Damp=F
 DIIS: error= 2.32D-09 at cycle  13 NSaved=  13.
 NSaved=13 IEnMin=12 EnMin=  1.79306395971328     IErMin=13 ErrMin= 2.32D-09
 ErrMax= 2.32D-09  0.00D+00 EMaxC= 1.00D-01 BMatC= 2.80D-16 BMatP= 8.92D-15
 IDIUse=1 WtCom= 1.00D+00 WtEn= 0.00D+00
 Coeff-Com:  0.172D-07-0.313D-07 0.183D-06 0.749D-07 0.755D-05-0.228D-05
 Coeff-Com:  0.857D-04-0.277D-02 0.210D-01-0.580D-01 0.156D+00-0.510D+00
 Coeff-Com:  0.139D+01
 Coeff:      0.172D-07-0.313D-07 0.183D-06 0.749D-07 0.755D-05-0.228D-05
 Coeff:      0.857D-04-0.277D-02 0.210D-01-0.580D-01 0.156D+00-0.510D+00
 Coeff:      0.139D+01
 Gap=     0.424 Goal=   None    Shift=    0.000
 RMSDP=2.32D-09 MaxDP=1.17D-08 DE= 9.95D-14 OVMax= 1.70D-08

 Cycle  14  Pass 2  IDiag  1:
 SCF Done:  E(RAM1) =   1.79306395971     A.U. after   14 cycles
            NFock= 13  Conv=0.23D-08     -V/T= 1.1144
 KE=-1.567408809507D+01 PE=-1.711813322880D+02 EE= 8.274046731836D+01
 Leave Link  502 at Tue Dec 15 17:08:51 2015, MaxMem=    33554432 cpu:         0.0
 (Enter /home/Applications/g09/g09/l801.exe)
 Range of M.O.s used for correlation:     1    24
 NBasis=    24 NAE=    13 NBE=    13 NFC=     0 NFV=     0
 NROrb=     24 NOA=    13 NOB=    13 NVA=    11 NVB=    11
 Leave Link  801 at Tue Dec 15 17:08:51 2015, MaxMem=    33554432 cpu:         0.0
 (Enter /home/Applications/g09/g09/l914.exe)
 RHF ground state
 MDV=    33554432 DFT=F DoStab=F Mixed=F DoRPA=F DoScal=F NonHer=F
 Making orbital integer symmetry assigments:
 Orbital symmetries:
       Occupied  (A) (A) (A) (A) (A) (A) (A) (A) (A) (A) (A) (A)
                 (A)
       Virtual   (A) (A) (A) (A) (A) (A) (A) (A) (A) (A) (A)
    60 initial guesses have been made.
 Convergence on wavefunction:    0.000001000000000
 Davidson Disk Diagonalization:  ConvIn= 1.00D-06 SkipCon=T Conv= 1.00D-06.
 Max sub-space:   240 roots to seek:    60 dimension of matrix:          286
 Iteration     1 Dimension    60 NMult     0 NNew     60
 CISAX will form    60 AO SS matrices at one time.
 NMat=    60 NSing=    60 JSym2X= 0.
 FoFJK:  IHMeth= 8 ICntrl=       0 DoSepK=F KAlg= 0 I1Cent=   0 FoldK=F
 IRaf=         1 NMat= 120 IRICut=       1 DoRegI=T DoRafI=F ISym2E= 0.
 FoFCou: FMM=F IPFlag=           0 FMFlag=      100000 FMFlg1=           0
         NFxFlg=           0 DoJE=F BraDBF=F KetDBF=F FulRan=T
         wScrn=  0.000000 ICntrl=       0 IOpCl=  0 I1Cent=           0 NGrid=           0
         NMat0=  120 NMatS0=     60 NMatT0=    0 NMatD0=  120 NMtDS0=    0 NMtDT0=    0
 Symmetry not used in FoFCou.
 New state      5 was old state      7
 New state      6 was old state      8
 New state      7 was old state      5
 New state      8 was old state      6
 New state     10 was old state     11
 New state     11 was old state     12
 New state     12 was old state     16
 New state     14 was old state     15
 New state     15 was old state     14
 Excitation Energies [eV] at current iteration:
 Root      1 :     5.755169790736368
 Root      2 :     6.876620620903864
 Root      3 :     7.035856060661681
 Root      4 :     7.716268418783632
 Root      5 :     8.308563104587156
 Root      6 :     8.527869421364013
 Root      7 :     9.099865989843570
 Root      8 :     9.105502010666907
 Root      9 :     9.690988673529338
 Root     10 :    10.076691210326270
 Root     11 :    10.276535404281630
 Root     12 :    10.370364120069200
 Root     13 :    10.448070904840400
 Root     14 :    10.487145795909090
 Root     15 :    10.635119182777120
 Root     16 :    10.893558402822020
 Root     17 :    11.046351531244330
 Root     18 :    11.271110407971640
 Root     19 :    11.403898525779450
 Root     20 :    11.777036729829370
 Root     21 :    11.899860421245670
 Root     22 :    12.358090897032570
 Root     23 :    12.390490568654960
 Root     24 :    12.656869041296410
 Root     25 :    12.730346619399120
 Root     26 :    12.819257607320580
 Root     27 :    13.078121781865690
 Root     28 :    13.240673967711620
 Root     29 :    13.280881883872950
 Root     30 :    13.518847597293460
 Root     31 :    13.625414529830660
 Root     32 :    13.670840333239440
 Root     33 :    13.712789981130390
 Root     34 :    13.794411042192370
 Root     35 :    14.141132122471350
 Root     36 :    14.158708629481040
 Root     37 :    14.249959958540250
 Root     38 :    14.729453088474480
 Root     39 :    14.841574217866070
 Root     40 :    15.104585989448750
 Root     41 :    15.426240849698960
 Root     42 :    15.575384188694940
 Root     43 :    15.718459083758970
 Root     44 :    15.752502714577070
 Root     45 :    15.779202490675520
 Root     46 :    15.838639428792680
 Root     47 :    15.887808504096400
 Root     48 :    15.949810510801410
 Root     49 :    16.322116772820920
 Root     50 :    16.398236623083050
 Root     51 :    16.886443010020400
 Root     52 :    17.070674829051530
 Root     53 :    17.238203936867880
 Root     54 :    17.503085855794160
 Root     55 :    17.578487248614430
 Root     56 :    17.848555813935920
 Root     57 :    17.918644837793480
 Root     58 :    17.952595210045830
 Root     59 :    18.052594822865750
 Root     60 :    18.164332482904010
 Iteration     2 Dimension   120 NMult    60 NNew     60
 CISAX will form    60 AO SS matrices at one time.
 NMat=    60 NSing=    60 JSym2X= 0.
 Root      1 not converged, maximum delta is    0.020946057475374
 Root      2 not converged, maximum delta is    0.029409288963049
 Root      3 not converged, maximum delta is    0.024992049273037
 Root      4 not converged, maximum delta is    0.018292760593753
 Root      5 not converged, maximum delta is    0.016721999348700
 Root      6 not converged, maximum delta is    0.033631092161905
 Root      7 not converged, maximum delta is    0.025617368755743
 Root      8 not converged, maximum delta is    0.027748265082020
 Root      9 not converged, maximum delta is    0.021335420446455
 Root     10 not converged, maximum delta is    0.059283475090933
 Root     11 not converged, maximum delta is    0.032425554422578
 Root     12 not converged, maximum delta is    0.077817147650155
 Root     13 not converged, maximum delta is    0.081199182925478
 Root     14 not converged, maximum delta is    0.081017296165602
 Root     15 not converged, maximum delta is    0.055550288709490
 Excitation Energies [eV] at current iteration:
 Root      1 :     5.678773168082802   Change is   -0.076396622653567
 Root      2 :     6.842007752926390   Change is   -0.034612867977474
 Root      3 :     7.005236869776683   Change is   -0.030619190884998
 Root      4 :     7.700524301553505   Change is   -0.015744117230126
 Root      5 :     8.296146129198565   Change is   -0.012416975388590
 Root      6 :     8.490300266747386   Change is   -0.037569154616626
 Root      7 :     9.071052751273387   Change is   -0.028813238570184
 Root      8 :     9.089197649128154   Change is   -0.016304361538752
 Root      9 :     9.665090386751741   Change is   -0.025898286777596
 Root     10 :     9.782486183072391   Change is   -0.294205027253877
 Root     11 :    10.241019092383750   Change is   -0.035516311897882
 Root     12 :    10.302404036219740   Change is   -0.067960083849461
 Root     13 :    10.387741260775480   Change is   -0.060329644064923
 Root     14 :    10.427943796752550   Change is   -0.059201999156537
 Root     15 :    10.604506055297370   Change is   -0.030613127479742
 Root     16 :    10.799988979453850   Change is   -0.246362551790473
 Root     17 :    10.844502636056830   Change is   -0.049055766765188
 Root     18 :    11.089876989309380   Change is   -0.181233418662263
 Root     19 :    11.396321837512080   Change is   -0.007576688267374
 Root     20 :    11.510094685390070   Change is   -0.266942044439308
 Root     21 :    11.864735353482810   Change is   -0.035125067762865
 Root     22 :    12.091051006428360   Change is   -0.299439562226599
 Root     23 :    12.201606330414250   Change is   -0.156484566618323
 Root     24 :    12.451499267834100   Change is   -0.205369773462311
 Root     25 :    12.539464407334560   Change is   -0.190882212064552
 Root     26 :    12.664890293585080   Change is   -0.154367313735503
 Root     27 :    12.923059129641830   Change is   -0.155062652223859
 Root     28 :    13.074821673333980   Change is   -0.165852294377638
 Root     29 :    13.244912032272140   Change is   -0.035969851600810
 Root     30 :    13.356025373211590   Change is   -0.162822224081871
 Root     31 :    13.424928646423430   Change is   -0.245911686816019
 Root     32 :    13.475094236636690   Change is   -0.237695744493704
 Root     33 :    13.533640700035680   Change is   -0.091773829794983
 Root     34 :    13.654879487964810   Change is   -0.139531554227551
 Root     35 :    13.996572575824270   Change is   -0.144559546647079
 Root     36 :    14.029298556437230   Change is   -0.129410073043805
 Root     37 :    14.116321601641620   Change is   -0.133638356898628
 Root     38 :    14.555434247840810   Change is   -0.174018840633672
 Root     39 :    14.682351971378020   Change is   -0.159222246488045
 Root     40 :    15.052090311202670   Change is   -0.052495678246081
 Root     41 :    15.229269106103440   Change is   -0.549933384572072
 Root     42 :    15.350268461052680   Change is   -0.075972388646277
 Root     43 :    15.454091931373300   Change is   -0.121292257321642
 Root     44 :    15.521236505145830   Change is   -0.197222578613137
 Root     45 :    15.593224068708620   Change is   -0.159278645868448
 Root     46 :    15.628980712733590   Change is   -0.209658716059094
 Root     47 :    15.758358425329150   Change is   -0.191452085472252
 Root     48 :    15.875191158938010   Change is   -0.012617345158389
 Root     49 :    16.082874614409540   Change is   -0.239242158411383
 Root     50 :    16.185040121622350   Change is   -0.213196501460697
 Root     51 :    16.349598980534260   Change is   -0.536844029486140
 Root     52 :    16.874614354096740   Change is   -0.703872894517693
 Root     53 :    16.888144895626870   Change is   -0.182529933424662
 Root     54 :    17.090556152091980   Change is   -0.147647784775892
 Root     55 :    17.194514174768380   Change is   -0.308571681025785
 Root     56 :    17.506300420657010   Change is   -0.412344417136466
 Root     57 :    17.541666196677270   Change is   -0.622666286226739
 Root     58 :    17.589913445071470   Change is   -0.362681764974352
 Root     59 :    17.658361444808570   Change is   -0.394233378057177
 Root     60 :    17.776130096009470   Change is   -0.072425717926449
 Iteration     3 Dimension   135 NMult   120 NNew     15
 CISAX will form    15 AO SS matrices at one time.
 NMat=    15 NSing=    15 JSym2X= 0.
 Root      1 not converged, maximum delta is    0.001327460722505
 Root      2 not converged, maximum delta is    0.000094079691051
 Root      3 not converged, maximum delta is    0.000019579820059
 Root      4 not converged, maximum delta is    0.000084260468893
 Root      5 not converged, maximum delta is    0.000124956443750
 Root      6 not converged, maximum delta is    0.000077354086728
 Root      7 not converged, maximum delta is    0.001063744692105
 Root      8 not converged, maximum delta is    0.000229268775401
 Root      9 not converged, maximum delta is    0.000104286236893
 Root     10 not converged, maximum delta is    0.002552153966123
 Root     11 not converged, maximum delta is    0.000600624773070
 Root     12 not converged, maximum delta is    0.001664445853269
 Root     13 not converged, maximum delta is    0.000831742390512
 Root     14 not converged, maximum delta is    0.001059739992630
 Root     15 not converged, maximum delta is    0.000348517376799
 Excitation Energies [eV] at current iteration:
 Root      1 :     5.678473191709580   Change is   -0.000299976373222
 Root      2 :     6.842006385515139   Change is   -0.000001367411251
 Root      3 :     7.005236589713814   Change is   -0.000000280062869
 Root      4 :     7.700522323188328   Change is   -0.000001978365177
 Root      5 :     8.296142788346218   Change is   -0.000003340852347
 Root      6 :     8.490299049068348   Change is   -0.000001217679040
 Root      7 :     9.070902837303731   Change is   -0.000149913969655
 Root      8 :     9.089191598933953   Change is   -0.000006050194201
 Root      9 :     9.665087244695572   Change is   -0.000003142056169
 Root     10 :     9.781198695033563   Change is   -0.001287488038828
 Root     11 :    10.240954730862790   Change is   -0.000064361520966
 Root     12 :    10.302008857498980   Change is   -0.000395178720767
 Root     13 :    10.387653920887800   Change is   -0.000087339887680
 Root     14 :    10.427716441397690   Change is   -0.000227355354863
 Root     15 :    10.604468054476940   Change is   -0.000038000820430
 Iteration     4 Dimension   143 NMult   135 NNew      8
 CISAX will form     8 AO SS matrices at one time.
 NMat=     8 NSing=     8 JSym2X= 0.
 Root      1 not converged, maximum delta is    0.000068807796500
 Root      2 not converged, maximum delta is    0.000002280684788
 Root      3 has converged.
 Root      4 not converged, maximum delta is    0.000003654534998
 Root      5 not converged, maximum delta is    0.000010832359038
 Root      6 not converged, maximum delta is    0.000004418585815
 Root      7 not converged, maximum delta is    0.000068626914855
 Root      8 not converged, maximum delta is    0.000009324570174
 Root      9 not converged, maximum delta is    0.000007506085472
 Root     10 not converged, maximum delta is    0.000054769969421
 Root     11 not converged, maximum delta is    0.000033750885488
 Root     12 not converged, maximum delta is    0.000059856273508
 Root     13 not converged, maximum delta is    0.000024032100455
 Root     14 not converged, maximum delta is    0.000051515631367
 Root     15 not converged, maximum delta is    0.000025450976266
 Excitation Energies [eV] at current iteration:
 Root      1 :     5.678472358879712   Change is   -0.000000832829869
 Root      2 :     6.842006383970571   Change is   -0.000000001544568
 Root      3 :     7.005236589489678   Change is   -0.000000000224136
 Root      4 :     7.700522319499941   Change is   -0.000000003688387
 Root      5 :     8.296142771856866   Change is   -0.000000016489352
 Root      6 :     8.490299045397913   Change is   -0.000000003670434
 Root      7 :     9.070902179423728   Change is   -0.000000657880003
 Root      8 :     9.089191583981664   Change is   -0.000000014952288
 Root      9 :     9.665087230677612   Change is   -0.000000014017960
 Root     10 :     9.781197814798766   Change is   -0.000000880234797
 Root     11 :    10.240954562390270   Change is   -0.000000168472518
 Root     12 :    10.302007958858090   Change is   -0.000000898640883
 Root     13 :    10.387653730904350   Change is   -0.000000189983453
 Root     14 :    10.427715906124730   Change is   -0.000000535272955
 Root     15 :    10.604467929001930   Change is   -0.000000125475016
 Convergence achieved on expansion vectors.
 ***********************************************************************
 Excited states from <AA,BB:AA,BB> singles matrix:
 ***********************************************************************
 
 1PDM for each excited state written to RWF  633
 Ground to excited state transition densities written to RWF  633
 Ground to excited state transition electric dipole moments (Au):
       state          X           Y           Z        Dip. S.      Osc.
         1        -1.1856     -1.0044     -0.0697      2.4193      0.3366
         2        -0.0649     -0.0459      0.2009      0.0467      0.0078
         3        -0.0089     -0.0300      0.0299      0.0019      0.0003
         4         0.0269     -0.0168      0.0001      0.0010      0.0002
         5        -0.0896     -0.0611     -0.1749      0.0424      0.0086
         6         0.0043     -0.0059     -0.0100      0.0002      0.0000
         7        -0.4297      0.5435     -0.0140      0.4802      0.1067
         8         0.0366      0.0962     -0.1991      0.0503      0.0112
         9        -0.0138      0.0421     -0.1039      0.0128      0.0030
        10        -0.1904     -0.0996      0.0063      0.0462      0.0111
        11         0.1460      0.0264      0.0068      0.0221      0.0055
        12         0.6581      0.5898     -0.0205      0.7814      0.1972
        13         0.2329      0.0961     -0.3094      0.1592      0.0405
        14        -0.5141     -0.1699     -0.2288      0.3455      0.0883
        15         0.1865      0.1795      0.0092      0.0671      0.0174
 Ground to excited state transition velocity dipole moments (Au):
       state          X           Y           Z        Dip. S.      Osc.
         1         0.1541      0.1274      0.0176      0.0403      0.1288
         2         0.0113      0.0036     -0.1835      0.0338      0.0897
         3         0.0105     -0.0051     -0.0271      0.0009      0.0022
         4        -0.0087      0.0056      0.0032      0.0001      0.0003
         5         0.0165      0.0071      0.0199      0.0007      0.0016
         6        -0.0034      0.0057     -0.0062      0.0001      0.0002
         7         0.1430     -0.1721      0.0033      0.0501      0.1002
         8        -0.0010     -0.0184      0.0027      0.0003      0.0007
         9         0.0022     -0.0158      0.0027      0.0003      0.0005
        10        -0.0141      0.0016     -0.0153      0.0004      0.0008
        11        -0.0105     -0.0171     -0.0130      0.0006      0.0010
        12        -0.1023     -0.0697     -0.0233      0.0159      0.0279
        13        -0.0280     -0.0256     -0.1000      0.0114      0.0200
        14         0.0607      0.0391     -0.0215      0.0057      0.0099
        15        -0.0241     -0.0314      0.1535      0.0251      0.0430
 Ground to excited state transition magnetic dipole moments (Au):
       state          X           Y           Z
         1        -0.0073      0.0191     -0.5566
         2        -0.2029     -0.0951     -0.0177
         3         0.1323     -0.2517     -0.0058
         4        -0.5222      0.6962      0.0139
         5         0.7117      0.5506     -0.0563
         6        -0.4613      0.5031     -0.0122
         7        -0.0889      0.0268     -0.0009
         8         0.4458      0.2994      0.0323
         9        -0.0598      0.2391      0.0306
        10        -0.0007     -0.0194     -0.1084
        11        -0.1739      0.2018      0.0331
        12        -0.0388      0.0988      0.2405
        13         0.1969     -0.1297      0.0924
        14        -0.0060      0.0403     -0.0936
        15        -0.0200     -0.1956      0.0645
 Ground to excited state transition velocity quadrupole moments (Au):
       state          XX          YY          ZZ          XY          XZ          YZ
         1        -0.3397      0.3356     -0.0001      0.0630     -0.0273      0.0315
         2        -0.0429      0.0388      0.0015      0.0079      0.0536     -0.1280
         3        -0.0180      0.0140     -0.0124      0.0091      0.1966      0.1350
         4         0.0011     -0.0043      0.0072     -0.0140      0.1473      0.1239
         5        -0.0108      0.0394      0.0022      0.0077      0.0320     -0.1165
         6         0.0219      0.0128     -0.0145      0.0018     -0.3645     -0.3103
         7        -0.0053     -0.0607      0.0309      0.2603      0.0068     -0.0026
         8         0.0050     -0.0283      0.0039     -0.0006     -0.1361      0.1857
         9        -0.0075     -0.0460     -0.0005      0.0156     -0.0159      0.0371
        10        -0.1060      0.0444     -0.0286     -0.0080      0.0163      0.0160
        11        -0.1433     -0.1848     -0.0266     -0.0259     -0.2147     -0.1648
        12         0.3742     -0.0632      0.0658      0.0024     -0.0545     -0.0300
        13        -0.0868     -0.2186     -0.0535     -0.0535      0.1009      0.1784
        14         0.0962      0.2861      0.0527      0.1067     -0.0136     -0.0237
        15        -0.0097     -0.1302     -0.0125     -0.0107      0.2293     -0.0938
 <0|del|b> * <b|rxdel|0> + <0|del|b> * <b|delr+rdel|0>
 Rotatory Strengths (R) in cgs (10**-40 erg-esu-cm/Gauss)
       state          XX          YY          ZZ    R(velocity)    E-M Angle
         1        -4.7313    -12.1983    -11.8704     -9.6000       94.36
         2         1.7956      1.3526     -1.4018      0.5821       89.14
         3         3.0098      4.3998      0.3454      2.5850       70.32
         4         3.8584      4.4506     12.9652      7.0914       25.86
         5         3.1575      9.9429     20.6947     11.2650       52.93
         6         5.6833      3.0631      1.4765      3.4076       43.14
         7        -2.7434    -14.7845    -19.2194    -12.2491      146.50
         8        -8.3828     -0.5452     -3.4400     -4.1227      125.72
         9        -3.8769     -0.0088     -3.7117     -2.5325      162.22
        10         1.7009      1.3009      0.2264      1.0761       44.45
        11        -6.7959      2.6138      0.2976     -1.2949      108.78
        12       -15.2582      1.3859     -2.0445     -5.3056      104.92
        13         1.8478    -23.2515      0.2022     -7.0672      114.99
        14         1.6855      2.3003      1.9536      1.9798       65.27
        15        19.6067     12.9626     -2.5728      9.9988       59.75
 1/2[<0|r|b>*<b|rxdel|0> + (<0|rxdel|b>*<b|r|0>)*]
 Rotatory Strengths (R) in cgs (10**-40 erg-esu-cm/Gauss)
       state          XX          YY          ZZ     R(length)
         1        -6.0806     13.5825    -27.4530     -6.6504
         2        -9.3063     -3.0898      2.5213     -3.2916
         3         0.8309     -5.3371      0.1231     -1.4610
         4         9.9316      8.2516     -0.0005      6.0609
         5        45.1173     23.7794     -6.9680     20.6429
         6         1.3999      2.1001     -0.0862      1.1379
         7       -27.0019    -10.2929     -0.0090    -12.4346
         8       -11.5505    -20.3747      4.5463     -9.1263
         9        -0.5827     -7.1212      2.2523     -1.8172
        10        -0.0886     -1.3635      0.4838     -0.3228
        11        17.9589     -3.7652     -0.1595      4.6781
        12        18.0467    -41.2072      3.4908     -6.5565
        13       -32.4276      8.8164     20.2272     -1.1280
        14        -2.1963      4.8386    -15.1545     -4.1708
        15         2.6405     24.8404     -0.4191      9.0206
  1/2[<0|del|b>*<b|r|0> + (<0|r|b>*<b|del|0>)*] (Au)
       state          X           Y           Z        Dip. S.   Osc.(frdel)
         1        -0.1827     -0.1280     -0.0012      0.3119      0.2080
         2        -0.0007     -0.0002     -0.0369      0.0378      0.0252
         3        -0.0001      0.0002     -0.0008      0.0007      0.0005
         4        -0.0002     -0.0001      0.0000      0.0003      0.0002
         5        -0.0015     -0.0004     -0.0035      0.0054      0.0036
         6         0.0000      0.0000      0.0001      0.0000      0.0000
         7        -0.0615     -0.0935      0.0000      0.1550      0.1034
         8         0.0000     -0.0018     -0.0005      0.0023      0.0016
         9         0.0000     -0.0007     -0.0003      0.0010      0.0006
        10         0.0027     -0.0002     -0.0001     -0.0024     -0.0016
        11        -0.0015     -0.0005     -0.0001      0.0021      0.0014
        12        -0.0673     -0.0411      0.0005      0.1079      0.0719
        13        -0.0065     -0.0025      0.0310     -0.0220     -0.0147
        14        -0.0312     -0.0066      0.0049      0.0329      0.0220
        15        -0.0045     -0.0056      0.0014      0.0087      0.0058

 Excitation energies and oscillator strengths:
 
 Excited State   1:      Singlet-A      5.6785 eV  218.34 nm  f=0.3366  <S**2>=0.000
      13 -> 14         0.68962
 This state for optimization and/or second-order correction.
 Total Energy, E(CIS) =   2.00174398819    
 Copying the excited state density for this state as the 1-particle RhoCI density.
 
 Excited State   2:      Singlet-A      6.8420 eV  181.21 nm  f=0.0078  <S**2>=0.000
      13 -> 15         0.66521
      13 -> 16         0.12171
      13 -> 17        -0.14985
 
 Excited State   3:      Singlet-A      7.0052 eV  176.99 nm  f=0.0003  <S**2>=0.000
      11 -> 15        -0.10133
      13 -> 15        -0.12149
      13 -> 16         0.65476
      13 -> 18         0.14631
      13 -> 19         0.13056
 
 Excited State   4:      Singlet-A      7.7005 eV  161.01 nm  f=0.0002  <S**2>=0.000
      10 -> 14        -0.11760
      12 -> 14         0.68864
 
 Excited State   5:      Singlet-A      8.2961 eV  149.45 nm  f=0.0086  <S**2>=0.000
      10 -> 14         0.64568
      11 -> 14         0.24903
 
 Excited State   6:      Singlet-A      8.4903 eV  146.03 nm  f=0.0000  <S**2>=0.000
      13 -> 16        -0.10313
      13 -> 17         0.22620
      13 -> 18         0.58923
      13 -> 20         0.14571
      13 -> 21        -0.22549
 
 Excited State   7:      Singlet-A      9.0709 eV  136.68 nm  f=0.1067  <S**2>=0.000
      10 -> 14        -0.23126
      11 -> 14         0.64229
 
 Excited State   8:      Singlet-A      9.0892 eV  136.41 nm  f=0.0112  <S**2>=0.000
      11 -> 16        -0.18573
      13 -> 15         0.10533
      13 -> 17         0.62050
      13 -> 18        -0.21282
 
 Excited State   9:      Singlet-A      9.6651 eV  128.28 nm  f=0.0030  <S**2>=0.000
      11 -> 15         0.18541
      13 -> 19         0.66169
 
 Excited State  10:      Singlet-A      9.7812 eV  126.76 nm  f=0.0111  <S**2>=0.000
       8 -> 15        -0.14101
       9 -> 16        -0.13444
      10 -> 15        -0.26305
      10 -> 16        -0.19285
      10 -> 17         0.20930
      10 -> 18        -0.13467
      11 -> 15        -0.12311
      12 -> 15        -0.17388
      12 -> 16         0.25225
      12 -> 17         0.18005
      12 -> 18         0.27983
      13 -> 14         0.10807
 
 Excited State  11:      Singlet-A     10.2410 eV  121.07 nm  f=0.0055  <S**2>=0.000
      10 -> 16        -0.14683
      11 -> 15         0.49202
      12 -> 15        -0.35899
      13 -> 16         0.13962
      13 -> 19        -0.15598
 
 Excited State  12:      Singlet-A     10.3020 eV  120.35 nm  f=0.1972  <S**2>=0.000
      10 -> 15         0.14145
      10 -> 16         0.18114
      11 -> 15         0.19904
      11 -> 16         0.11366
      12 -> 15         0.11389
      12 -> 16         0.56257
      12 -> 17        -0.11164
      12 -> 19         0.10251
 
 Excited State  13:      Singlet-A     10.3877 eV  119.36 nm  f=0.0405  <S**2>=0.000
      10 -> 15         0.23115
      11 -> 16        -0.37291
      12 -> 15        -0.19851
      13 -> 17        -0.11442
      13 -> 18        -0.10538
      13 -> 20         0.39105
      13 -> 21        -0.21775
 
 Excited State  14:      Singlet-A     10.4277 eV  118.90 nm  f=0.0883  <S**2>=0.000
      10 -> 15        -0.32879
      10 -> 16         0.11520
      11 -> 15         0.18456
      12 -> 15         0.33355
      12 -> 16        -0.10576
      13 -> 18        -0.16595
      13 -> 20         0.31045
      13 -> 21        -0.22001
 
 Excited State  15:      Singlet-A     10.6045 eV  116.92 nm  f=0.0174  <S**2>=0.000
      10 -> 15         0.15569
      10 -> 16        -0.15926
      11 -> 15        -0.21149
      11 -> 16         0.46562
      13 -> 15         0.12170
      13 -> 18        -0.16937
      13 -> 20         0.11947
      13 -> 21        -0.30111
 SavETr:  write IOETrn=   770 NScale= 10 NData=  16 NLR=1 NState=   15 LETran=     280.
 The selected state is a singlet
 CISAX will form     1 AO SS matrices at one time.
 NMat=     1 NSing=     1 JSym2X= 0.
 Leave Link  914 at Tue Dec 15 17:08:51 2015, MaxMem=    33554432 cpu:         0.1
 (Enter /home/Applications/g09/g09/l1002.exe)
 Minotr:  Closed shell wavefunction.
          Computing CIS/TD-HF/TD-KS derivatives.
          Using Z-Vector for PSCF gradient.
          Skipping F1 and S1 gradient terms here.
          IDoAtm=111111111
          Direct CPHF calculation.
          Differentiating once with respect to electric field.
                with respect to dipole field.
          Differentiating once with respect to nuclear coordinates.
          Electric field/nuclear overlap derivatives assumed to be zero.
          Requested convergence is 1.0D-10 RMS, and 1.0D-09 maximum.
          NewPWx=T KeepS1=F KeepF1=F KeepIn=T MapXYZ=F SortEE=F KeepMc=T.
          MDV=      33495423 using IRadAn=       0.
 Keep J ints in memory in canonical form, NReq=871704.
 FoFCou: FMM=F IPFlag=           0 FMFlag=           0 FMFlg1=           0
         NFxFlg=           0 DoJE=F BraDBF=F KetDBF=F FulRan=T
         wScrn=  0.000000 ICntrl=     600 IOpCl=  2 I1Cent=           0 NGrid=           0
         NMat0=    1 NMatS0=     54 NMatT0=    0 NMatD0=    1 NMtDS0=    0 NMtDT0=    0
 Symmetry not used in FoFCou.
          Solving linear equations separately, MaxMat=       0.
          There are     1 degrees of freedom in the 1st order CPHF.  IDoFFX=0 NUNeed=     1.
 LinEq1:  Iter=  0 NonCon=     1 RMS=6.46D-03 Max=4.34D-02 NDo=     1
 AX will form     1 AO Fock derivatives at one time.
 LinEq1:  Iter=  1 NonCon=     1 RMS=5.41D-04 Max=2.01D-03 NDo=     1
 LinEq1:  Iter=  2 NonCon=     1 RMS=5.77D-05 Max=2.45D-04 NDo=     1
 LinEq1:  Iter=  3 NonCon=     1 RMS=6.66D-06 Max=2.37D-05 NDo=     1
 LinEq1:  Iter=  4 NonCon=     1 RMS=1.05D-06 Max=5.88D-06 NDo=     1
 LinEq1:  Iter=  5 NonCon=     1 RMS=1.60D-07 Max=5.39D-07 NDo=     1
 LinEq1:  Iter=  6 NonCon=     1 RMS=2.25D-08 Max=8.86D-08 NDo=     1
 LinEq1:  Iter=  7 NonCon=     1 RMS=2.58D-09 Max=8.84D-09 NDo=     1
 LinEq1:  Iter=  8 NonCon=     1 RMS=3.39D-10 Max=1.42D-09 NDo=     1
 LinEq1:  Iter=  9 NonCon=     0 RMS=4.04D-11 Max=1.29D-10 NDo=     1
 Linear equations converged to 1.000D-10 1.000D-09 after     9 iterations.
 End of Minotr F.D. properties file   721 does not exist.
 End of Minotr F.D. properties file   722 does not exist.
 End of Minotr F.D. properties file   788 does not exist.
 Leave Link 1002 at Tue Dec 15 17:08:51 2015, MaxMem=    33554432 cpu:         0.0
 (Enter /home/Applications/g09/g09/l601.exe)
 Copying SCF densities to generalized density rwf, IOpCl= 0 IROHF=0.

 **********************************************************************

            Population analysis using the SCF density.

 **********************************************************************

 Orbital symmetries:
       Occupied  (A) (A) (A) (A) (A) (A) (A) (A) (A) (A) (A) (A)
                 (A)
       Virtual   (A) (A) (A) (A) (A) (A) (A) (A) (A) (A) (A)
 The electronic state is 1-A.
 Alpha  occ. eigenvalues --   -2.00383  -1.27966  -0.99484  -0.89838  -0.84557
 Alpha  occ. eigenvalues --   -0.76462  -0.75014  -0.62348  -0.61306  -0.52079
 Alpha  occ. eigenvalues --   -0.51577  -0.50131  -0.37581
 Alpha virt. eigenvalues --    0.04824   0.10941   0.11365   0.19302   0.20596
 Alpha virt. eigenvalues --    0.22722   0.25223   0.27588   0.31293   0.39474
 Alpha virt. eigenvalues --    0.44367
     Molecular Orbital Coefficients:
                           1         2         3         4         5
                           O         O         O         O         O
     Eigenvalues --    -2.00383  -1.27966  -0.99484  -0.89838  -0.84557
   1 1   C  1S          0.08126   0.44516  -0.26121  -0.20823  -0.23160
   2        1PX         0.11097   0.23139   0.06901   0.13857   0.11743
   3        1PY        -0.04399   0.02512   0.24694   0.18434  -0.38908
   4        1PZ         0.00163   0.01159  -0.00108  -0.00623  -0.01196
   5 2   C  1S          0.23550   0.21095  -0.48912   0.09768   0.38675
   6        1PX         0.26104  -0.07544   0.04367   0.42812   0.08429
   7        1PY         0.06552   0.32129   0.02984  -0.28420  -0.15069
   8        1PZ        -0.01157  -0.00917   0.03430  -0.00198  -0.03243
   9 3   O  1S          0.82819  -0.29206   0.00447   0.06207  -0.25608
  10        1PX        -0.04402  -0.10492   0.17900  -0.21392  -0.14588
  11        1PY         0.05480   0.12135   0.14202  -0.23245   0.07596
  12        1PZ         0.00107   0.00075   0.00280   0.00824  -0.00058
  13 4   C  1S          0.24450   0.23384   0.49663  -0.21707   0.32288
  14        1PX        -0.10227  -0.31932   0.09517  -0.21931   0.06584
  15        1PY        -0.25369   0.14448   0.05205   0.48295   0.07682
  16        1PZ         0.00118   0.00328   0.00723   0.00821  -0.00224
  17 5   C  1S          0.08288   0.47327   0.24623   0.26040  -0.16427
  18        1PX         0.02646  -0.04783   0.26727   0.08459   0.42134
  19        1PY        -0.11808  -0.21198   0.05661   0.19086  -0.15277
  20        1PZ        -0.00149  -0.00616   0.00056  -0.00032  -0.00347
  21 6   H  1S          0.00535   0.14767   0.14328   0.22059  -0.17873
  22 7   H  1S          0.04868   0.01919   0.28027  -0.11722   0.20661
  23 8   H  1S          0.04195   0.01248  -0.24593   0.05183   0.23118
  24 9   H  1S          0.00254   0.10901  -0.13146  -0.14524  -0.19376
                           6         7         8         9        10
                           O         O         O         O         O
     Eigenvalues --    -0.76462  -0.75014  -0.62348  -0.61306  -0.52079
   1 1   C  1S         -0.20574   0.05717   0.14201  -0.05677  -0.12861
   2        1PX         0.22159  -0.07877  -0.00435  -0.06804   0.27885
   3        1PY         0.02015  -0.02505  -0.08401  -0.34439  -0.29596
   4        1PZ         0.10714   0.36784  -0.00676   0.00423  -0.04268
   5 2   C  1S         -0.14906   0.08460   0.07459  -0.17571   0.12375
   6        1PX         0.34596  -0.09109   0.36667  -0.39698  -0.13386
   7        1PY         0.25723  -0.06119   0.47497   0.28910   0.26489
   8        1PZ         0.17205   0.51569  -0.02119  -0.00575  -0.22502
   9 3   O  1S         -0.17503   0.04761   0.01770   0.29673  -0.02317
  10        1PX        -0.12176   0.03174  -0.11975   0.09898   0.02205
  11        1PY         0.13650  -0.04313  -0.11739  -0.10087   0.07709
  12        1PZ         0.07598   0.23139   0.00044  -0.01117  -0.01273
  13 4   C  1S         -0.11719   0.02972  -0.10724  -0.13540  -0.09619
  14        1PX        -0.32534   0.11324   0.48378  -0.29885   0.10999
  15        1PY        -0.26247   0.08152   0.33543   0.42552  -0.23903
  16        1PZ         0.16228   0.55874  -0.01754   0.00600   0.17641
  17 5   C  1S         -0.17745   0.04621  -0.13367  -0.04861   0.06855
  18        1PX        -0.01818   0.01034  -0.05799   0.38610  -0.06927
  19        1PY        -0.22823   0.06388   0.00075  -0.04511   0.50206
  20        1PZ         0.10857   0.38163  -0.01071   0.00789   0.08379
  21 6   H  1S         -0.23594   0.06951  -0.07537  -0.08396   0.41838
  22 7   H  1S         -0.28356   0.09105   0.29324  -0.16246  -0.05156
  23 8   H  1S         -0.29892   0.08715  -0.32015  -0.12954  -0.02645
  24 9   H  1S         -0.23068   0.07454   0.06596  -0.02826  -0.31392
                          11        12        13        14        15
                           O         O         O         V         V
     Eigenvalues --    -0.51577  -0.50131  -0.37581   0.04824   0.10941
   1 1   C  1S         -0.03978   0.01807  -0.01885   0.02818  -0.14750
   2        1PX         0.17903   0.54448  -0.01992   0.01486  -0.15515
   3        1PY        -0.08384   0.12500   0.02592  -0.02795   0.13168
   4        1PZ         0.21939  -0.02060   0.58740  -0.67369  -0.02077
   5 2   C  1S          0.06143  -0.08566  -0.01662  -0.00396  -0.03924
   6        1PX        -0.09386  -0.27120   0.01262   0.00452  -0.05127
   7        1PY         0.05793  -0.12233  -0.00929  -0.02058   0.22872
   8        1PZ         0.64374  -0.10179  -0.36111   0.21015   0.00899
   9 3   O  1S          0.01918   0.12575  -0.00293  -0.00049   0.02882
  10        1PX         0.02862   0.13029  -0.00912   0.00521  -0.10946
  11        1PY        -0.00283  -0.12924  -0.00160  -0.00635   0.08903
  12        1PZ         0.00005  -0.00389  -0.21647  -0.00346   0.00158
  13 4   C  1S         -0.04951  -0.12926   0.00884  -0.00508  -0.07851
  14        1PX         0.06785   0.22309  -0.00701   0.00111  -0.45860
  15        1PY        -0.03182   0.16972   0.00848  -0.00178   0.06801
  16        1PZ        -0.62458   0.11748  -0.35864  -0.21062   0.00267
  17 5   C  1S          0.02685   0.05327   0.00414   0.00883  -0.17870
  18        1PX        -0.06135  -0.26656  -0.00552  -0.00386  -0.27899
  19        1PY         0.09945  -0.35337  -0.02917  -0.02007   0.17211
  20        1PZ        -0.17969   0.02731   0.58784   0.67403   0.01090
  21 6   H  1S          0.09168  -0.22503  -0.01509   0.01156  -0.10009
  22 7   H  1S          0.00712   0.11230   0.00490   0.00520   0.62491
  23 8   H  1S          0.01661   0.12210   0.00173  -0.01674   0.28011
  24 9   H  1S         -0.16156  -0.38040   0.01092  -0.00140  -0.13959
                          16        17        18        19        20
                           V         V         V         V         V
     Eigenvalues --     0.11365   0.19302   0.20596   0.22722   0.25223
   1 1   C  1S         -0.08082  -0.05476   0.04741   0.08305   0.56563
   2        1PX        -0.02266   0.43055   0.37211  -0.18659  -0.07437
   3        1PY         0.35284  -0.20517   0.37162   0.35453  -0.19618
   4        1PZ        -0.02678   0.01578  -0.00633  -0.00305   0.02686
   5 2   C  1S         -0.06470  -0.32046   0.26985   0.23724  -0.29777
   6        1PX         0.07202   0.14481  -0.18909  -0.12005   0.25172
   7        1PY         0.45604  -0.01998  -0.03176   0.04891  -0.10857
   8        1PZ         0.01311   0.00646  -0.00225  -0.00554  -0.00051
   9 3   O  1S          0.01025  -0.02470   0.01287  -0.01343  -0.04375
  10        1PX         0.01550   0.01692  -0.00457   0.00974   0.10504
  11        1PY         0.08173  -0.00806   0.02134  -0.03367  -0.11483
  12        1PZ         0.00581  -0.00235  -0.01254  -0.00635   0.02039
  13 4   C  1S          0.03663  -0.32978   0.00171  -0.42703  -0.08453
  14        1PX         0.23067  -0.02868  -0.06165   0.03795  -0.03951
  15        1PY         0.05464  -0.16880  -0.02857  -0.26173  -0.14066
  16        1PZ        -0.01128   0.00030   0.00179  -0.00330  -0.00691
  17 5   C  1S         -0.02388   0.00047  -0.08740   0.05463   0.17103
  18        1PX         0.20075   0.21798   0.24271   0.47814   0.21282
  19        1PY         0.04821  -0.10316   0.47757  -0.27791   0.28826
  20        1PZ         0.02076  -0.00786   0.02104  -0.00369   0.00081
  21 6   H  1S         -0.07397   0.16039  -0.43576   0.24348  -0.32950
  22 7   H  1S         -0.34333   0.26145   0.03464   0.24092   0.07784
  23 8   H  1S          0.64668   0.24383  -0.23079  -0.12704   0.15049
  24 9   H  1S         -0.01856   0.54258   0.25832  -0.25179  -0.34858
                          21        22        23        24
                           V         V         V         V
     Eigenvalues --     0.27588   0.31293   0.39474   0.44367
   1 1   C  1S         -0.41604  -0.01305   0.08655   0.01725
   2        1PX        -0.19930   0.00860  -0.03049  -0.00743
   3        1PY        -0.15589   0.00959  -0.03263  -0.03212
   4        1PZ        -0.01764   0.03243   0.00328   0.00208
   5 2   C  1S          0.11551   0.00774  -0.17495   0.19737
   6        1PX        -0.02231  -0.01355  -0.14201   0.22411
   7        1PY         0.11224   0.00151  -0.16041  -0.07630
   8        1PZ        -0.00213  -0.22625   0.00345  -0.00600
   9 3   O  1S         -0.01479   0.00128   0.13168   0.00074
  10        1PX         0.04483   0.03441  -0.58675   0.67712
  11        1PY        -0.04569  -0.00192   0.67495   0.58996
  12        1PZ         0.00318   0.94420   0.02629  -0.02367
  13 4   C  1S         -0.19418  -0.00033  -0.17887  -0.19770
  14        1PX         0.10814  -0.00943   0.18077  -0.04399
  15        1PY        -0.15694   0.00449   0.11396   0.23223
  16        1PZ        -0.00417  -0.22963  -0.00579   0.00338
  17 5   C  1S          0.68472  -0.00859   0.09930  -0.01885
  18        1PX        -0.08827  -0.00085   0.03131  -0.03358
  19        1PY        -0.00792  -0.00429   0.02828  -0.00117
  20        1PZ        -0.00468   0.03639   0.00101  -0.00023
  21 6   H  1S         -0.40874   0.00663  -0.05736  -0.00150
  22 7   H  1S          0.05659   0.00225  -0.02409   0.00198
  23 8   H  1S         -0.00952  -0.00817  -0.02747  -0.00429
  24 9   H  1S          0.10332   0.01004  -0.04652   0.00150
     Density Matrix:
                           1         2         3         4         5
   1 1   C  1S          0.91559
   2        1PX        -0.08335   1.14047
   3        1PY         0.08008  -0.00386   0.97305
   4        1PZ        -0.01451  -0.00102   0.00481   1.08519
   5 2   C  1S          0.33475   0.14254  -0.52421   0.02444   1.18166
   6        1PX        -0.23684  -0.01809   0.34521  -0.01331   0.27428
   7        1PY         0.38169   0.16899  -0.42548   0.01779  -0.05870
   8        1PZ        -0.01272  -0.00572   0.01169   0.29859   0.01931
   9 3   O  1S          0.02289   0.01172  -0.03819   0.00282   0.01031
  10        1PX        -0.03184  -0.03376   0.08136  -0.00249  -0.41877
  11        1PY        -0.00283   0.02469  -0.05408  -0.00236  -0.03771
  12        1PZ         0.00408  -0.00084  -0.00077  -0.06671   0.02445
  13 4   C  1S         -0.01048  -0.00303   0.04267  -0.00061  -0.00116
  14        1PX         0.00300   0.00063  -0.00743   0.00070   0.02301
  15        1PY         0.05760   0.01942  -0.00086   0.00675  -0.05556
  16        1PZ         0.01049   0.00471  -0.00316  -0.26915  -0.00509
  17 5   C  1S          0.30169   0.33253   0.37685   0.01736  -0.00949
  18        1PX        -0.44668  -0.26935  -0.44249  -0.02149  -0.04273
  19        1PY        -0.28838  -0.27260  -0.16822  -0.02538   0.01150
  20        1PZ        -0.03769  -0.02829   0.00214   0.90765  -0.00432
  21 6   H  1S          0.01910   0.02673   0.03557   0.00160   0.08373
  22 7   H  1S          0.07709   0.04985   0.03540   0.00605   0.06325
  23 8   H  1S          0.08431   0.04810  -0.11521   0.00464   0.53068
  24 9   H  1S          0.52121  -0.81119   0.15128  -0.00205   0.06596
                           6         7         8         9        10
   6        1PX         1.57319
   7        1PY         0.01182   1.35910
   8        1PZ        -0.00921  -0.00552   1.80853
   9 3   O  1S          0.06875   0.01477  -0.00078   1.95727
  10        1PX        -0.53789  -0.03670   0.02729   0.17117   0.34073
  11        1PY        -0.01727   0.18070  -0.00001  -0.19868   0.03960
  12        1PZ         0.02730  -0.00076   0.42799  -0.00761  -0.00636
  13 4   C  1S          0.05204  -0.03132  -0.00007   0.01022   0.09425
  14        1PX         0.00937   0.00912  -0.00338  -0.02489   0.16308
  15        1PY        -0.03343   0.01270   0.00046  -0.06699  -0.11368
  16        1PZ        -0.00248  -0.00036  -0.01511   0.00113   0.00946
  17 5   C  1S         -0.05417   0.00545  -0.00138   0.02365   0.00497
  18        1PX        -0.00119  -0.00734   0.00379   0.03714  -0.03626
  19        1PY         0.01761   0.00314   0.00260  -0.01823   0.02487
  20        1PZ         0.00214   0.00661  -0.26744  -0.00185  -0.00550
  21 6   H  1S         -0.02029   0.07020  -0.00116   0.00715   0.00625
  22 7   H  1S          0.06437   0.01334  -0.00345   0.00434   0.08164
  23 8   H  1S         -0.33496  -0.68575  -0.02400   0.00530  -0.02306
  24 9   H  1S          0.03496   0.02984  -0.00008   0.00660  -0.03440
                          11        12        13        14        15
  11        1PY         0.32961
  12        1PZ        -0.00016   0.21311
  13 4   C  1S          0.41135  -0.00180   1.17085
  14        1PX        -0.14265   0.00471   0.00739   1.36490
  15        1PY        -0.51467  -0.00244  -0.28025   0.04598   1.56644
  16        1PZ        -0.00063   0.43308  -0.00720   0.00703  -0.00285
  17 5   C  1S          0.03326  -0.00181   0.34394  -0.34010   0.29994
  18        1PX         0.08034   0.00196   0.49237  -0.32074   0.39438
  19        1PY        -0.05087   0.00157  -0.22842   0.22381  -0.10902
  20        1PZ         0.00076  -0.06396  -0.00275   0.00273  -0.00643
  21 6   H  1S          0.03385   0.00064   0.06949  -0.03762  -0.02884
  22 7   H  1S          0.01711   0.00078   0.52872   0.73537   0.21311
  23 8   H  1S         -0.07476  -0.00419   0.05976  -0.02286  -0.05853
  24 9   H  1S         -0.00091   0.00360   0.08651  -0.07014   0.03133
                          16        17        18        19        20
  16        1PZ         1.80530
  17 5   C  1S          0.01022   0.89682
  18        1PX         0.00896  -0.05950   0.98323
  19        1PY        -0.00949   0.08462   0.02949   1.13546
  20        1PZ         0.30095   0.00362  -0.00150  -0.00275   1.08655
  21 6   H  1S          0.00124   0.54148  -0.04570   0.81346   0.00867
  22 7   H  1S         -0.00529   0.08711   0.10391  -0.06962  -0.00166
  23 8   H  1S          0.00385   0.07131  -0.04057  -0.04475   0.00254
  24 9   H  1S         -0.00307   0.00861  -0.02195  -0.01962   0.00240
                          21        22        23        24
  21 6   H  1S          0.86102
  22 7   H  1S         -0.00205   0.70828
  23 8   H  1S          0.02298   0.02021   0.70127
  24 9   H  1S         -0.00767   0.02173  -0.00267   0.84239
    Full Mulliken population analysis:
                           1         2         3         4         5
   1 1   C  1S          0.91559
   2        1PX         0.00000   1.14047
   3        1PY         0.00000   0.00000   0.97305
   4        1PZ         0.00000   0.00000   0.00000   1.08519
   5 2   C  1S          0.00000   0.00000   0.00000   0.00000   1.18166
   6        1PX         0.00000   0.00000   0.00000   0.00000   0.00000
   7        1PY         0.00000   0.00000   0.00000   0.00000   0.00000
   8        1PZ         0.00000   0.00000   0.00000   0.00000   0.00000
   9 3   O  1S          0.00000   0.00000   0.00000   0.00000   0.00000
  10        1PX         0.00000   0.00000   0.00000   0.00000   0.00000
  11        1PY         0.00000   0.00000   0.00000   0.00000   0.00000
  12        1PZ         0.00000   0.00000   0.00000   0.00000   0.00000
  13 4   C  1S          0.00000   0.00000   0.00000   0.00000   0.00000
  14        1PX         0.00000   0.00000   0.00000   0.00000   0.00000
  15        1PY         0.00000   0.00000   0.00000   0.00000   0.00000
  16        1PZ         0.00000   0.00000   0.00000   0.00000   0.00000
  17 5   C  1S          0.00000   0.00000   0.00000   0.00000   0.00000
  18        1PX         0.00000   0.00000   0.00000   0.00000   0.00000
  19        1PY         0.00000   0.00000   0.00000   0.00000   0.00000
  20        1PZ         0.00000   0.00000   0.00000   0.00000   0.00000
  21 6   H  1S          0.00000   0.00000   0.00000   0.00000   0.00000
  22 7   H  1S          0.00000   0.00000   0.00000   0.00000   0.00000
  23 8   H  1S          0.00000   0.00000   0.00000   0.00000   0.00000
  24 9   H  1S          0.00000   0.00000   0.00000   0.00000   0.00000
                           6         7         8         9        10
   6        1PX         1.57319
   7        1PY         0.00000   1.35910
   8        1PZ         0.00000   0.00000   1.80853
   9 3   O  1S          0.00000   0.00000   0.00000   1.95727
  10        1PX         0.00000   0.00000   0.00000   0.00000   0.34073
  11        1PY         0.00000   0.00000   0.00000   0.00000   0.00000
  12        1PZ         0.00000   0.00000   0.00000   0.00000   0.00000
  13 4   C  1S          0.00000   0.00000   0.00000   0.00000   0.00000
  14        1PX         0.00000   0.00000   0.00000   0.00000   0.00000
  15        1PY         0.00000   0.00000   0.00000   0.00000   0.00000
  16        1PZ         0.00000   0.00000   0.00000   0.00000   0.00000
  17 5   C  1S          0.00000   0.00000   0.00000   0.00000   0.00000
  18        1PX         0.00000   0.00000   0.00000   0.00000   0.00000
  19        1PY         0.00000   0.00000   0.00000   0.00000   0.00000
  20        1PZ         0.00000   0.00000   0.00000   0.00000   0.00000
  21 6   H  1S          0.00000   0.00000   0.00000   0.00000   0.00000
  22 7   H  1S          0.00000   0.00000   0.00000   0.00000   0.00000
  23 8   H  1S          0.00000   0.00000   0.00000   0.00000   0.00000
  24 9   H  1S          0.00000   0.00000   0.00000   0.00000   0.00000
                          11        12        13        14        15
  11        1PY         0.32961
  12        1PZ         0.00000   0.21311
  13 4   C  1S          0.00000   0.00000   1.17085
  14        1PX         0.00000   0.00000   0.00000   1.36490
  15        1PY         0.00000   0.00000   0.00000   0.00000   1.56644
  16        1PZ         0.00000   0.00000   0.00000   0.00000   0.00000
  17 5   C  1S          0.00000   0.00000   0.00000   0.00000   0.00000
  18        1PX         0.00000   0.00000   0.00000   0.00000   0.00000
  19        1PY         0.00000   0.00000   0.00000   0.00000   0.00000
  20        1PZ         0.00000   0.00000   0.00000   0.00000   0.00000
  21 6   H  1S          0.00000   0.00000   0.00000   0.00000   0.00000
  22 7   H  1S          0.00000   0.00000   0.00000   0.00000   0.00000
  23 8   H  1S          0.00000   0.00000   0.00000   0.00000   0.00000
  24 9   H  1S          0.00000   0.00000   0.00000   0.00000   0.00000
                          16        17        18        19        20
  16        1PZ         1.80530
  17 5   C  1S          0.00000   0.89682
  18        1PX         0.00000   0.00000   0.98323
  19        1PY         0.00000   0.00000   0.00000   1.13546
  20        1PZ         0.00000   0.00000   0.00000   0.00000   1.08655
  21 6   H  1S          0.00000   0.00000   0.00000   0.00000   0.00000
  22 7   H  1S          0.00000   0.00000   0.00000   0.00000   0.00000
  23 8   H  1S          0.00000   0.00000   0.00000   0.00000   0.00000
  24 9   H  1S          0.00000   0.00000   0.00000   0.00000   0.00000
                          21        22        23        24
  21 6   H  1S          0.86102
  22 7   H  1S          0.00000   0.70828
  23 8   H  1S          0.00000   0.00000   0.70127
  24 9   H  1S          0.00000   0.00000   0.00000   0.84239
     Gross orbital populations:
                           1
   1 1   C  1S          0.91559
   2        1PX         1.14047
   3        1PY         0.97305
   4        1PZ         1.08519
   5 2   C  1S          1.18166
   6        1PX         1.57319
   7        1PY         1.35910
   8        1PZ         1.80853
   9 3   O  1S          1.95727
  10        1PX         0.34073
  11        1PY         0.32961
  12        1PZ         0.21311
  13 4   C  1S          1.17085
  14        1PX         1.36490
  15        1PY         1.56644
  16        1PZ         1.80530
  17 5   C  1S          0.89682
  18        1PX         0.98323
  19        1PY         1.13546
  20        1PZ         1.08655
  21 6   H  1S          0.86102
  22 7   H  1S          0.70828
  23 8   H  1S          0.70127
  24 9   H  1S          0.84239
          Condensed to atoms (all electrons):
               1          2          3          4          5          6
     1  C    4.114297   0.000000   0.000000   0.000000   0.000000   0.000000
     2  C    0.000000   5.922483   0.000000   0.000000   0.000000   0.000000
     3  O    0.000000   0.000000   2.840719   0.000000   0.000000   0.000000
     4  C    0.000000   0.000000   0.000000   5.907492   0.000000   0.000000
     5  C    0.000000   0.000000   0.000000   0.000000   4.102057   0.000000
     6  H    0.000000   0.000000   0.000000   0.000000   0.000000   0.861017
     7  H    0.000000   0.000000   0.000000   0.000000   0.000000   0.000000
     8  H    0.000000   0.000000   0.000000   0.000000   0.000000   0.000000
     9  H    0.000000   0.000000   0.000000   0.000000   0.000000   0.000000
               7          8          9
     1  C    0.000000   0.000000   0.000000
     2  C    0.000000   0.000000   0.000000
     3  O    0.000000   0.000000   0.000000
     4  C    0.000000   0.000000   0.000000
     5  C    0.000000   0.000000   0.000000
     6  H    0.000000   0.000000   0.000000
     7  H    0.708275   0.000000   0.000000
     8  H    0.000000   0.701267   0.000000
     9  H    0.000000   0.000000   0.842392
 Mulliken charges:
               1
     1  C   -0.114297
     2  C   -1.922483
     3  O    3.159281
     4  C   -1.907492
     5  C   -0.102057
     6  H    0.138983
     7  H    0.291725
     8  H    0.298733
     9  H    0.157608
 Sum of Mulliken charges =   0.00000
 Mulliken charges with hydrogens summed into heavy atoms:
               1
     1  C    0.043311
     2  C   -1.623750
     3  O    3.159281
     4  C   -1.615768
     5  C    0.036925
 Charge=              0.0000 electrons
 Dipole moment (field-independent basis, Debye):
    X=              6.6823    Y=             -7.8906    Z=             -0.4337  Tot=             10.3491
 N-N= 1.059080170244D+02 E-N=-1.711813322804D+02  KE=-1.567408809507D+01
 Orbital energies and kinetic energies (alpha):
                                 1                 2
   1         O                -2.003832         -1.400342
   2         O                -1.279658         -1.062718
   3         O                -0.994839         -0.874934
   4         O                -0.898376         -0.590559
   5         O                -0.845569         -0.687054
   6         O                -0.764620         -0.606304
   7         O                -0.750136         -0.554785
   8         O                -0.623479         -0.377099
   9         O                -0.613060         -0.305575
  10         O                -0.520786         -0.423182
  11         O                -0.515775         -0.334102
  12         O                -0.501307         -0.349321
  13         O                -0.375808         -0.271070
  14         V                 0.048236         -0.161950
  15         V                 0.109410         -0.172383
  16         V                 0.113650         -0.186194
  17         V                 0.193023         -0.170580
  18         V                 0.205956         -0.121513
  19         V                 0.227215         -0.091848
  20         V                 0.252228         -0.112697
  21         V                 0.275876         -0.118373
  22         V                 0.312935          0.497617
  23         V                 0.394742          0.523472
  24         V                 0.443671          0.596794
 Total kinetic energy from orbitals=-1.567408809507D+01
 Leave Link  601 at Tue Dec 15 17:08:52 2015, MaxMem=    33554432 cpu:         0.0
 (Enter /home/Applications/g09/g09/l701.exe)
 Compute integral first derivatives.
 ... and contract with generalized density number  6.
 Leave Link  701 at Tue Dec 15 17:08:52 2015, MaxMem=    33554432 cpu:         0.0
 (Enter /home/Applications/g09/g09/l702.exe)
 L702 exits ... SP integral derivatives will be done elsewhere.
 Leave Link  702 at Tue Dec 15 17:08:52 2015, MaxMem=    33554432 cpu:         0.0
 (Enter /home/Applications/g09/g09/l703.exe)
 Compute integral first derivatives, UseDBF=F ICtDFT=           0.
 Integral derivatives from FoFJK, PRISM(SPDF).
 Calling FoFJK, ICntrl=  10005127 FMM=F ISym2X=0 I1Cent= 0 IOpClX= 0 NMat=1 NMatS=1 NMatT=0.
 FoFJK:  IHMeth= 8 ICntrl=10005127 DoSepK=F KAlg= 0 I1Cent=   0 FoldK=F
 IRaf=         0 NMat=   1 IRICut=       1 DoRegI=T DoRafI=F ISym2E= 0.
 FoFCou: FMM=F IPFlag=           0 FMFlag=      100000 FMFlg1=         800
         NFxFlg=           0 DoJE=F BraDBF=F KetDBF=F FulRan=T
         wScrn=  0.000000 ICntrl=10005127 IOpCl=  0 I1Cent=           0 NGrid=           0
         NMat0=    1 NMatS0=      1 NMatT0=    0 NMatD0=    1 NMtDS0=    0 NMtDT0=    0
 Symmetry not used in FoFCou.
 Leave Link  703 at Tue Dec 15 17:08:52 2015, MaxMem=    33554432 cpu:         0.0
 (Enter /home/Applications/g09/g09/l716.exe)
 Dipole        = 2.86579938D+00-3.39287065D+00-1.63609549D-01
 ***** Axes restored to original set *****
 -------------------------------------------------------------------
 Center     Atomic                   Forces (Hartrees/Bohr)
 Number     Number              X              Y              Z
 -------------------------------------------------------------------
      1        6           0.160221582   -0.120244275   -0.000272502
      2        6          -0.159079950   -0.161323312   -0.002983439
      3        8          -0.052060075   -0.025325370   -0.006397215
      4        6          -0.188728424    0.168582248    0.007087816
      5        6           0.126513566    0.036884129    0.004692137
      6        1           0.107330113    0.085075112   -0.005081155
      7        1          -0.011580104    0.075252283    0.000846167
      8        1          -0.000392881   -0.048422468   -0.003333541
      9        1           0.017776173   -0.010478348    0.005441732
 -------------------------------------------------------------------
 Cartesian Forces:  Max     0.188728424 RMS     0.086865593
 Z-matrix is all fixed cartesians, so copy forces.
 Force constants in Cartesian coordinates: 
                1             2             3             4             5 
      1  0.810172D+00
      2 -0.199008D-01  0.792172D+00
      3  0.267098D-01  0.594623D-03  0.193239D+00
      4 -0.454741D+00 -0.934361D-01 -0.303617D-01  0.879838D+00
      5 -0.692550D-01 -0.199122D+00 -0.841713D-02 -0.408906D-01  0.876348D+00
      6 -0.273104D-01 -0.761336D-02 -0.883662D-01  0.886298D-02  0.822282D-02
      7 -0.838676D-02  0.285850D-01  0.194787D-02 -0.316030D+00  0.189295D+00
      8 -0.637844D-02  0.218756D-01  0.103253D-02  0.236125D+00 -0.398686D+00
      9 -0.174419D-02  0.271013D-02  0.862945D-02  0.167069D-01 -0.180585D-01
     10  0.888313D-02  0.170803D-03 -0.161934D-03  0.248841D-01  0.191267D-01
     11  0.355719D-01  0.652913D-03 -0.353088D-03 -0.188154D-01 -0.144684D-01
     12 -0.114716D-02  0.365691D-03 -0.119426D-02 -0.166185D-02 -0.156087D-02
     13 -0.171144D+00  0.188247D-01 -0.131883D-02  0.983487D-02 -0.343434D-01
     14 -0.468805D-02 -0.446835D+00  0.829951D-02  0.205441D-03 -0.732679D-03
     15 -0.160690D-02  0.114155D-01 -0.884462D-01  0.789885D-03 -0.366857D-02
     16  0.184584D-01  0.350269D-03  0.343245D-04  0.457292D-05 -0.121371D-05
     17 -0.251740D-01 -0.476233D-03  0.244915D-04 -0.746965D-05  0.198254D-05
     18  0.148288D-02  0.465553D-03  0.211876D-01 -0.365965D-03  0.971320D-04
     19  0.000000D+00  0.000000D+00  0.443200D-04 -0.116457D-05  0.264527D-05
     20  0.000000D+00  0.000000D+00 -0.865566D-05  0.000000D+00  0.220337D-05
     21  0.810020D-04  0.138150D-03  0.661659D-02  0.852142D-04 -0.193560D-03
     22  0.716050D-02 -0.253000D-01  0.218372D-02 -0.138813D+00 -0.810856D-01
     23 -0.309474D-02  0.106219D-01  0.402970D-03 -0.772321D-01 -0.283891D+00
     24 -0.333011D-03 -0.366731D-02  0.207643D-01  0.818850D-02  0.201185D-01
     25 -0.210403D+00  0.907052D-01  0.922425D-03 -0.497715D-02  0.171518D-01
     26  0.929192D-01 -0.178889D+00 -0.157526D-02 -0.594737D-02  0.205485D-01
     27  0.386791D-02 -0.440896D-02 -0.724299D-01 -0.224392D-02  0.346016D-02
                6             7             8             9            10 
      6  0.174021D+00
      7  0.103530D-01  0.614315D+00
      8 -0.145275D-01  0.122630D-01  0.790617D+00
      9 -0.489110D-01 -0.694137D-02  0.226123D-01  0.621128D-01
     10  0.384143D-03 -0.326215D+00 -0.247623D+00 -0.569393D-02  0.970566D+00
     11 -0.408366D-03 -0.201717D+00 -0.421013D+00 -0.861236D-02  0.326392D-01
     12 -0.226933D-02 -0.346186D-02 -0.746486D-02 -0.519896D-01  0.148384D-02
     13  0.124437D-02 -0.752623D-02  0.567107D-02  0.452550D-03 -0.514358D+00
     14  0.204796D-03 -0.300516D-01  0.227810D-01  0.292925D-03  0.936790D-01
     15 -0.937151D-03 -0.460758D-03  0.488340D-03  0.906972D-02  0.366389D-02
     16 -0.629770D-04  0.000000D+00 -0.103658D-05  0.455477D-04 -0.463771D-02
     17  0.102870D-03  0.000000D+00  0.000000D+00 -0.359995D-04  0.632733D-02
     18  0.503997D-02  0.103933D-04 -0.176691D-03  0.776389D-02  0.318667D-03
     19 -0.810577D-04  0.222052D-01 -0.168357D-01  0.131577D-03 -0.159131D+00
     20 -0.675166D-04  0.109847D-01 -0.832802D-02  0.461035D-04  0.956766D-01
     21  0.593117D-02  0.234654D-03 -0.267227D-03  0.410910D-02 -0.135407D-03
     22  0.625905D-02  0.216270D-01  0.167600D-01 -0.270627D-02  0.723210D-05
     23  0.138963D-01 -0.937542D-02 -0.727604D-02  0.141273D-02  0.206569D-05
     24 -0.630712D-01 -0.144489D-02 -0.128188D-02  0.389219D-02  0.800952D-04
     25  0.350826D-03  0.111689D-04  0.195521D-04 -0.250808D-03  0.169869D-05
     26  0.190004D-03  0.163612D-04  0.286417D-04 -0.367405D-03  0.128419D-05
     27  0.185630D-01 -0.237062D-03 -0.414998D-03  0.532344D-02  0.606380D-04
               11            12            13            14            15 
     11  0.922978D+00
     12  0.105356D-01  0.198913D+00
     13  0.705625D-01  0.397160D-02  0.991018D+00
     14 -0.210590D+00 -0.990035D-03  0.661751D-01  0.857663D+00
     15 -0.109784D-02 -0.107505D+00 -0.204278D-02 -0.778793D-02  0.228269D+00
     16 -0.185610D-01  0.127202D-04 -0.332198D+00 -0.152067D+00  0.336434D-03
     17  0.253206D-01  0.746138D-04 -0.151419D+00 -0.235767D+00  0.714446D-03
     18  0.507124D-03  0.273235D-01 -0.755175D-03  0.313747D-04 -0.945830D-01
     19  0.100333D+00  0.160587D-03  0.660356D-02  0.264259D-01  0.803906D-04
     20 -0.302878D+00 -0.120878D-02  0.326675D-02  0.130764D-01 -0.911525D-04
     21 -0.492526D-03 -0.738072D-01  0.608335D-04 -0.552937D-03  0.283259D-01
     22 -0.164274D-04  0.503376D-03  0.378911D-04 -0.100568D-04 -0.521826D-03
     23 -0.469214D-05  0.143779D-03 -0.412662D-04  0.109526D-04  0.568307D-03
     24 -0.181933D-03  0.557487D-02 -0.387388D-03  0.102818D-03  0.533500D-02
     25  0.289713D-05  0.138756D-03  0.177323D-01  0.330888D-03 -0.238342D-03
     26  0.219020D-05  0.104898D-03  0.213038D-01  0.392274D-03 -0.541085D-03
     27  0.103419D-03  0.495317D-02 -0.122518D-02  0.399475D-03  0.204712D-01
               16            17            18            19            20 
     16  0.318370D+00
     17  0.170277D+00  0.210923D+00
     18 -0.396134D-03 -0.774666D-03  0.524961D-01
     19  0.000000D+00  0.000000D+00 -0.766718D-04  0.130323D+00
     20  0.000000D+00  0.000000D+00  0.149739D-04 -0.109927D+00  0.298127D+00
     21 -0.671516D-04  0.530746D-04 -0.114464D-01 -0.259145D-03  0.131503D-02
     22  0.000000D+00  0.000000D+00  0.000000D+00  0.000000D+00  0.000000D+00
     23  0.000000D+00  0.000000D+00  0.000000D+00  0.000000D+00  0.000000D+00
     24  0.000000D+00  0.000000D+00  0.000000D+00  0.000000D+00  0.000000D+00
     25  0.272393D-05 -0.444942D-05 -0.217993D-03  0.000000D+00  0.000000D+00
     26  0.205926D-05 -0.336371D-05 -0.164800D-03  0.000000D+00  0.000000D+00
     27  0.972361D-04 -0.158831D-03 -0.778169D-02  0.000000D+00  0.000000D+00
               21            22            23            24            25 
     21  0.402708D-01
     22  0.000000D+00  0.110015D+00
     23  0.000000D+00  0.897034D-01  0.280483D+00
     24  0.000000D+00 -0.646132D-02 -0.156146D-01  0.351037D-01
     25  0.000000D+00 -0.350178D-04  0.381370D-04  0.358012D-03  0.197667D+00
     26  0.000000D+00 -0.512971D-04  0.558663D-04  0.524446D-03 -0.108244D+00
     27  0.000000D+00  0.743260D-03 -0.809464D-03 -0.759887D-02 -0.106288D-02
               26            27 
     26  0.157865D+00
     27  0.182920D-02  0.384996D-01
 Leave Link  716 at Tue Dec 15 17:08:52 2015, MaxMem=    33554432 cpu:         0.0
 (Enter /home/Applications/g09/g09/l103.exe)

 GradGradGradGradGradGradGradGradGradGradGradGradGradGradGradGradGradGrad
 Berny optimization.
 Search for a local minimum.
 Step number   1 out of a maximum of    2
 All quantities printed in internal units (Hartrees-Bohrs-Radians)
 Second derivative matrix not updated -- first step.
 ITU=  0
     Eigenvalues ---    0.01920   0.03130   0.06565   0.07606   0.07906
     Eigenvalues ---    0.08852   0.12932   0.14578   0.15924   0.23619
     Eigenvalues ---    0.26758   0.29353   0.40044   0.42628   0.61210
     Eigenvalues ---    0.84142   1.13381   1.40224   1.43638   1.52449
     Eigenvalues ---    1.71218
 Quadratic step=1.430D+00 exceeds max=3.000D-01 adjusted using Lamda=-9.118D-01.
 Angle between NR and scaled steps=  25.17 degrees.
 Angle between quadratic step and forces=  18.41 degrees.
 Linear search not attempted -- first point.
 TrRot= -0.006963 -0.005183 -0.000128  1.227168 -0.000186 -1.227002
 Variable       Old X    -DE/DX   Delta X   Delta X   Delta X     New X
                                 (Linear)    (Quad)   (Total)
    X1        1.84369   0.16022   0.00000   0.08408   0.07734   1.92103
    Y1       -1.26317  -0.12024   0.00000  -0.07640  -0.08127  -1.34444
    Z1        0.08397  -0.00027   0.00000  -0.00395  -0.00419   0.07978
    X2       -0.66697  -0.15908   0.00000  -0.07579  -0.08240  -0.74937
    Y2       -1.98828  -0.16132   0.00000  -0.10031  -0.10560  -2.09388
    Z2       -0.08436  -0.00298   0.00000   0.00127   0.00073  -0.08363
    X3       -2.20910  -0.05206   0.00000  -0.03433  -0.04129  -2.25040
    Y3        0.01582  -0.02533   0.00000  -0.00979  -0.01534   0.00048
    Z3        0.00320  -0.00640   0.00000  -0.00561  -0.00588  -0.00268
    X4       -0.69477  -0.18873   0.00000  -0.09265  -0.09996  -0.79474
    Y4        2.01346   0.16858   0.00000   0.10621   0.10089   2.11435
    Z4        0.04663   0.00709   0.00000   0.00511   0.00530   0.05193
    X5        1.79341   0.12651   0.00000   0.07142   0.06422   1.85763
    Y5        1.39174   0.03688   0.00000   0.03863   0.03375   1.42550
    Z5        0.02915   0.00469   0.00000   0.00479   0.00503   0.03419
    X6        3.34813   0.10733   0.00000   0.10350   0.09610   3.44422
    Y6        2.53149   0.08508   0.00000   0.08028   0.07566   2.60715
    Z6        0.02532  -0.00508   0.00000  -0.00519  -0.00464   0.02067
    X7       -1.60500  -0.01158   0.00000  -0.02226  -0.02989  -1.63488
    Y7        3.85327   0.07525   0.00000   0.09618   0.09072   3.94399
    Z7        0.05514   0.00085   0.00000   0.00063   0.00110   0.05623
    X8       -1.49709  -0.00039   0.00000  -0.01077  -0.01708  -1.51417
    Y8       -3.92242  -0.04842   0.00000  -0.06555  -0.07099  -3.99341
    Z8        0.04048  -0.00333   0.00000  -0.00128  -0.00220   0.03827
    X9        3.51219   0.01778   0.00000   0.03949   0.03297   3.54516
    Y9       -2.65294  -0.01048   0.00000  -0.02321  -0.02782  -2.68076
    Z9        0.06666   0.00544   0.00000   0.00513   0.00476   0.07142
         Item               Value     Threshold  Converged?
 Maximum Force            0.188728     0.000450     NO 
 RMS     Force            0.086866     0.000300     NO 
 Maximum Displacement     0.105601     0.001800     NO 
 RMS     Displacement     0.057521     0.001200     NO 
 Predicted change in Energy=-1.052833D-01
 GradGradGradGradGradGradGradGradGradGradGradGradGradGradGradGradGradGrad

 Leave Link  103 at Tue Dec 15 17:08:52 2015, MaxMem=    33554432 cpu:         0.0
 (Enter /home/Applications/g09/g09/l9999.exe)
 1\1\GINC-DUSTIN-DESKTOP\Force\RAM1-FC\STO-3G\C4H4O1\DUSTIN\15-Dec-2015
 \0\\#P AM1(Input,print) CIS(Singlets,NStates=15) pop(full) force\\AM1-
 Reparam Input\\0,1\C,0.975639,-0.66844,0.044435\C,-0.352946,-1.05215,-
 0.044642\O,-1.169008,0.00837,0.001692\C,-0.367658,1.065478,0.024677\C,
 0.949033,0.736479,0.015427\H,1.771752,1.339605,0.013397\H,-0.849328,2.
 039065,0.029177\H,-0.792227,-2.075653,0.021419\H,1.85857,-1.403878,0.0
 35276\\Version=ES64L-G09RevD.01\State=1-A\HF=1.793064\RMSD=2.315e-09\R
 MSF=8.687e-02\Dipole=-4.4424038,-0.0744236,0.1032224\PG=C01 [X(C4H4O1)
 ]\\@


 Standing in the middle of the road is very dangerous;
 you get knocked down by the traffic from both sides.
                                -- Margaret Thatcher
 Job cpu time:       0 days  0 hours  0 minutes  0.7 seconds.
 File lengths (MBytes):  RWF=      7 Int=      0 D2E=      0 Chk=      2 Scr=      1
 Normal termination of Gaussian 09 at Tue Dec 15 17:08:52 2015.
