 Entering Gaussian System, Link 0=g09
 Input=FuranAM1_93.com
 Output=FuranAM1_93.log
 Initial command:
 /home/Applications/g09/g09/l1.exe "/home/Applications/g09/scratch/Gau-6448.inp" -scrdir="/home/Applications/g09/scratch/"
 Entering Link 1 = /home/Applications/g09/g09/l1.exe PID=      6450.
  
 Copyright (c) 1988,1990,1992,1993,1995,1998,2003,2009,2013,
            Gaussian, Inc.  All Rights Reserved.
  
 This is part of the Gaussian(R) 09 program.  It is based on
 the Gaussian(R) 03 system (copyright 2003, Gaussian, Inc.),
 the Gaussian(R) 98 system (copyright 1998, Gaussian, Inc.),
 the Gaussian(R) 94 system (copyright 1995, Gaussian, Inc.),
 the Gaussian 92(TM) system (copyright 1992, Gaussian, Inc.),
 the Gaussian 90(TM) system (copyright 1990, Gaussian, Inc.),
 the Gaussian 88(TM) system (copyright 1988, Gaussian, Inc.),
 the Gaussian 86(TM) system (copyright 1986, Carnegie Mellon
 University), and the Gaussian 82(TM) system (copyright 1983,
 Carnegie Mellon University). Gaussian is a federally registered
 trademark of Gaussian, Inc.
  
 This software contains proprietary and confidential information,
 including trade secrets, belonging to Gaussian, Inc.
  
 This software is provided under written license and may be
 used, copied, transmitted, or stored only in accord with that
 written license.
  
 The following legend is applicable only to US Government
 contracts under FAR:
  
                    RESTRICTED RIGHTS LEGEND
  
 Use, reproduction and disclosure by the US Government is
 subject to restrictions as set forth in subparagraphs (a)
 and (c) of the Commercial Computer Software - Restricted
 Rights clause in FAR 52.227-19.
  
 Gaussian, Inc.
 340 Quinnipiac St., Bldg. 40, Wallingford CT 06492
  
  
 ---------------------------------------------------------------
 Warning -- This program may not be used in any manner that
 competes with the business of Gaussian, Inc. or will provide
 assistance to any competitor of Gaussian, Inc.  The licensee
 of this program is prohibited from giving any competitor of
 Gaussian, Inc. access to this program.  By using this program,
 the user acknowledges that Gaussian, Inc. is engaged in the
 business of creating and licensing software in the field of
 computational chemistry and represents and warrants to the
 licensee that it is not a competitor of Gaussian, Inc. and that
 it will not use this program in any manner prohibited above.
 ---------------------------------------------------------------
  

 Cite this work as:
 Gaussian 09, Revision D.01,
 M. J. Frisch, G. W. Trucks, H. B. Schlegel, G. E. Scuseria, 
 M. A. Robb, J. R. Cheeseman, G. Scalmani, V. Barone, B. Mennucci, 
 G. A. Petersson, H. Nakatsuji, M. Caricato, X. Li, H. P. Hratchian, 
 A. F. Izmaylov, J. Bloino, G. Zheng, J. L. Sonnenberg, M. Hada, 
 M. Ehara, K. Toyota, R. Fukuda, J. Hasegawa, M. Ishida, T. Nakajima, 
 Y. Honda, O. Kitao, H. Nakai, T. Vreven, J. A. Montgomery, Jr., 
 J. E. Peralta, F. Ogliaro, M. Bearpark, J. J. Heyd, E. Brothers, 
 K. N. Kudin, V. N. Staroverov, T. Keith, R. Kobayashi, J. Normand, 
 K. Raghavachari, A. Rendell, J. C. Burant, S. S. Iyengar, J. Tomasi, 
 M. Cossi, N. Rega, J. M. Millam, M. Klene, J. E. Knox, J. B. Cross, 
 V. Bakken, C. Adamo, J. Jaramillo, R. Gomperts, R. E. Stratmann, 
 O. Yazyev, A. J. Austin, R. Cammi, C. Pomelli, J. W. Ochterski, 
 R. L. Martin, K. Morokuma, V. G. Zakrzewski, G. A. Voth, 
 P. Salvador, J. J. Dannenberg, S. Dapprich, A. D. Daniels, 
 O. Farkas, J. B. Foresman, J. V. Ortiz, J. Cioslowski, 
 and D. J. Fox, Gaussian, Inc., Wallingford CT, 2013.
 
 ******************************************
 Gaussian 09:  ES64L-G09RevD.01 24-Apr-2013
                15-Dec-2015 
 ******************************************
 ------------------------------------------------------------
 #P AM1(Input,print) CIS(Singlets,NStates=15) pop(full) force
 ------------------------------------------------------------
 1/10=7,30=1,38=1/1,3;
 2/12=2,17=6,18=5,40=1/2;
 3/5=2,16=1,25=1,41=700000,71=1,135=100,136=1/1,2,8,3;
 4/35=1/1;
 5/5=2,35=1,38=5/2;
 8/6=1,10=1,108=15/1;
 9/15=2,41=15,42=1,48=1,49=10/14;
 10/5=4/2;
 6/7=3,18=1/1;
 7/12=6,13=5,29=1/1,2,3,16;
 1/10=7,30=1/3;
 99//99;
 Leave Link    1 at Tue Dec 15 16:29:43 2015, MaxMem=           0 cpu:         0.0
 (Enter /home/Applications/g09/g09/l101.exe)
 -----------------
 AM1-Reparam Input
 -----------------
 Symbolic Z-matrix:
 Charge =  0 Multiplicity = 1
 6                     0.9669   -0.68367   0.04833 
 6                    -0.31889  -1.09541  -0.02424 
 8                    -1.17935   0.01564  -0.03743 
 6                    -0.31167   1.09588   0.04212 
 6                     0.97924   0.75854  -0.01862 
 1                     1.79232   1.38826  -0.04745 
 1                    -0.8574    2.06603  -0.04722 
 1                    -0.83916  -2.03209  -0.03001 
 1                     1.82062  -1.38212   0.04991 
 
 NAtoms=      9 NQM=        9 NQMF=       0 NMMI=      0 NMMIF=      0
                NMic=       0 NMicF=      0.
                    Isotopes and Nuclear Properties:
 (Nuclear quadrupole moments (NQMom) in fm**2, nuclear magnetic moments (NMagM)
  in nuclear magnetons)

  Atom         1           2           3           4           5           6           7           8           9
 IAtWgt=          12          12          16          12          12           1           1           1           1
 AtmWgt=  12.0000000  12.0000000  15.9949146  12.0000000  12.0000000   1.0078250   1.0078250   1.0078250   1.0078250
 NucSpn=           0           0           0           0           0           1           1           1           1
 AtZEff=   0.0000000   0.0000000   0.0000000   0.0000000   0.0000000   0.0000000   0.0000000   0.0000000   0.0000000
 NQMom=    0.0000000   0.0000000   0.0000000   0.0000000   0.0000000   0.0000000   0.0000000   0.0000000   0.0000000
 NMagM=    0.0000000   0.0000000   0.0000000   0.0000000   0.0000000   2.7928460   2.7928460   2.7928460   2.7928460
 AtZNuc=   6.0000000   6.0000000   8.0000000   6.0000000   6.0000000   1.0000000   1.0000000   1.0000000   1.0000000
 Leave Link  101 at Tue Dec 15 16:29:43 2015, MaxMem=    33554432 cpu:         0.0
 (Enter /home/Applications/g09/g09/l103.exe)

 GradGradGradGradGradGradGradGradGradGradGradGradGradGradGradGradGradGrad
 Berny optimization.
 Initialization pass.
 Trust Radius=3.00D-01 FncErr=1.00D-07 GrdErr=1.00D-07
 Number of steps in this run=      2 maximum allowed number of steps=      2.
 GradGradGradGradGradGradGradGradGradGradGradGradGradGradGradGradGradGrad

 Leave Link  103 at Tue Dec 15 16:29:43 2015, MaxMem=    33554432 cpu:         0.0
 (Enter /home/Applications/g09/g09/l202.exe)
                          Input orientation:                          
 ---------------------------------------------------------------------
 Center     Atomic      Atomic             Coordinates (Angstroms)
 Number     Number       Type             X           Y           Z
 ---------------------------------------------------------------------
      1          6           0        0.966903   -0.683672    0.048334
      2          6           0       -0.318890   -1.095414   -0.024242
      3          8           0       -1.179346    0.015643   -0.037425
      4          6           0       -0.311672    1.095879    0.042116
      5          6           0        0.979242    0.758535   -0.018622
      6          1           0        1.792324    1.388256   -0.047449
      7          1           0       -0.857401    2.066031   -0.047219
      8          1           0       -0.839161   -2.032088   -0.030008
      9          1           0        1.820622   -1.382122    0.049910
 ---------------------------------------------------------------------
                    Distance matrix (angstroms):
                    1          2          3          4          5
     1  C    0.000000
     2  C    1.352059   0.000000
     3  O    2.258934   1.405349   0.000000
     4  C    2.191254   2.192309   1.387838   0.000000
     5  C    1.443813   2.263251   2.282924   1.335646   0.000000
     6  H    2.232349   3.259813   3.273376   2.126101   1.028825
     7  H    3.301224   3.207064   2.075533   1.116690   2.254689
     8  H    2.255267   1.071482   2.075809   3.172952   3.330810
     9  H    1.103028   2.159910   3.310768   3.269133   2.301093
                    6          7          8          9
     6  H    0.000000
     7  H    2.735036   0.000000
     8  H    4.315527   4.098196   0.000000
     9  H    2.772233   4.367036   2.739213   0.000000
 Stoichiometry    C4H4O
 Framework group  C1[X(C4H4O)]
 Deg. of freedom    21
 Full point group                 C1      NOp   1
 Largest Abelian subgroup         C1      NOp   1
 Largest concise Abelian subgroup C1      NOp   1
                         Standard orientation:                         
 ---------------------------------------------------------------------
 Center     Atomic      Atomic             Coordinates (Angstroms)
 Number     Number       Type             X           Y           Z
 ---------------------------------------------------------------------
      1          6           0        0.476524    1.086467    0.033147
      2          6           0        1.157561   -0.080477   -0.016795
      3          8           0        0.259620   -1.161541   -0.013717
      4          6           0       -0.983331   -0.547575    0.051192
      5          6           0       -0.933816    0.784504   -0.032855
      6          1           0       -1.724804    1.440999   -0.075685
      7          1           0       -1.811747   -1.292232   -0.027602
      8          1           0        2.184792   -0.385207   -0.014027
      9          1           0        0.973178    2.071253    0.018917
 ---------------------------------------------------------------------
 Rotational constants (GHZ):      9.4535596      9.0719422      4.6353892
 Leave Link  202 at Tue Dec 15 16:29:43 2015, MaxMem=    33554432 cpu:         0.0
 (Enter /home/Applications/g09/g09/l301.exe)

 Semi-emprical parameters in input format:
 Method=8 CoreType=1 PeptideFC=0.0114510000 RIJScale=0.5291770000
 ****
 H       
 PQN=1 NValence=1 F0ss=0.4721550000 ZetaOverlap=1.1880780000 U=-0.4188110000
 Beta=-0.2268830000 CoreKO=1.0589200000 KON=0,0,0,1.0589200000 KON=1,0,1,1.0589200000
 KON=0,1,1,1.0589200000 KON=2,1,1,1.0589200000 EISol=-0.4188110042 EHeat=0.0830298228
 Alpha=1.5252600000
 GCore=0.0085280000,1.4001430000,2.2676710000
 GCore=0.0003530000,1.4001430000,3.4015070000
 GCore=-0.0012730000,0.5600570000,3.9684250000
 ****
 C       
 PQN=2,2 NValence=4 F0ss=0.4494440000 F0sp=0.4215150000 F0pp=0.3768030000 F2pp=0.1898720000
 G1sp=0.2679030000
 ZetaOverlap=1.8086650000,1.6851160000
 U=-1.9120180000,-1.4557970000
 Beta=-0.5775440000,-0.2836780000 DDN=0,1,0.8236740000 DDN=1,1,0.7268010000
 CoreKO=1.1124280000 KON=0,0,0,1.1124280000 KON=1,0,1,0.8219700000 KON=0,1,1,1.1124280000
 KON=2,1,1,0.7783930000 EISol=-4.4398989268 EHeat=0.2723305520 Alpha=1.4014060000
 DipHyp=1.6472532266
 GCore=0.0007890000,1.4001430000,3.0235620000
 GCore=0.0031890000,1.4001430000,3.4959930000
 GCore=-0.0013930000,1.4001430000,3.8739390000
 GCore=-0.0000880000,1.4001430000,5.0077740000
 ****
 O       
 PQN=2,2 NValence=6 F0ss=0.5666750000 F0sp=0.5321300000 F0pp=0.4958710000 F2pp=0.2358080000
 G1sp=0.4343770000
 ZetaOverlap=3.1080320000,2.5240390000
 U=-3.5951870000,-2.8760900000
 Beta=-1.0757550000,-1.0757550000 DDN=0,1,0.4988900000 DDN=1,1,0.4852320000
 CoreKO=0.8822960000 KON=0,0,0,0.8822960000 KON=1,0,1,0.5019540000 KON=0,1,1,0.8822960000
 KON=2,1,1,0.5515580000 EISol=-11.6164441184 EHeat=0.0949133088 Alpha=2.3576810000
 DipHyp=0.9977225968
 GCore=0.0195120000,1.4001430000,1.6023330000
 GCore=0.0056550000,1.9602000000,2.7307880000
 ****
 
 Standard basis: VSTO-6G (5D, 7F)
 Ernie: Thresh=  0.10000D-02 Tol=  0.10000D-05 Strict=F.
  NNHCO=     0 NNPyr=     0 NCTC=     0               EPep=         0.000000000
    EC=        68.406832881  ECS=         1.790817602   EG=         0.338575582
   EHC=         0.000000000  EAt=       -31.051283842  AtH=         1.516354808
 EPDDG=         0.000000000  ECC=        70.536226065 EAtT=        32.567638650
 There are    24 symmetry adapted cartesian basis functions of A   symmetry.
 There are    24 symmetry adapted basis functions of A   symmetry.
    24 basis functions,   144 primitive gaussians,    24 cartesian basis functions
    13 alpha electrons       13 beta electrons
       nuclear repulsion energy       103.1038647151 Hartrees.
 IExCor=    0 DFT=F Ex=HF Corr=None ExCW=0 ScaHFX=  1.000000
 ScaDFX=  1.000000  1.000000  1.000000  1.000000 ScalE2=  1.000000  1.000000
 IRadAn=      0 IRanWt=     -1 IRanGd=            0 ICorTp=0 IEmpDi=  4
 Integral buffers will be    131072 words long.
 Regular integral format.
 Two-electron integral symmetry is turned off.
 Leave Link  301 at Tue Dec 15 16:29:43 2015, MaxMem=    33554432 cpu:         0.0
 (Enter /home/Applications/g09/g09/l302.exe)
 Do NDO integrals.
 NPDir=0 NMtPBC=     1 NCelOv=     1 NCel=       1 NClECP=     1 NCelD=      1
         NCelK=      1 NCelE2=     1 NClLst=     1 CellRange=     0.0.
 One-electron integrals computed using PRISM.
 NBasis=    24 RedAO= F EigKep=  0.00D+00  NBF=    24
 NBsUse=    24 1.00D-04 EigRej=  0.00D+00 NBFU=    24
 Leave Link  302 at Tue Dec 15 16:29:43 2015, MaxMem=    33554432 cpu:         0.0
 (Enter /home/Applications/g09/g09/l308.exe)
 Leave Link  308 at Tue Dec 15 16:29:43 2015, MaxMem=    33554432 cpu:         0.0
 (Enter /home/Applications/g09/g09/l303.exe)
 DipDrv:  MaxL=1.
 Leave Link  303 at Tue Dec 15 16:29:43 2015, MaxMem=    33554432 cpu:         0.0
 (Enter /home/Applications/g09/g09/l401.exe)
 Simple Huckel Guess.
 JPrj=0 DoOrth=F DoCkMO=F.
 Leave Link  401 at Tue Dec 15 16:29:43 2015, MaxMem=    33554432 cpu:         0.0
 (Enter /home/Applications/g09/g09/l502.exe)
 Closed shell SCF:
 Using DIIS extrapolation, IDIIS=  1040.
 Overlap will be assumed to be unity.
 Two-electron integral symmetry not used.
 Keep J ints in memory in canonical form, NReq=888082.
 IVT=       79475 IEndB=       79475 NGot=    33554432 MDV=    33473473
 LenX=    33473473 LenY=    33472456
 Requested convergence on RMS density matrix=1.00D-08 within 128 cycles.
 Requested convergence on MAX density matrix=1.00D-06.
 Requested convergence on             energy=1.00D-06.
 No special actions if energy rises.
 FoFCou: FMM=F IPFlag=           0 FMFlag=           0 FMFlg1=           0
         NFxFlg=           0 DoJE=F BraDBF=F KetDBF=F FulRan=T
         wScrn=  0.000000 ICntrl=     600 IOpCl=  2 I1Cent=           0 NGrid=           0
         NMat0=    1 NMatS0=     54 NMatT0=    0 NMatD0=    1 NMtDS0=    0 NMtDT0=    0
 Symmetry not used in FoFCou.

 Cycle   1  Pass 1  IDiag  1:
 E= 0.334160315110992    
 DIIS: error= 6.15D-02 at cycle   1 NSaved=   1.
 NSaved= 1 IEnMin= 1 EnMin= 0.334160315110992     IErMin= 1 ErrMin= 6.15D-02
 ErrMax= 6.15D-02  0.00D+00 EMaxC= 1.00D-01 BMatC= 1.12D-01 BMatP= 1.12D-01
 IDIUse=3 WtCom= 3.85D-01 WtEn= 6.15D-01
 Coeff-Com:  0.100D+01
 Coeff-En:   0.100D+01
 Coeff:      0.100D+01
 GapD=    2.000 DampG=2.000 DampE=0.500 DampFc=1.0000 IDamp=-1.
 RMSDP=1.98D-02 MaxDP=1.61D-01              OVMax= 0.00D+00

 Cycle   2  Pass 1  IDiag  1:
 E= 0.488754952710195E-01 Delta-E=       -0.285284819840 Rises=F Damp=F
 DIIS: error= 2.02D-02 at cycle   2 NSaved=   2.
 NSaved= 2 IEnMin= 2 EnMin= 0.488754952710195E-01 IErMin= 2 ErrMin= 2.02D-02
 ErrMax= 2.02D-02  0.00D+00 EMaxC= 1.00D-01 BMatC= 9.61D-03 BMatP= 1.12D-01
 IDIUse=3 WtCom= 7.98D-01 WtEn= 2.02D-01
 Coeff-Com: -0.360D+00 0.136D+01
 Coeff-En:   0.000D+00 0.100D+01
 Coeff:     -0.287D+00 0.129D+01
 RMSDP=8.21D-03 MaxDP=7.49D-02 DE=-2.85D-01 OVMax= 0.00D+00

 Cycle   3  Pass 1  IDiag  1:
 E= 0.184009101572542E-01 Delta-E=       -0.030474585114 Rises=F Damp=F
 DIIS: error= 3.71D-03 at cycle   3 NSaved=   3.
 NSaved= 3 IEnMin= 3 EnMin= 0.184009101572542E-01 IErMin= 3 ErrMin= 3.71D-03
 ErrMax= 3.71D-03  0.00D+00 EMaxC= 1.00D-01 BMatC= 3.47D-04 BMatP= 9.61D-03
 IDIUse=3 WtCom= 9.63D-01 WtEn= 3.71D-02
 Coeff-Com:  0.143D+00-0.622D+00 0.148D+01
 Coeff-En:   0.000D+00 0.000D+00 0.100D+01
 Coeff:      0.138D+00-0.599D+00 0.146D+01
 RMSDP=2.43D-03 MaxDP=2.74D-02 DE=-3.05D-02 OVMax= 0.00D+00

 Cycle   4  Pass 1  IDiag  3:
 E= 0.165313358774597E-01 Delta-E=       -0.001869574280 Rises=F Damp=F
 DIIS: error= 1.12D-03 at cycle   4 NSaved=   4.
 NSaved= 4 IEnMin= 4 EnMin= 0.165313358774597E-01 IErMin= 4 ErrMin= 1.12D-03
 ErrMax= 1.12D-03  0.00D+00 EMaxC= 1.00D-01 BMatC= 2.53D-05 BMatP= 3.47D-04
 IDIUse=3 WtCom= 9.89D-01 WtEn= 1.12D-02
 Coeff-Com:  0.170D-01-0.672D-01-0.139D+00 0.119D+01
 Coeff-En:   0.000D+00 0.000D+00 0.000D+00 0.100D+01
 Coeff:      0.168D-01-0.664D-01-0.138D+00 0.119D+01
 Gap=     0.379 Goal=   None    Shift=    0.000
 RMSDP=7.54D-04 MaxDP=9.20D-03 DE=-1.87D-03 OVMax= 8.20D-03

 Cycle   5  Pass 1  IDiag  3:
 E= 0.163789136266530E-01 Delta-E=       -0.000152422251 Rises=F Damp=F
 DIIS: error= 2.22D-04 at cycle   5 NSaved=   5.
 NSaved= 5 IEnMin= 5 EnMin= 0.163789136266530E-01 IErMin= 5 ErrMin= 2.22D-04
 ErrMax= 2.22D-04  0.00D+00 EMaxC= 1.00D-01 BMatC= 1.85D-06 BMatP= 2.53D-05
 IDIUse=3 WtCom= 9.98D-01 WtEn= 2.22D-03
 Coeff-Com: -0.910D-02 0.385D-01-0.636D-02-0.449D+00 0.143D+01
 Coeff-En:   0.000D+00 0.000D+00 0.000D+00 0.000D+00 0.100D+01
 Coeff:     -0.908D-02 0.384D-01-0.634D-02-0.448D+00 0.142D+01
 Gap=     0.379 Goal=   None    Shift=    0.000
 RMSDP=2.52D-04 MaxDP=1.98D-03 DE=-1.52D-04 OVMax= 2.89D-03

 Cycle   6  Pass 1  IDiag  3:
 E= 0.163646318022472E-01 Delta-E=       -0.000014281824 Rises=F Damp=F
 DIIS: error= 1.02D-04 at cycle   6 NSaved=   6.
 NSaved= 6 IEnMin= 6 EnMin= 0.163646318022472E-01 IErMin= 6 ErrMin= 1.02D-04
 ErrMax= 1.02D-04  0.00D+00 EMaxC= 1.00D-01 BMatC= 1.98D-07 BMatP= 1.85D-06
 IDIUse=3 WtCom= 9.99D-01 WtEn= 1.02D-03
 Coeff-Com:  0.267D-02-0.107D-01 0.100D-01 0.116D+00-0.654D+00 0.154D+01
 Coeff-En:   0.000D+00 0.000D+00 0.000D+00 0.000D+00 0.000D+00 0.100D+01
 Coeff:      0.267D-02-0.107D-01 0.100D-01 0.116D+00-0.654D+00 0.154D+01
 Gap=     0.379 Goal=   None    Shift=    0.000
 RMSDP=1.02D-04 MaxDP=8.79D-04 DE=-1.43D-05 OVMax= 1.36D-03

 Cycle   7  Pass 1  IDiag  3:
 E= 0.163627743217205E-01 Delta-E=       -0.000001857481 Rises=F Damp=F
 DIIS: error= 3.46D-05 at cycle   7 NSaved=   7.
 NSaved= 7 IEnMin= 7 EnMin= 0.163627743217205E-01 IErMin= 7 ErrMin= 3.46D-05
 ErrMax= 3.46D-05  0.00D+00 EMaxC= 1.00D-01 BMatC= 1.65D-08 BMatP= 1.98D-07
 IDIUse=1 WtCom= 1.00D+00 WtEn= 0.00D+00
 Coeff-Com: -0.408D-03 0.103D-02-0.888D-03-0.256D-01 0.178D+00-0.694D+00
 Coeff-Com:  0.154D+01
 Coeff:     -0.408D-03 0.103D-02-0.888D-03-0.256D-01 0.178D+00-0.694D+00
 Coeff:      0.154D+01
 Gap=     0.379 Goal=   None    Shift=    0.000
 RMSDP=3.48D-05 MaxDP=3.34D-04 DE=-1.86D-06 OVMax= 4.28D-04

 Cycle   8  Pass 1  IDiag  3:
 E= 0.163626121685496E-01 Delta-E=       -0.000000162153 Rises=F Damp=F
 DIIS: error= 5.80D-06 at cycle   8 NSaved=   8.
 NSaved= 8 IEnMin= 8 EnMin= 0.163626121685496E-01 IErMin= 8 ErrMin= 5.80D-06
 ErrMax= 5.80D-06  0.00D+00 EMaxC= 1.00D-01 BMatC= 6.26D-10 BMatP= 1.65D-08
 IDIUse=1 WtCom= 1.00D+00 WtEn= 0.00D+00
 Coeff-Com: -0.432D-05 0.352D-03-0.103D-02 0.884D-02-0.555D-01 0.251D+00
 Coeff-Com: -0.709D+00 0.151D+01
 Coeff:     -0.432D-05 0.352D-03-0.103D-02 0.884D-02-0.555D-01 0.251D+00
 Coeff:     -0.709D+00 0.151D+01
 Gap=     0.379 Goal=   None    Shift=    0.000
 RMSDP=5.76D-06 MaxDP=5.56D-05 DE=-1.62D-07 OVMax= 7.27D-05

 Cycle   9  Pass 1  IDiag  3:
 E= 0.163626072161094E-01 Delta-E=       -0.000000004952 Rises=F Damp=F
 DIIS: error= 7.45D-07 at cycle   9 NSaved=   9.
 NSaved= 9 IEnMin= 9 EnMin= 0.163626072161094E-01 IErMin= 9 ErrMin= 7.45D-07
 ErrMax= 7.45D-07  0.00D+00 EMaxC= 1.00D-01 BMatC= 2.34D-11 BMatP= 6.26D-10
 IDIUse=1 WtCom= 1.00D+00 WtEn= 0.00D+00
 Coeff-Com:  0.270D-04-0.236D-03 0.458D-03-0.227D-02 0.150D-01-0.782D-01
 Coeff-Com:  0.240D+00-0.617D+00 0.144D+01
 Coeff:      0.270D-04-0.236D-03 0.458D-03-0.227D-02 0.150D-01-0.782D-01
 Coeff:      0.240D+00-0.617D+00 0.144D+01
 Gap=     0.379 Goal=   None    Shift=    0.000
 RMSDP=8.91D-07 MaxDP=7.15D-06 DE=-4.95D-09 OVMax= 1.20D-05

 Cycle  10  Pass 1  IDiag  3:
 E= 0.163626070688565E-01 Delta-E=       -0.000000000147 Rises=F Damp=F
 DIIS: error= 1.16D-07 at cycle  10 NSaved=  10.
 NSaved=10 IEnMin=10 EnMin= 0.163626070688565E-01 IErMin=10 ErrMin= 1.16D-07
 ErrMax= 1.16D-07  0.00D+00 EMaxC= 1.00D-01 BMatC= 1.03D-12 BMatP= 2.34D-11
 IDIUse=1 WtCom= 1.00D+00 WtEn= 0.00D+00
 Coeff-Com: -0.132D-04 0.105D-03-0.211D-03 0.945D-03-0.569D-02 0.300D-01
 Coeff-Com: -0.927D-01 0.241D+00-0.682D+00 0.151D+01
 Coeff:     -0.132D-04 0.105D-03-0.211D-03 0.945D-03-0.569D-02 0.300D-01
 Coeff:     -0.927D-01 0.241D+00-0.682D+00 0.151D+01
 Gap=     0.379 Goal=   None    Shift=    0.000
 RMSDP=1.74D-07 MaxDP=1.03D-06 DE=-1.47D-10 OVMax= 1.86D-06

 Cycle  11  Pass 1  IDiag  3:
 E= 0.163626070626748E-01 Delta-E=       -0.000000000006 Rises=F Damp=F
 DIIS: error= 1.95D-08 at cycle  11 NSaved=  11.
 NSaved=11 IEnMin=11 EnMin= 0.163626070626748E-01 IErMin=11 ErrMin= 1.95D-08
 ErrMax= 1.95D-08  0.00D+00 EMaxC= 1.00D-01 BMatC= 3.47D-14 BMatP= 1.03D-12
 IDIUse=1 WtCom= 1.00D+00 WtEn= 0.00D+00
 Coeff-Com:  0.389D-05-0.318D-04 0.638D-04-0.294D-03 0.173D-02-0.921D-02
 Coeff-Com:  0.284D-01-0.728D-01 0.213D+00-0.574D+00 0.141D+01
 Coeff:      0.389D-05-0.318D-04 0.638D-04-0.294D-03 0.173D-02-0.921D-02
 Coeff:      0.284D-01-0.728D-01 0.213D+00-0.574D+00 0.141D+01
 Gap=     0.379 Goal=   None    Shift=    0.000
 RMSDP=2.96D-08 MaxDP=1.23D-07 DE=-6.18D-12 OVMax= 1.85D-07

 Cycle  12  Pass 1  IDiag  3:
 E= 0.163626070623195E-01 Delta-E=        0.000000000000 Rises=F Damp=F
 DIIS: error= 5.84D-09 at cycle  12 NSaved=  12.
 NSaved=12 IEnMin=12 EnMin= 0.163626070623195E-01 IErMin=12 ErrMin= 5.84D-09
 ErrMax= 5.84D-09  0.00D+00 EMaxC= 1.00D-01 BMatC= 1.83D-15 BMatP= 3.47D-14
 IDIUse=1 WtCom= 1.00D+00 WtEn= 0.00D+00
 Coeff-Com: -0.743D-06 0.625D-05-0.121D-04 0.571D-04-0.326D-03 0.179D-02
 Coeff-Com: -0.547D-02 0.136D-01-0.410D-01 0.123D+00-0.482D+00 0.139D+01
 Coeff:     -0.743D-06 0.625D-05-0.121D-04 0.571D-04-0.326D-03 0.179D-02
 Coeff:     -0.547D-02 0.136D-01-0.410D-01 0.123D+00-0.482D+00 0.139D+01
 Gap=     0.379 Goal=   None    Shift=    0.000
 RMSDP=7.20D-09 MaxDP=2.91D-08 DE=-3.55D-13 OVMax= 4.27D-08

 Cycle  13  Pass 2  IDiag  1:
 SCF Done:  E(RAM1) =  0.163626070623E-01 A.U. after   13 cycles
            NFock= 12  Conv=0.72D-08     -V/T= 1.0010
 KE=-1.650467150342D+01 PE=-1.704818273699D+02 EE= 8.389899676533D+01
 Leave Link  502 at Tue Dec 15 16:29:43 2015, MaxMem=    33554432 cpu:         0.0
 (Enter /home/Applications/g09/g09/l801.exe)
 Range of M.O.s used for correlation:     1    24
 NBasis=    24 NAE=    13 NBE=    13 NFC=     0 NFV=     0
 NROrb=     24 NOA=    13 NOB=    13 NVA=    11 NVB=    11
 Leave Link  801 at Tue Dec 15 16:29:43 2015, MaxMem=    33554432 cpu:         0.0
 (Enter /home/Applications/g09/g09/l914.exe)
 RHF ground state
 MDV=    33554432 DFT=F DoStab=F Mixed=F DoRPA=F DoScal=F NonHer=F
 Making orbital integer symmetry assigments:
 Orbital symmetries:
       Occupied  (A) (A) (A) (A) (A) (A) (A) (A) (A) (A) (A) (A)
                 (A)
       Virtual   (A) (A) (A) (A) (A) (A) (A) (A) (A) (A) (A)
    60 initial guesses have been made.
 Convergence on wavefunction:    0.000001000000000
 Davidson Disk Diagonalization:  ConvIn= 1.00D-06 SkipCon=T Conv= 1.00D-06.
 Max sub-space:   240 roots to seek:    60 dimension of matrix:          286
 Iteration     1 Dimension    60 NMult     0 NNew     60
 CISAX will form    60 AO SS matrices at one time.
 NMat=    60 NSing=    60 JSym2X= 0.
 FoFJK:  IHMeth= 8 ICntrl=       0 DoSepK=F KAlg= 0 I1Cent=   0 FoldK=F
 IRaf=         1 NMat= 120 IRICut=       1 DoRegI=T DoRafI=F ISym2E= 0.
 FoFCou: FMM=F IPFlag=           0 FMFlag=      100000 FMFlg1=           0
         NFxFlg=           0 DoJE=F BraDBF=F KetDBF=F FulRan=T
         wScrn=  0.000000 ICntrl=       0 IOpCl=  0 I1Cent=           0 NGrid=           0
         NMat0=  120 NMatS0=     60 NMatT0=    0 NMatD0=  120 NMtDS0=    0 NMtDT0=    0
 Symmetry not used in FoFCou.
 New state      3 was old state      4
 New state      4 was old state      8
 New state      5 was old state      9
 New state      6 was old state      7
 New state      7 was old state      3
 New state      8 was old state      6
 New state      9 was old state      5
 New state     10 was old state     12
 New state     11 was old state     15
 New state     12 was old state     10
 New state     13 was old state     11
 New state     14 was old state     22
 New state     15 was old state     17
 Excitation Energies [eV] at current iteration:
 Root      1 :     4.554430519211325
 Root      2 :     5.114650721003497
 Root      3 :     5.323860313544143
 Root      4 :     6.054031478761254
 Root      5 :     6.149050887039739
 Root      6 :     6.252702564552505
 Root      7 :     6.377495655426826
 Root      8 :     6.474385945823773
 Root      9 :     6.521432898664179
 Root     10 :     7.124083099419175
 Root     11 :     7.331510612326553
 Root     12 :     7.379161743329819
 Root     13 :     7.575776495437522
 Root     14 :     7.606795675935006
 Root     15 :     7.786538911303652
 Root     16 :     7.798614184473525
 Root     17 :     7.831871479847860
 Root     18 :     8.159483539994113
 Root     19 :     8.183546806252144
 Root     20 :     8.452017421208309
 Root     21 :     8.885034598267312
 Root     22 :     8.943443097712537
 Root     23 :     9.059662665332800
 Root     24 :     9.201721786908458
 Root     25 :     9.412633378931174
 Root     26 :     9.479059849821015
 Root     27 :     9.575085783468985
 Root     28 :     9.675205143824233
 Root     29 :     9.735406188008517
 Root     30 :     9.839782519472534
 Root     31 :     9.949326453736946
 Root     32 :     9.985022094036202
 Root     33 :    10.089065065846910
 Root     34 :    10.282616137834840
 Root     35 :    10.357303131995280
 Root     36 :    10.478681545354170
 Root     37 :    10.515309196763180
 Root     38 :    10.588997254410160
 Root     39 :    10.701929572828610
 Root     40 :    10.899815888126760
 Root     41 :    11.020099263867660
 Root     42 :    11.045938000502410
 Root     43 :    11.203179401400480
 Root     44 :    11.372852725642040
 Root     45 :    11.483333291270350
 Root     46 :    11.619187919022320
 Root     47 :    11.780602793887080
 Root     48 :    11.900935407755950
 Root     49 :    11.955114624023760
 Root     50 :    12.154572000442960
 Root     51 :    12.352930448981300
 Root     52 :    12.635008722654620
 Root     53 :    12.862224038459580
 Root     54 :    12.906824897571110
 Root     55 :    13.035964770719840
 Root     56 :    13.137005133811850
 Root     57 :    13.286936174082220
 Root     58 :    13.478049136087680
 Root     59 :    13.557777533077140
 Root     60 :    13.848287962971400
 Iteration     2 Dimension   120 NMult    60 NNew     60
 CISAX will form    60 AO SS matrices at one time.
 NMat=    60 NSing=    60 JSym2X= 0.
 Root      1 not converged, maximum delta is    0.033107063416322
 Root      2 not converged, maximum delta is    0.020309593840794
 Root      3 not converged, maximum delta is    0.027811522666865
 Root      4 not converged, maximum delta is    0.066755307149656
 Root      5 not converged, maximum delta is    0.080773408472642
 Root      6 not converged, maximum delta is    0.073186579384171
 Root      7 not converged, maximum delta is    0.037938213693270
 Root      8 not converged, maximum delta is    0.120864580280309
 Root      9 not converged, maximum delta is    0.111715442506579
 Root     10 not converged, maximum delta is    0.080193051382840
 New state     11 was old state     12
 Root     11 not converged, maximum delta is    0.237285229002407
 New state     12 was old state     11
 Root     12 not converged, maximum delta is    0.220698272062699
 Root     13 not converged, maximum delta is    0.236309616325602
 Root     14 not converged, maximum delta is    0.169632922305253
 New state     15 was old state     16
 Root     15 not converged, maximum delta is    0.253864522223662
 Excitation Energies [eV] at current iteration:
 Root      1 :     4.467258966680902   Change is   -0.087171552530422
 Root      2 :     5.092838715473750   Change is   -0.021812005529747
 Root      3 :     5.299504064796434   Change is   -0.024356248747710
 Root      4 :     5.967379078544790   Change is   -0.086652400216464
 Root      5 :     6.035639502837237   Change is   -0.113411384202502
 Root      6 :     6.113015076893515   Change is   -0.139687487658989
 Root      7 :     6.250791417993264   Change is   -0.126704237433562
 Root      8 :     6.414386804065495   Change is   -0.059999141758278
 Root      9 :     6.460249614755108   Change is   -0.061183283909071
 Root     10 :     6.972441853483985   Change is   -0.151641245935190
 Root     11 :     7.272313213959105   Change is   -0.106848529370714
 Root     12 :     7.280306725419395   Change is   -0.051203886907158
 Root     13 :     7.461455039460515   Change is   -0.114321455977007
 Root     14 :     7.516510700618034   Change is   -0.090284975316972
 Root     15 :     7.604888975087481   Change is   -0.193725209386044
 Root     16 :     7.706920457741913   Change is   -0.079618453561739
 Root     17 :     7.783306091060601   Change is   -0.048565388787258
 Root     18 :     7.967370997381253   Change is   -0.192112542612861
 Root     19 :     8.074207578366671   Change is   -0.109339227885473
 Root     20 :     8.288610555521663   Change is   -0.163406865686646
 Root     21 :     8.801483414084348   Change is   -0.258179251248451
 Root     22 :     8.845380873032900   Change is   -0.039653725234412
 Root     23 :     8.905983640804742   Change is   -0.037459456907795
 Root     24 :     8.943038421586525   Change is   -0.258683365321932
 Root     25 :     9.020798169125102   Change is   -0.391835209806071
 Root     26 :     9.211320115493709   Change is   -0.463885028330522
 Root     27 :     9.300104636828584   Change is   -0.178955212992431
 Root     28 :     9.382406209175626   Change is   -0.900209928659219
 Root     29 :     9.492725639085959   Change is   -0.082360144383025
 Root     30 :     9.617223651522718   Change is   -0.118182536485800
 Root     31 :     9.682373670897109   Change is   -0.157408848575425
 Root     32 :     9.701898205142211   Change is   -0.283123888893990
 Root     33 :     9.827640250707896   Change is   -0.529662881287385
 Root     34 :     9.849014094566025   Change is   -0.100312359170921
 Root     35 :     9.947009780180048   Change is   -0.142055285666858
 Root     36 :     9.967504150378465   Change is   -0.621493104031700
 Root     37 :     9.997094923215171   Change is   -0.518214273548005
 Root     38 :    10.195210151085930   Change is   -0.283471394268242
 Root     39 :    10.352233950902480   Change is   -0.667865312965181
 Root     40 :    10.471704115630280   Change is   -0.428111772496472
 Root     41 :    10.592904750587990   Change is   -0.109024822240622
 Root     42 :    10.713999439375860   Change is   -0.658853286266180
 Root     43 :    10.742758975223860   Change is   -0.303179025278551
 Root     44 :    10.875552449923540   Change is   -0.327626951476944
 Root     45 :    11.022872699470890   Change is   -0.460460591799458
 Root     46 :    11.321510296698430   Change is   -0.459092497188656
 Root     47 :    11.378557355032910   Change is   -0.522378052723034
 Root     48 :    11.428706788852120   Change is   -0.190481130170202
 Root     49 :    11.657069617018000   Change is   -0.298045007005759
 Root     50 :    11.685223497935480   Change is   -0.469348502507476
 Root     51 :    11.864766074951730   Change is   -0.488164374029567
 Root     52 :    11.956416569138600   Change is   -1.079548201581240
 Root     53 :    12.322809347649040   Change is   -0.312199375005585
 Root     54 :    12.339879283113540   Change is   -0.566945614457565
 Root     55 :    12.426420639573100   Change is   -0.710584494238757
 Root     56 :    12.811607818152160   Change is   -0.050616220307418
 Root     57 :    12.819888730373690   Change is   -0.658160405713994
 Root     58 :    12.896473032362910   Change is   -0.390463141719317
 Root     59 :    12.921591329406240   Change is   -0.636186203670909
 Root     60 :    13.254000073512040   Change is   -0.594287889459369
 Iteration     3 Dimension   135 NMult   120 NNew     15
 CISAX will form    15 AO SS matrices at one time.
 NMat=    15 NSing=    15 JSym2X= 0.
 Root      1 not converged, maximum delta is    0.001646384505149
 Root      2 not converged, maximum delta is    0.000263960194409
 Root      3 not converged, maximum delta is    0.000184692767989
 Root      4 not converged, maximum delta is    0.000211649037277
 Root      5 not converged, maximum delta is    0.000498097564363
 Root      6 not converged, maximum delta is    0.000161872682311
 Root      7 not converged, maximum delta is    0.001290317877755
 Root      8 not converged, maximum delta is    0.001951220280766
 Root      9 not converged, maximum delta is    0.002552113130875
 Root     10 not converged, maximum delta is    0.000315095356003
 Root     11 not converged, maximum delta is    0.005585412557552
 Root     12 not converged, maximum delta is    0.005112092406712
 Root     13 not converged, maximum delta is    0.000320941069767
 Root     14 not converged, maximum delta is    0.000265227830934
 Root     15 not converged, maximum delta is    0.000414181262786
 Excitation Energies [eV] at current iteration:
 Root      1 :     4.466882037090003   Change is   -0.000376929590899
 Root      2 :     5.092819052240757   Change is   -0.000019663232993
 Root      3 :     5.299488557250292   Change is   -0.000015507546141
 Root      4 :     5.967364283955157   Change is   -0.000014794589632
 Root      5 :     6.035614237953814   Change is   -0.000025264883424
 Root      6 :     6.113004179678659   Change is   -0.000010897214857
 Root      7 :     6.250317113742098   Change is   -0.000474304251167
 Root      8 :     6.414330501756259   Change is   -0.000056302309236
 Root      9 :     6.459783697952592   Change is   -0.000465916802516
 Root     10 :     6.972423015769639   Change is   -0.000018837714346
 Root     11 :     7.272193004743750   Change is   -0.000120209215356
 Root     12 :     7.280225329805292   Change is   -0.000081395614103
 Root     13 :     7.461425631731336   Change is   -0.000029407729179
 Root     14 :     7.516490282568253   Change is   -0.000020418049781
 Root     15 :     7.604858708790655   Change is   -0.000030266296826
 Iteration     4 Dimension   143 NMult   135 NNew      8
 CISAX will form     8 AO SS matrices at one time.
 NMat=     8 NSing=     8 JSym2X= 0.
 Root      1 not converged, maximum delta is    0.000039186663503
 Root      2 not converged, maximum delta is    0.000012165120371
 Root      3 not converged, maximum delta is    0.000013465277576
 Root      4 not converged, maximum delta is    0.000013333620432
 Root      5 not converged, maximum delta is    0.000021686512445
 Root      6 not converged, maximum delta is    0.000012485754594
 Root      7 not converged, maximum delta is    0.000080869134790
 Root      8 not converged, maximum delta is    0.000029285257358
 Root      9 not converged, maximum delta is    0.000098879176557
 Root     10 not converged, maximum delta is    0.000017107518160
 Root     11 not converged, maximum delta is    0.000019873209928
 Root     12 not converged, maximum delta is    0.000030017565935
 Root     13 not converged, maximum delta is    0.000020867568376
 Root     14 not converged, maximum delta is    0.000015604226777
 Root     15 not converged, maximum delta is    0.000017580670682
 Excitation Energies [eV] at current iteration:
 Root      1 :     4.466881503989488   Change is   -0.000000533100515
 Root      2 :     5.092818977596474   Change is   -0.000000074644283
 Root      3 :     5.299488473898975   Change is   -0.000000083351317
 Root      4 :     5.967364234633595   Change is   -0.000000049321562
 Root      5 :     6.035614122876369   Change is   -0.000000115077445
 Root      6 :     6.113004136461400   Change is   -0.000000043217259
 Root      7 :     6.250314609389844   Change is   -0.000002504352254
 Root      8 :     6.414330284839060   Change is   -0.000000216917199
 Root      9 :     6.459781087751134   Change is   -0.000002610201459
 Root     10 :     6.972422963152868   Change is   -0.000000052616770
 Root     11 :     7.272192826401493   Change is   -0.000000178342256
 Root     12 :     7.280225033078577   Change is   -0.000000296726716
 Root     13 :     7.461425531855616   Change is   -0.000000099875720
 Root     14 :     7.516490183429728   Change is   -0.000000099138525
 Root     15 :     7.604858607043218   Change is   -0.000000101747437
 Convergence achieved on expansion vectors.
 ***********************************************************************
 Excited states from <AA,BB:AA,BB> singles matrix:
 ***********************************************************************
 
 1PDM for each excited state written to RWF  633
 Ground to excited state transition densities written to RWF  633
 Ground to excited state transition electric dipole moments (Au):
       state          X           Y           Z        Dip. S.      Osc.
         1        -0.8549     -0.1648      0.1694      0.7867      0.0861
         2        -0.0441      0.1955     -0.0201      0.0406      0.0051
         3         0.0017      0.0010      0.0264      0.0007      0.0001
         4         0.1402     -0.2039      0.1325      0.0788      0.0115
         5        -0.1486     -0.0689      0.0237      0.0274      0.0041
         6         0.0732      0.0715     -0.0313      0.0114      0.0017
         7        -0.2932      1.5520     -0.0108      2.4949      0.3820
         8        -0.2124      0.0724      0.0630      0.0543      0.0085
         9         0.7566      0.0337      0.0677      0.5782      0.0915
        10         0.0801     -0.1497      0.0196      0.0292      0.0050
        11        -0.0250      0.0757      0.0752      0.0120      0.0021
        12         0.0433     -0.0688     -0.0788      0.0128      0.0023
        13         0.0284      0.0171      0.0198      0.0015      0.0003
        14         0.0079     -0.0136      0.0957      0.0094      0.0017
        15        -0.0810      0.0324     -0.0156      0.0079      0.0015
 Ground to excited state transition velocity dipole moments (Au):
       state          X           Y           Z        Dip. S.      Osc.
         1         0.0526      0.0084     -0.0296      0.0037      0.0151
         2         0.0078     -0.0048      0.0024      0.0001      0.0003
         3         0.0013     -0.0081     -0.0076      0.0001      0.0004
         4        -0.0313      0.0398     -0.0964      0.0118      0.0360
         5         0.0222      0.0173      0.0215      0.0013      0.0038
         6        -0.0134     -0.0151      0.0377      0.0018      0.0054
         7         0.0592     -0.3099     -0.0053      0.0996      0.2890
         8         0.0458     -0.0150     -0.1562      0.0267      0.0756
         9        -0.1391      0.0001     -0.0686      0.0240      0.0675
        10        -0.0174      0.0311     -0.0229      0.0018      0.0047
        11         0.0071     -0.0140      0.0391      0.0018      0.0044
        12        -0.0124      0.0122      0.0048      0.0003      0.0008
        13        -0.0070      0.0159     -0.0016      0.0003      0.0007
        14         0.0019     -0.0071      0.0279      0.0008      0.0020
        15         0.0155     -0.0160     -0.0298      0.0014      0.0033
 Ground to excited state transition magnetic dipole moments (Au):
       state          X           Y           Z
         1        -0.0122     -0.0424     -0.7413
         2        -0.0698      0.3085     -0.0192
         3        -0.1887      0.5777     -0.0194
         4         0.3624      0.0612      0.0478
         5         0.1298      0.0492     -0.0036
         6         0.0218      0.0309     -0.0325
         7        -0.0380      0.0040      0.0199
         8        -0.1539     -0.1103      0.0219
         9         0.0305     -0.0721      0.0233
        10        -0.3131      0.6693     -0.0274
        11         0.9906     -0.4611      0.0118
        12        -1.4567     -0.5529     -0.0306
        13        -0.3777      0.1037      0.0208
        14         0.1428      0.4407      0.0335
        15        -0.3101      0.2725      0.0136
 Ground to excited state transition velocity quadrupole moments (Au):
       state          XX          YY          ZZ          XY          XZ          YZ
         1         0.2134     -0.2011     -0.0001     -0.4105      0.0065     -0.0079
         2         0.0640     -0.1104      0.0648      0.0290      0.0730      0.0133
         3        -0.0130      0.0622     -0.0345     -0.0419      0.1110      0.0270
         4        -0.0539      0.0066      0.0126     -0.0298     -0.0555      0.2811
         5        -0.0553      0.0409      0.0139      0.0880     -0.0940      0.1115
         6         0.0537     -0.0891      0.0516     -0.0601     -0.1178     -0.0959
         7         0.4539     -0.2755     -0.0482      0.1243     -0.0931      0.0511
         8        -0.0574      0.0336      0.0186      0.1936     -0.0615      0.0289
         9         0.1895     -0.1778      0.0059     -0.4397      0.0218     -0.0493
        10         0.0013      0.0059     -0.0228     -0.0478     -0.2277     -0.1134
        11         0.0328      0.0391     -0.0085      0.0511     -0.1288     -0.0585
        12         0.0030      0.0048      0.0076     -0.0372      0.0047      0.0164
        13        -0.0084      0.0168     -0.0116     -0.0138     -0.2535      0.1506
        14        -0.0110     -0.0186     -0.0013     -0.0112      0.0634      0.1184
        15        -0.0217     -0.0318      0.0207      0.0702     -0.0175     -0.2157
 <0|del|b> * <b|rxdel|0> + <0|del|b> * <b|delr+rdel|0>
 Rotatory Strengths (R) in cgs (10**-40 erg-esu-cm/Gauss)
       state          XX          YY          ZZ    R(velocity)    E-M Angle
         1        72.5072     18.7976     -1.1301     30.0582       62.46
         2        -2.0702     -1.0553     -4.6576     -2.5943      133.30
         3        -5.9761     -0.7040    -10.5969     -5.7590      134.39
         4         4.6847    -44.5639     -3.7431    -14.5408      109.59
         5         6.8491      5.4065     -0.5924      3.8878       42.01
         6        -9.0219      3.1990     -0.4164     -2.0798      158.40
         7       -47.4975      2.0471     34.3828     -3.6892      105.33
         8       -49.3862     31.6502     -8.6953     -8.8105      106.43
         9        42.5558    -43.4330    -16.5186     -5.7986      117.48
        10        40.8079      9.5959     23.7170     24.7070       30.84
        11         9.4187      6.7112     20.7836     12.3045       72.36
        12        -9.4222     23.6591     15.3127      9.8499       66.58
        13         7.3157      1.9794      1.6929      3.6627       51.51
        14        -2.6315      2.2365     -4.5193     -1.6381       98.24
        15        -9.0378     -8.1924     -7.0238     -8.0847      128.55
 1/2[<0|r|b>*<b|rxdel|0> + (<0|rxdel|b>*<b|r|0>)*]
 Rotatory Strengths (R) in cgs (10**-40 erg-esu-cm/Gauss)
       state          XX          YY          ZZ     R(length)
         1        -7.3524     -4.9465     88.8246     25.5086
         2        -2.1805    -42.6435     -0.2730    -15.0324
         3         0.2281     -0.4021      0.3629      0.0630
         4       -35.9397      8.8274     -4.4752    -10.5292
         5        13.6473      2.3946      0.0610      5.3676
         6        -1.1301     -1.5629     -0.7181     -1.1370
         7        -7.8867     -4.3846      0.1514     -4.0399
         8       -23.1090      5.6482     -0.9742     -6.1450
         9       -16.3061      1.7168     -1.1130     -5.2341
        10        17.7285     70.8403      0.3807     29.6499
        11        17.5109     24.6729     -0.6279     13.8520
        12        44.6079    -26.8859     -1.7034      5.3395
        13         7.5838     -1.2528     -0.2916      2.0131
        14        -0.7998      4.2255     -2.2700      0.3853
        15       -17.7746     -6.2394      0.1497     -7.9547
  1/2[<0|del|b>*<b|r|0> + (<0|r|b>*<b|del|0>)*] (Au)
       state          X           Y           Z        Dip. S.   Osc.(frdel)
         1        -0.0450     -0.0014     -0.0050      0.0514      0.0343
         2        -0.0003     -0.0009      0.0000      0.0013      0.0009
         3         0.0000      0.0000     -0.0002      0.0002      0.0001
         4        -0.0044     -0.0081     -0.0128      0.0253      0.0168
         5        -0.0033     -0.0012      0.0005      0.0040      0.0027
         6        -0.0010     -0.0011     -0.0012      0.0032      0.0022
         7        -0.0173     -0.4810      0.0001      0.4983      0.3322
         8        -0.0097     -0.0011     -0.0098      0.0207      0.0138
         9        -0.1052      0.0000     -0.0046      0.1099      0.0732
        10        -0.0014     -0.0046     -0.0004      0.0065      0.0043
        11        -0.0002     -0.0011      0.0029     -0.0017     -0.0011
        12        -0.0005     -0.0008     -0.0004      0.0018      0.0012
        13        -0.0002      0.0003      0.0000      0.0000      0.0000
        14         0.0000      0.0001      0.0027     -0.0028     -0.0019
        15        -0.0013     -0.0005      0.0005      0.0013      0.0009

 Excitation energies and oscillator strengths:
 
 Excited State   1:      Singlet-A      4.4669 eV  277.56 nm  f=0.0861  <S**2>=0.000
      12 -> 15         0.18627
      13 -> 14         0.67411
 This state for optimization and/or second-order correction.
 Total Energy, E(CIS) =  0.180517488964    
 Copying the excited state density for this state as the 1-particle RhoCI density.
 
 Excited State   2:      Singlet-A      5.0928 eV  243.45 nm  f=0.0051  <S**2>=0.000
      12 -> 14        -0.38193
      13 -> 15         0.52753
      13 -> 16         0.25275
 
 Excited State   3:      Singlet-A      5.2995 eV  233.96 nm  f=0.0001  <S**2>=0.000
      12 -> 14         0.22106
      13 -> 15        -0.16027
      13 -> 16         0.63004
      13 -> 22         0.10643
 
 Excited State   4:      Singlet-A      5.9674 eV  207.77 nm  f=0.0115  <S**2>=0.000
       7 -> 16        -0.14149
      12 -> 15         0.11624
      12 -> 16         0.50445
      12 -> 22         0.20413
      13 -> 18        -0.29841
      13 -> 19         0.15026
      13 -> 23        -0.11799
 
 Excited State   5:      Singlet-A      6.0356 eV  205.42 nm  f=0.0041  <S**2>=0.000
       7 -> 16         0.12101
      12 -> 15        -0.17654
      12 -> 16        -0.29823
      12 -> 19         0.20316
      13 -> 17        -0.15033
      13 -> 18        -0.22377
      13 -> 19         0.35314
      13 -> 22         0.17849
      13 -> 23        -0.18956
      13 -> 24        -0.12927
 
 Excited State   6:      Singlet-A      6.1130 eV  202.82 nm  f=0.0017  <S**2>=0.000
      12 -> 15         0.10769
      12 -> 16         0.15430
      12 -> 18        -0.21448
      12 -> 20         0.10679
      12 -> 23        -0.10085
      12 -> 24        -0.11084
      13 -> 18         0.37865
      13 -> 19         0.25656
      13 -> 20        -0.11232
      13 -> 21        -0.11306
      13 -> 22         0.33071
 
 Excited State   7:      Singlet-A      6.2503 eV  198.36 nm  f=0.3820  <S**2>=0.000
      12 -> 14         0.50190
      13 -> 15         0.41049
 
 Excited State   8:      Singlet-A      6.4143 eV  193.29 nm  f=0.0085  <S**2>=0.000
      12 -> 15        -0.19473
      13 -> 17         0.58247
      13 -> 18        -0.18372
      13 -> 19         0.10111
      13 -> 22         0.10514
      13 -> 23         0.10180
 
 Excited State   9:      Singlet-A      6.4598 eV  191.93 nm  f=0.0915  <S**2>=0.000
      12 -> 15         0.59289
      12 -> 16        -0.21335
      13 -> 14        -0.15968
      13 -> 17         0.16511
      13 -> 18        -0.12389
 
 Excited State  10:      Singlet-A      6.9724 eV  177.82 nm  f=0.0050  <S**2>=0.000
      12 -> 17         0.41971
      12 -> 18        -0.39706
      12 -> 20         0.13184
      13 -> 18        -0.15849
      13 -> 19        -0.23117
      13 -> 22         0.14850
 
 Excited State  11:      Singlet-A      7.2722 eV  170.49 nm  f=0.0021  <S**2>=0.000
       9 -> 14        -0.30931
       9 -> 15         0.12063
      10 -> 15         0.12806
      11 -> 14         0.47831
      11 -> 15        -0.30757
 
 Excited State  12:      Singlet-A      7.2802 eV  170.30 nm  f=0.0023  <S**2>=0.000
       9 -> 14         0.11230
      10 -> 14         0.52612
      10 -> 15         0.24772
      11 -> 14         0.21091
      11 -> 15         0.13985
      13 -> 20        -0.11327
      13 -> 24         0.10008
 
 Excited State  13:      Singlet-A      7.4614 eV  166.17 nm  f=0.0003  <S**2>=0.000
       9 -> 14         0.10071
       9 -> 15        -0.11852
      10 -> 14         0.19465
      12 -> 17         0.32632
      12 -> 18         0.28604
      12 -> 20         0.20337
      12 -> 21        -0.10734
      12 -> 23         0.17109
      13 -> 17         0.12404
      13 -> 18         0.18673
      13 -> 19         0.12144
      13 -> 20         0.19160
 
 Excited State  14:      Singlet-A      7.5165 eV  164.95 nm  f=0.0017  <S**2>=0.000
       9 -> 14         0.14183
      11 -> 14         0.16321
      11 -> 15         0.12219
      12 -> 18         0.10978
      12 -> 19         0.22692
      12 -> 20        -0.15040
      12 -> 21         0.10558
      12 -> 22         0.12888
      12 -> 23        -0.12523
      13 -> 19        -0.27500
      13 -> 20         0.27616
      13 -> 22         0.26967
      13 -> 24        -0.19146
 
 Excited State  15:      Singlet-A      7.6049 eV  163.03 nm  f=0.0015  <S**2>=0.000
      12 -> 18         0.19650
      12 -> 19        -0.28132
      12 -> 20        -0.13363
      12 -> 22        -0.15494
      12 -> 24        -0.14204
      13 -> 17        -0.13230
      13 -> 18        -0.19383
      13 -> 21         0.15058
      13 -> 22         0.38858
      13 -> 24         0.18073
 SavETr:  write IOETrn=   770 NScale= 10 NData=  16 NLR=1 NState=   15 LETran=     280.
 The selected state is a singlet
 CISAX will form     1 AO SS matrices at one time.
 NMat=     1 NSing=     1 JSym2X= 0.
 Leave Link  914 at Tue Dec 15 16:29:43 2015, MaxMem=    33554432 cpu:         0.1
 (Enter /home/Applications/g09/g09/l1002.exe)
 Minotr:  Closed shell wavefunction.
          Computing CIS/TD-HF/TD-KS derivatives.
          Using Z-Vector for PSCF gradient.
          Skipping F1 and S1 gradient terms here.
          IDoAtm=111111111
          Direct CPHF calculation.
          Differentiating once with respect to electric field.
                with respect to dipole field.
          Differentiating once with respect to nuclear coordinates.
          Electric field/nuclear overlap derivatives assumed to be zero.
          Requested convergence is 1.0D-10 RMS, and 1.0D-09 maximum.
          NewPWx=T KeepS1=F KeepF1=F KeepIn=T MapXYZ=F SortEE=F KeepMc=T.
          MDV=      33495423 using IRadAn=       0.
 Keep J ints in memory in canonical form, NReq=871704.
 FoFCou: FMM=F IPFlag=           0 FMFlag=           0 FMFlg1=           0
         NFxFlg=           0 DoJE=F BraDBF=F KetDBF=F FulRan=T
         wScrn=  0.000000 ICntrl=     600 IOpCl=  2 I1Cent=           0 NGrid=           0
         NMat0=    1 NMatS0=     54 NMatT0=    0 NMatD0=    1 NMtDS0=    0 NMtDT0=    0
 Symmetry not used in FoFCou.
          Solving linear equations separately, MaxMat=       0.
          There are     1 degrees of freedom in the 1st order CPHF.  IDoFFX=0 NUNeed=     1.
 LinEq1:  Iter=  0 NonCon=     1 RMS=1.12D-02 Max=8.47D-02 NDo=     1
 AX will form     1 AO Fock derivatives at one time.
 LinEq1:  Iter=  1 NonCon=     1 RMS=2.29D-03 Max=1.75D-02 NDo=     1
 LinEq1:  Iter=  2 NonCon=     1 RMS=3.70D-04 Max=2.68D-03 NDo=     1
 LinEq1:  Iter=  3 NonCon=     1 RMS=4.91D-05 Max=2.32D-04 NDo=     1
 LinEq1:  Iter=  4 NonCon=     1 RMS=5.54D-06 Max=2.49D-05 NDo=     1
 LinEq1:  Iter=  5 NonCon=     1 RMS=8.06D-07 Max=3.25D-06 NDo=     1
 LinEq1:  Iter=  6 NonCon=     1 RMS=1.13D-07 Max=5.89D-07 NDo=     1
 LinEq1:  Iter=  7 NonCon=     1 RMS=1.32D-08 Max=5.53D-08 NDo=     1
 LinEq1:  Iter=  8 NonCon=     1 RMS=1.64D-09 Max=6.50D-09 NDo=     1
 LinEq1:  Iter=  9 NonCon=     1 RMS=1.96D-10 Max=5.81D-10 NDo=     1
 LinEq1:  Iter= 10 NonCon=     0 RMS=1.83D-11 Max=7.26D-11 NDo=     1
 Linear equations converged to 1.000D-10 1.000D-09 after    10 iterations.
 End of Minotr F.D. properties file   721 does not exist.
 End of Minotr F.D. properties file   722 does not exist.
 End of Minotr F.D. properties file   788 does not exist.
 Leave Link 1002 at Tue Dec 15 16:29:43 2015, MaxMem=    33554432 cpu:         0.0
 (Enter /home/Applications/g09/g09/l601.exe)
 Copying SCF densities to generalized density rwf, IOpCl= 0 IROHF=0.

 **********************************************************************

            Population analysis using the SCF density.

 **********************************************************************

 Orbital symmetries:
       Occupied  (A) (A) (A) (A) (A) (A) (A) (A) (A) (A) (A) (A)
                 (A)
       Virtual   (A) (A) (A) (A) (A) (A) (A) (A) (A) (A) (A)
 The electronic state is 1-A.
 Alpha  occ. eigenvalues --   -1.54222  -1.23746  -1.09508  -0.81823  -0.81139
 Alpha  occ. eigenvalues --   -0.67920  -0.58871  -0.55563  -0.51457  -0.50967
 Alpha  occ. eigenvalues --   -0.49458  -0.39716  -0.35035
 Alpha virt. eigenvalues --    0.02834   0.06293   0.10256   0.13467   0.14501
 Alpha virt. eigenvalues --    0.14997   0.17417   0.18662   0.18748   0.20719
 Alpha virt. eigenvalues --    0.21754
     Molecular Orbital Coefficients:
                           1         2         3         4         5
                           O         O         O         O         O
     Eigenvalues --    -1.54222  -1.23746  -1.09508  -0.81823  -0.81139
   1 1   C  1S          0.30097  -0.43687   0.32826  -0.19897  -0.38056
   2        1PX        -0.04152   0.08199   0.18997  -0.24651   0.15063
   3        1PY        -0.12611   0.04590  -0.09100   0.03738  -0.23368
   4        1PZ        -0.00597   0.00816  -0.00553  -0.00328   0.00525
   5 2   C  1S          0.36472  -0.09522   0.52707  -0.02001   0.40810
   6        1PX        -0.17004   0.00086   0.00397  -0.01984   0.12677
   7        1PY        -0.04136  -0.22918   0.05945  -0.33909  -0.14912
   8        1PZ         0.00392  -0.00300   0.00486  -0.01162   0.00036
   9 3   O  1S          0.61786   0.61947  -0.02651   0.14684  -0.26810
  10        1PX        -0.04535   0.00478   0.28273   0.47741   0.16295
  11        1PY         0.19088  -0.00912   0.06717   0.00397   0.20917
  12        1PZ         0.00542   0.00260  -0.00375  -0.02065  -0.00181
  13 4   C  1S          0.37975  -0.13081  -0.49140  -0.30153   0.30380
  14        1PX         0.17347   0.10744   0.02873  -0.09144  -0.16563
  15        1PY         0.03474  -0.22917  -0.03154   0.31313   0.10270
  16        1PZ        -0.01357   0.00197   0.01603   0.00261  -0.00576
  17 5   C  1S          0.30308  -0.47143  -0.29704   0.39943  -0.08669
  18        1PX         0.09064  -0.08096   0.12858  -0.12852  -0.19470
  19        1PY        -0.09704   0.02144   0.15176   0.13787  -0.29844
  20        1PZ         0.00677  -0.00965  -0.00547  -0.00341   0.00318
  21 6   H  1S          0.07156  -0.15945  -0.12408   0.28512  -0.06559
  22 7   H  1S          0.08155  -0.02454  -0.18812  -0.20555   0.16397
  23 8   H  1S          0.08185  -0.01520   0.20642   0.03000   0.27584
  24 9   H  1S          0.06427  -0.13415   0.12860  -0.12464  -0.24234
                           6         7         8         9        10
                           O         O         O         O         O
     Eigenvalues --    -0.67920  -0.58871  -0.55563  -0.51457  -0.50967
   1 1   C  1S         -0.07341   0.00363   0.17788  -0.01068   0.01438
   2        1PX        -0.18022  -0.01158   0.05281   0.14891  -0.27260
   3        1PY        -0.25162   0.00913   0.17938  -0.00442   0.45871
   4        1PZ         0.00258   0.23729   0.02134  -0.00734  -0.00604
   5 2   C  1S         -0.10029  -0.00384  -0.14904   0.05715  -0.01191
   6        1PX        -0.38887   0.02995  -0.29261  -0.36631   0.22752
   7        1PY        -0.03325  -0.01973  -0.14589  -0.03614  -0.45461
   8        1PZ         0.00916   0.37361   0.00704   0.01374  -0.03046
   9 3   O  1S         -0.17618  -0.00190   0.04789  -0.12157  -0.17129
  10        1PX        -0.04595   0.02135   0.48393   0.01176  -0.05363
  11        1PY         0.44805  -0.02241  -0.01960   0.43616   0.37995
  12        1PZ         0.01873   0.76667  -0.01494   0.03713  -0.01251
  13 4   C  1S         -0.08781   0.02113   0.14067  -0.00920   0.10314
  14        1PX         0.32635   0.01890  -0.40832  -0.08913   0.15170
  15        1PY         0.18294   0.00350   0.10028  -0.34354  -0.14731
  16        1PZ         0.00871   0.39110   0.01899   0.00201  -0.00569
  17 5   C  1S         -0.07145   0.00249  -0.15839  -0.04526  -0.03100
  18        1PX         0.26589  -0.00745   0.11009  -0.32181   0.23890
  19        1PY        -0.16699   0.01676  -0.24720   0.39085   0.11507
  20        1PZ         0.01765   0.24286   0.03921  -0.04478   0.00344
  21 6   H  1S         -0.23274   0.00627  -0.27962   0.37081  -0.10400
  22 7   H  1S         -0.26535  -0.01458   0.25391   0.22636   0.05869
  23 8   H  1S         -0.27545   0.02173  -0.26674  -0.23530   0.27594
  24 9   H  1S         -0.22336   0.00329   0.23683   0.04041   0.24842
                          11        12        13        14        15
                           O         O         O         V         V
     Eigenvalues --    -0.49458  -0.39716  -0.35035   0.02834   0.06293
   1 1   C  1S         -0.03306   0.01418   0.01551  -0.01315  -0.01919
   2        1PX         0.45125  -0.01603  -0.01101   0.01763  -0.00007
   3        1PY         0.31506  -0.02053  -0.00695  -0.00196   0.01427
   4        1PZ         0.02527   0.55885   0.40489  -0.35845  -0.57703
   5 2   C  1S         -0.06107   0.00461  -0.01344  -0.01277  -0.01317
   6        1PX         0.01534   0.00210   0.01174   0.00430   0.01738
   7        1PY         0.02623  -0.00047  -0.02552  -0.01388   0.03614
   8        1PZ         0.00848   0.17219   0.59706   0.56841   0.38473
   9 3   O  1S          0.02183   0.00061  -0.00262  -0.00200   0.02395
  10        1PX        -0.07597  -0.03473   0.00140   0.00613  -0.02693
  11        1PY         0.19003   0.02138   0.00252  -0.00381   0.05420
  12        1PZ        -0.00762  -0.53501  -0.00196  -0.34936   0.01311
  13 4   C  1S          0.01593   0.00409  -0.03469   0.04997  -0.05541
  14        1PX         0.22472  -0.00102  -0.00669   0.00073  -0.03423
  15        1PY         0.34925  -0.00871  -0.00963  -0.00219   0.03959
  16        1PZ        -0.01384   0.18873  -0.57208   0.55841  -0.39794
  17 5   C  1S         -0.02135  -0.01600   0.01407  -0.00006   0.00458
  18        1PX        -0.38700  -0.03124   0.02176   0.02798  -0.01610
  19        1PY        -0.26444   0.05284  -0.02906   0.01040   0.02519
  20        1PZ         0.00201   0.57316  -0.38394  -0.32957   0.58617
  21 6   H  1S          0.08670   0.02366  -0.01109   0.00395  -0.02156
  22 7   H  1S         -0.32788   0.00076   0.02061  -0.03832   0.05330
  23 8   H  1S         -0.04285   0.00704   0.01020   0.00619   0.01672
  24 9   H  1S          0.37189  -0.01945  -0.00221   0.00988   0.00022
                          16        17        18        19        20
                           V         V         V         V         V
     Eigenvalues --     0.10256   0.13467   0.14501   0.14997   0.17417
   1 1   C  1S          0.06433  -0.32136  -0.17386   0.13829  -0.37057
   2        1PX         0.03299   0.25563  -0.30369   0.17274   0.13739
   3        1PY         0.04384   0.01676  -0.12853  -0.35107  -0.34009
   4        1PZ         0.04723   0.02551   0.00466  -0.02152   0.02667
   5 2   C  1S         -0.27971   0.19797   0.16113  -0.40490  -0.15908
   6        1PX         0.18529   0.21852  -0.28023  -0.13959  -0.02575
   7        1PY         0.37320   0.03762  -0.09121  -0.20993   0.18036
   8        1PZ        -0.02972   0.00113   0.00542  -0.00935  -0.01540
   9 3   O  1S          0.21964  -0.02045  -0.00472  -0.06475   0.04661
  10        1PX        -0.07587   0.07818  -0.36364   0.14900   0.10336
  11        1PY         0.49964  -0.03965  -0.07441  -0.09138   0.10799
  12        1PZ         0.01166  -0.01395   0.00264  -0.01074   0.01077
  13 4   C  1S         -0.28191  -0.20178  -0.38881  -0.11609   0.20992
  14        1PX        -0.25407   0.33958  -0.16238   0.34077  -0.22037
  15        1PY         0.25576   0.08698  -0.10377  -0.03717  -0.06279
  16        1PZ         0.08150   0.03316   0.05883   0.00583  -0.03631
  17 5   C  1S          0.06771   0.26171   0.19246  -0.09772   0.11547
  18        1PX        -0.00482   0.29142  -0.25217   0.07807   0.29682
  19        1PY         0.01591   0.04922  -0.28248  -0.22045   0.28835
  20        1PZ        -0.07206   0.00446  -0.01209   0.02516   0.01234
  21 6   H  1S         -0.12492  -0.05172  -0.20255   0.31766  -0.06101
  22 7   H  1S          0.31571   0.47847   0.13428   0.29521  -0.29964
  23 8   H  1S          0.25838  -0.39153   0.10448   0.40729   0.17920
  24 9   H  1S         -0.16108   0.16832   0.40993   0.12266   0.48560
                          21        22        23        24
                           V         V         V         V
     Eigenvalues --     0.18662   0.18748   0.20719   0.21754
   1 1   C  1S         -0.05701   0.20778  -0.18697  -0.10721
   2        1PX        -0.41552   0.19177   0.23398  -0.25347
   3        1PY        -0.11328  -0.25950   0.38137   0.16881
   4        1PZ        -0.00242  -0.01714   0.01590  -0.00120
   5 2   C  1S          0.11716  -0.11830   0.10973  -0.02831
   6        1PX         0.25126   0.44339  -0.29839   0.02624
   7        1PY         0.15760  -0.26249   0.08109   0.49547
   8        1PZ         0.00491  -0.01012   0.00658   0.01640
   9 3   O  1S          0.06735   0.04552   0.00446  -0.01302
  10        1PX        -0.02118  -0.02185  -0.14256   0.46665
  11        1PY         0.10456   0.21265  -0.02348   0.07737
  12        1PZ         0.00501   0.00273   0.00605  -0.02175
  13 4   C  1S          0.00828  -0.14370  -0.13479   0.02214
  14        1PX        -0.10074  -0.21813  -0.23163   0.28840
  15        1PY         0.18325  -0.41438  -0.16409  -0.45654
  16        1PZ         0.00166   0.01249   0.01056  -0.00233
  17 5   C  1S         -0.43639   0.21793   0.09517   0.12837
  18        1PX         0.12480   0.01828   0.48019  -0.17113
  19        1PY        -0.20496  -0.32292  -0.30852  -0.27156
  20        1PZ        -0.01059   0.03221   0.03421   0.01906
  21 6   H  1S          0.53116   0.01994   0.36110  -0.04699
  22 7   H  1S          0.03307  -0.21642  -0.10757  -0.05593
  23 8   H  1S         -0.22772  -0.28950   0.14698   0.07688
  24 9   H  1S          0.25802  -0.02741  -0.19377   0.03018
     Density Matrix:
                           1         2         3         4         5
   1 1   C  1S          1.22501
   2        1PX         0.01504   0.92777
   3        1PY         0.07971   0.03778   0.97608
   4        1PZ         0.01861  -0.00416  -0.00688   1.06783
   5 2   C  1S          0.30998   0.27619  -0.44187  -0.02552   1.25292
   6        1PX        -0.22210  -0.04732   0.29417   0.01844   0.09978
   7        1PY         0.40080   0.36907  -0.41290  -0.03284   0.02248
   8        1PZ         0.03807   0.00535  -0.03653   0.85412  -0.01070
   9 3   O  1S         -0.00208   0.03257   0.00564   0.00299   0.08873
  10        1PX         0.02149  -0.04187   0.02132  -0.01442   0.25428
  11        1PY        -0.07699  -0.00030   0.07197   0.01438   0.31621
  12        1PZ        -0.01025   0.01030   0.00344  -0.23691  -0.00574
  13 4   C  1S         -0.02673   0.00256   0.01722  -0.00431   0.01498
  14        1PX        -0.01001  -0.05814   0.00278  -0.00428   0.01986
  15        1PY        -0.01404   0.06238  -0.01621   0.00904  -0.03783
  16        1PZ         0.00062  -0.00792  -0.00061  -0.06657   0.01057
  17 5   C  1S          0.26200  -0.44505  -0.05713  -0.02404  -0.02984
  18        1PX         0.44824  -0.62611  -0.08761  -0.03751  -0.01886
  19        1PY         0.14451  -0.24100   0.07798   0.00737   0.01855
  20        1PZ         0.02624  -0.03274  -0.00710   0.44733  -0.00318
  21 6   H  1S         -0.04418   0.05951   0.01392   0.00286   0.05158
  22 7   H  1S          0.05240  -0.06971  -0.01131   0.00326   0.04954
  23 8   H  1S         -0.06179  -0.05160   0.08484   0.01078   0.61029
  24 9   H  1S          0.57252   0.32832   0.71215  -0.00393  -0.05748
                           6         7         8         9        10
   6        1PX         0.93893
   7        1PY        -0.08035   0.85417
   8        1PZ         0.00146  -0.01149   1.05443
   9 3   O  1S         -0.16246  -0.19421  -0.00216   1.87515
  10        1PX        -0.24160  -0.43229   0.00532   0.06233   1.16649
  11        1PY        -0.49053  -0.45905  -0.00412  -0.27754  -0.02942
  12        1PZ         0.00317  -0.00579   0.38854  -0.01163   0.03419
  13 4   C  1S         -0.00369  -0.04254  -0.02390   0.09390  -0.37142
  14        1PX         0.03039   0.02856   0.00114   0.23329  -0.61659
  15        1PY        -0.00450  -0.00854  -0.00753  -0.10802   0.34491
  16        1PZ        -0.00842   0.01384  -0.32532  -0.00997   0.03325
  17 5   C  1S          0.02300  -0.00882   0.00286   0.00058   0.01320
  18        1PX        -0.01289  -0.07473  -0.00859  -0.03224  -0.01282
  19        1PY        -0.01390  -0.05100  -0.01410  -0.01155  -0.06072
  20        1PZ         0.00427   0.00165  -0.08000   0.00312  -0.00193
  21 6   H  1S         -0.02500   0.04828   0.00303   0.02091  -0.07126
  22 7   H  1S         -0.07134  -0.07120   0.01362  -0.03964   0.06153
  23 8   H  1S          0.71107  -0.21924   0.00027  -0.03555  -0.03332
  24 9   H  1S          0.05246  -0.03526  -0.01008   0.02241   0.03665
                          11        12        13        14        15
  11        1PY         1.31520
  12        1PZ        -0.01930   1.75333
  13 4   C  1S          0.19730   0.03564   1.25230
  14        1PX         0.42857   0.04729  -0.10094   0.86670
  15        1PY        -0.06080  -0.02245  -0.02520   0.08102   0.93743
  16        1PZ        -0.01857   0.39991   0.02828   0.00198   0.00567
  17 5   C  1S         -0.07838   0.00758   0.31263   0.01417   0.45564
  18        1PX        -0.04233   0.01022  -0.05207   0.14849  -0.08534
  19        1PY         0.04849  -0.00611  -0.52189  -0.00650  -0.59917
  20        1PZ        -0.00639  -0.24315   0.06814   0.00210   0.04834
  21 6   H  1S          0.06885   0.00215  -0.05587  -0.02889  -0.05400
  22 7   H  1S         -0.05623  -0.01038   0.59032  -0.55581  -0.51478
  23 8   H  1S         -0.07397  -0.00330   0.04626   0.08525  -0.02893
  24 9   H  1S          0.09683   0.00659   0.05379   0.00024   0.05499
                          16        17        18        19        20
  16        1PZ         1.03400
  17 5   C  1S         -0.04321   1.20702
  18        1PX        -0.02409  -0.05447   0.96089
  19        1PY         0.07332   0.06122  -0.04121   0.93964
  20        1PZ         0.84666  -0.02595  -0.00819   0.02424   1.07792
  21 6   H  1S          0.00782   0.59655  -0.58370   0.49878  -0.02199
  22 7   H  1S         -0.03165  -0.06046   0.01136   0.09681  -0.02660
  23 8   H  1S         -0.00854   0.04751   0.06619   0.01673   0.00364
  24 9   H  1S         -0.00610  -0.04598  -0.06786  -0.02115  -0.00737
                          21        22        23        24
  21 6   H  1S          0.84089
  22 7   H  1S          0.00719   0.81897
  23 8   H  1S         -0.01530  -0.02096   0.81505
  24 9   H  1S         -0.00574  -0.01738   0.00926   0.84189
    Full Mulliken population analysis:
                           1         2         3         4         5
   1 1   C  1S          1.22501
   2        1PX         0.00000   0.92777
   3        1PY         0.00000   0.00000   0.97608
   4        1PZ         0.00000   0.00000   0.00000   1.06783
   5 2   C  1S          0.00000   0.00000   0.00000   0.00000   1.25292
   6        1PX         0.00000   0.00000   0.00000   0.00000   0.00000
   7        1PY         0.00000   0.00000   0.00000   0.00000   0.00000
   8        1PZ         0.00000   0.00000   0.00000   0.00000   0.00000
   9 3   O  1S          0.00000   0.00000   0.00000   0.00000   0.00000
  10        1PX         0.00000   0.00000   0.00000   0.00000   0.00000
  11        1PY         0.00000   0.00000   0.00000   0.00000   0.00000
  12        1PZ         0.00000   0.00000   0.00000   0.00000   0.00000
  13 4   C  1S          0.00000   0.00000   0.00000   0.00000   0.00000
  14        1PX         0.00000   0.00000   0.00000   0.00000   0.00000
  15        1PY         0.00000   0.00000   0.00000   0.00000   0.00000
  16        1PZ         0.00000   0.00000   0.00000   0.00000   0.00000
  17 5   C  1S          0.00000   0.00000   0.00000   0.00000   0.00000
  18        1PX         0.00000   0.00000   0.00000   0.00000   0.00000
  19        1PY         0.00000   0.00000   0.00000   0.00000   0.00000
  20        1PZ         0.00000   0.00000   0.00000   0.00000   0.00000
  21 6   H  1S          0.00000   0.00000   0.00000   0.00000   0.00000
  22 7   H  1S          0.00000   0.00000   0.00000   0.00000   0.00000
  23 8   H  1S          0.00000   0.00000   0.00000   0.00000   0.00000
  24 9   H  1S          0.00000   0.00000   0.00000   0.00000   0.00000
                           6         7         8         9        10
   6        1PX         0.93893
   7        1PY         0.00000   0.85417
   8        1PZ         0.00000   0.00000   1.05443
   9 3   O  1S          0.00000   0.00000   0.00000   1.87515
  10        1PX         0.00000   0.00000   0.00000   0.00000   1.16649
  11        1PY         0.00000   0.00000   0.00000   0.00000   0.00000
  12        1PZ         0.00000   0.00000   0.00000   0.00000   0.00000
  13 4   C  1S          0.00000   0.00000   0.00000   0.00000   0.00000
  14        1PX         0.00000   0.00000   0.00000   0.00000   0.00000
  15        1PY         0.00000   0.00000   0.00000   0.00000   0.00000
  16        1PZ         0.00000   0.00000   0.00000   0.00000   0.00000
  17 5   C  1S          0.00000   0.00000   0.00000   0.00000   0.00000
  18        1PX         0.00000   0.00000   0.00000   0.00000   0.00000
  19        1PY         0.00000   0.00000   0.00000   0.00000   0.00000
  20        1PZ         0.00000   0.00000   0.00000   0.00000   0.00000
  21 6   H  1S          0.00000   0.00000   0.00000   0.00000   0.00000
  22 7   H  1S          0.00000   0.00000   0.00000   0.00000   0.00000
  23 8   H  1S          0.00000   0.00000   0.00000   0.00000   0.00000
  24 9   H  1S          0.00000   0.00000   0.00000   0.00000   0.00000
                          11        12        13        14        15
  11        1PY         1.31520
  12        1PZ         0.00000   1.75333
  13 4   C  1S          0.00000   0.00000   1.25230
  14        1PX         0.00000   0.00000   0.00000   0.86670
  15        1PY         0.00000   0.00000   0.00000   0.00000   0.93743
  16        1PZ         0.00000   0.00000   0.00000   0.00000   0.00000
  17 5   C  1S          0.00000   0.00000   0.00000   0.00000   0.00000
  18        1PX         0.00000   0.00000   0.00000   0.00000   0.00000
  19        1PY         0.00000   0.00000   0.00000   0.00000   0.00000
  20        1PZ         0.00000   0.00000   0.00000   0.00000   0.00000
  21 6   H  1S          0.00000   0.00000   0.00000   0.00000   0.00000
  22 7   H  1S          0.00000   0.00000   0.00000   0.00000   0.00000
  23 8   H  1S          0.00000   0.00000   0.00000   0.00000   0.00000
  24 9   H  1S          0.00000   0.00000   0.00000   0.00000   0.00000
                          16        17        18        19        20
  16        1PZ         1.03400
  17 5   C  1S          0.00000   1.20702
  18        1PX         0.00000   0.00000   0.96089
  19        1PY         0.00000   0.00000   0.00000   0.93964
  20        1PZ         0.00000   0.00000   0.00000   0.00000   1.07792
  21 6   H  1S          0.00000   0.00000   0.00000   0.00000   0.00000
  22 7   H  1S          0.00000   0.00000   0.00000   0.00000   0.00000
  23 8   H  1S          0.00000   0.00000   0.00000   0.00000   0.00000
  24 9   H  1S          0.00000   0.00000   0.00000   0.00000   0.00000
                          21        22        23        24
  21 6   H  1S          0.84089
  22 7   H  1S          0.00000   0.81897
  23 8   H  1S          0.00000   0.00000   0.81505
  24 9   H  1S          0.00000   0.00000   0.00000   0.84189
     Gross orbital populations:
                           1
   1 1   C  1S          1.22501
   2        1PX         0.92777
   3        1PY         0.97608
   4        1PZ         1.06783
   5 2   C  1S          1.25292
   6        1PX         0.93893
   7        1PY         0.85417
   8        1PZ         1.05443
   9 3   O  1S          1.87515
  10        1PX         1.16649
  11        1PY         1.31520
  12        1PZ         1.75333
  13 4   C  1S          1.25230
  14        1PX         0.86670
  15        1PY         0.93743
  16        1PZ         1.03400
  17 5   C  1S          1.20702
  18        1PX         0.96089
  19        1PY         0.93964
  20        1PZ         1.07792
  21 6   H  1S          0.84089
  22 7   H  1S          0.81897
  23 8   H  1S          0.81505
  24 9   H  1S          0.84189
          Condensed to atoms (all electrons):
               1          2          3          4          5          6
     1  C    4.196682   0.000000   0.000000   0.000000   0.000000   0.000000
     2  C    0.000000   4.100446   0.000000   0.000000   0.000000   0.000000
     3  O    0.000000   0.000000   6.110172   0.000000   0.000000   0.000000
     4  C    0.000000   0.000000   0.000000   4.090426   0.000000   0.000000
     5  C    0.000000   0.000000   0.000000   0.000000   4.185472   0.000000
     6  H    0.000000   0.000000   0.000000   0.000000   0.000000   0.840888
     7  H    0.000000   0.000000   0.000000   0.000000   0.000000   0.000000
     8  H    0.000000   0.000000   0.000000   0.000000   0.000000   0.000000
     9  H    0.000000   0.000000   0.000000   0.000000   0.000000   0.000000
               7          8          9
     1  C    0.000000   0.000000   0.000000
     2  C    0.000000   0.000000   0.000000
     3  O    0.000000   0.000000   0.000000
     4  C    0.000000   0.000000   0.000000
     5  C    0.000000   0.000000   0.000000
     6  H    0.000000   0.000000   0.000000
     7  H    0.818975   0.000000   0.000000
     8  H    0.000000   0.815049   0.000000
     9  H    0.000000   0.000000   0.841890
 Mulliken charges:
               1
     1  C   -0.196682
     2  C   -0.100446
     3  O   -0.110172
     4  C   -0.090426
     5  C   -0.185472
     6  H    0.159112
     7  H    0.181025
     8  H    0.184951
     9  H    0.158110
 Sum of Mulliken charges =   0.00000
 Mulliken charges with hydrogens summed into heavy atoms:
               1
     1  C   -0.038571
     2  C    0.084505
     3  O   -0.110172
     4  C    0.090600
     5  C   -0.026361
 Charge=              0.0000 electrons
 Dipole moment (field-independent basis, Debye):
    X=             -0.0887    Y=              0.4997    Z=             -0.1022  Tot=              0.5177
 N-N= 1.031038647151D+02 E-N=-1.704818272772D+02  KE=-1.650467150342D+01
 Orbital energies and kinetic energies (alpha):
                                 1                 2
   1         O                -1.542222         -1.303081
   2         O                -1.237462         -1.047377
   3         O                -1.095084         -0.958405
   4         O                -0.818231         -0.707931
   5         O                -0.811393         -0.719970
   6         O                -0.679196         -0.601336
   7         O                -0.588714         -0.480106
   8         O                -0.555634         -0.495361
   9         O                -0.514566         -0.435794
  10         O                -0.509667         -0.418673
  11         O                -0.494575         -0.426490
  12         O                -0.397156         -0.342647
  13         O                -0.350353         -0.315164
  14         V                 0.028337         -0.199062
  15         V                 0.062933         -0.191352
  16         V                 0.102561         -0.189687
  17         V                 0.134671         -0.227826
  18         V                 0.145014         -0.177588
  19         V                 0.149968         -0.197591
  20         V                 0.174167         -0.192016
  21         V                 0.186623         -0.188882
  22         V                 0.187475         -0.121010
  23         V                 0.207191         -0.126915
  24         V                 0.217536         -0.056839
 Total kinetic energy from orbitals=-1.650467150342D+01
 Leave Link  601 at Tue Dec 15 16:29:43 2015, MaxMem=    33554432 cpu:         0.0
 (Enter /home/Applications/g09/g09/l701.exe)
 Compute integral first derivatives.
 ... and contract with generalized density number  6.
 Leave Link  701 at Tue Dec 15 16:29:43 2015, MaxMem=    33554432 cpu:         0.0
 (Enter /home/Applications/g09/g09/l702.exe)
 L702 exits ... SP integral derivatives will be done elsewhere.
 Leave Link  702 at Tue Dec 15 16:29:43 2015, MaxMem=    33554432 cpu:         0.0
 (Enter /home/Applications/g09/g09/l703.exe)
 Compute integral first derivatives, UseDBF=F ICtDFT=           0.
 Integral derivatives from FoFJK, PRISM(SPDF).
 Calling FoFJK, ICntrl=  10005127 FMM=F ISym2X=0 I1Cent= 0 IOpClX= 0 NMat=1 NMatS=1 NMatT=0.
 FoFJK:  IHMeth= 8 ICntrl=10005127 DoSepK=F KAlg= 0 I1Cent=   0 FoldK=F
 IRaf=         0 NMat=   1 IRICut=       1 DoRegI=T DoRafI=F ISym2E= 0.
 FoFCou: FMM=F IPFlag=           0 FMFlag=      100000 FMFlg1=         800
         NFxFlg=           0 DoJE=F BraDBF=F KetDBF=F FulRan=T
         wScrn=  0.000000 ICntrl=10005127 IOpCl=  0 I1Cent=           0 NGrid=           0
         NMat0=    1 NMatS0=      1 NMatT0=    0 NMatD0=    1 NMtDS0=    0 NMtDT0=    0
 Symmetry not used in FoFCou.
 Leave Link  703 at Tue Dec 15 16:29:43 2015, MaxMem=    33554432 cpu:         0.0
 (Enter /home/Applications/g09/g09/l716.exe)
 Dipole        =-4.80081701D-02 2.91821647D-01-6.27207339D-02
 ***** Axes restored to original set *****
 -------------------------------------------------------------------
 Center     Atomic                   Forces (Hartrees/Bohr)
 Number     Number              X              Y              Z
 -------------------------------------------------------------------
      1        6           0.106556721    0.022612585   -0.010613738
      2        6          -0.075193479   -0.026160257    0.005951430
      3        8          -0.029094677   -0.007488603    0.002046931
      4        6          -0.113069495    0.079599832   -0.015621070
      5        6           0.068208114   -0.082049819    0.013542824
      6        1           0.039981618    0.025948043   -0.001834354
      7        1           0.008645696   -0.012348587    0.006782796
      8        1          -0.003474592   -0.011311161   -0.002147634
      9        1          -0.002559906    0.011197967    0.001892815
 -------------------------------------------------------------------
 Cartesian Forces:  Max     0.113069495 RMS     0.044313825
 Z-matrix is all fixed cartesians, so copy forces.
 Force constants in Cartesian coordinates: 
                1             2             3             4             5 
      1  0.890102D+00
      2 -0.483764D-02  0.776149D+00
      3  0.248925D-01 -0.102001D-01  0.199445D+00
      4 -0.509732D+00 -0.116659D+00 -0.246564D-01  0.918297D+00
      5 -0.943621D-01 -0.222370D+00 -0.621983D-02  0.695940D-01  0.834387D+00
      6 -0.265867D-01 -0.662948D-02 -0.105719D+00  0.306459D-01  0.660108D-02
      7 -0.885638D-02  0.276580D-01 -0.250223D-03 -0.259853D+00  0.138018D+00
      8 -0.684488D-02  0.214707D-01  0.435659D-03  0.180059D+00 -0.313577D+00
      9 -0.161223D-02  0.213119D-02  0.586636D-02 -0.421076D-02 -0.102579D-02
     10  0.899776D-02 -0.122962D-03 -0.767621D-03  0.220316D-01  0.170743D-01
     11  0.348884D-01 -0.486092D-03 -0.391708D-02 -0.177120D-01 -0.137518D-01
     12 -0.228354D-02  0.219971D-03  0.206396D-03  0.620326D-03  0.236182D-03
     13 -0.166026D+00  0.101646D-01  0.234284D-03  0.107504D-01 -0.339983D-01
     14 -0.133431D-01 -0.389669D+00  0.174680D-01 -0.697353D-04  0.151470D-03
     15  0.506383D-03  0.182405D-01 -0.809902D-01  0.977657D-03 -0.272581D-02
     16  0.184871D-01 -0.149235D-03  0.192441D-03  0.000000D+00  0.000000D+00
     17 -0.237727D-01  0.229778D-03  0.568379D-03 -0.134504D-04  0.884772D-05
     18  0.213007D-02  0.810205D-03  0.178440D-01 -0.289689D-03  0.190559D-03
     19  0.351480D-04  0.273330D-04  0.595220D-03  0.237878D-04  0.132142D-04
     20  0.585935D-04  0.455655D-04  0.992261D-03 -0.467153D-05 -0.259504D-05
     21  0.421596D-03  0.327856D-03  0.713959D-02 -0.196046D-03 -0.108904D-03
     22  0.822685D-02 -0.256142D-01 -0.435431D-03 -0.175746D+00 -0.114383D+00
     23 -0.456457D-02  0.142454D-01  0.505149D-04 -0.108134D+00 -0.306906D+00
     24 -0.810763D-03 -0.294705D-02  0.310832D-01 -0.736409D-03  0.786837D-03
     25 -0.241234D+00  0.109533D+00  0.195200D-03 -0.577168D-02  0.180431D-01
     26  0.112778D+00 -0.199616D+00  0.822149D-03 -0.705962D-02  0.220593D-01
     27  0.334264D-02 -0.195308D-02 -0.748753D-01 -0.215460D-02  0.226567D-02
                6             7             8             9            10 
      6  0.198116D+00
      7 -0.672001D-02  0.514639D+00
      8  0.256366D-02  0.134683D-01  0.613745D+00
      9 -0.422715D-01  0.244672D-01  0.171213D-01  0.510964D-01
     10  0.214529D-02 -0.278222D+00 -0.192883D+00 -0.228624D-01  0.963042D+00
     11 -0.204473D-02 -0.150387D+00 -0.326443D+00 -0.217766D-01 -0.285652D-01
     12 -0.134855D-02 -0.166875D-01 -0.194152D-01 -0.446809D-01  0.540444D-02
     13  0.243131D-02 -0.756387D-02  0.597919D-02  0.134593D-02 -0.554802D+00
     14  0.338917D-03 -0.283516D-01  0.226225D-01  0.201533D-02  0.107665D+00
     15 -0.145229D-02 -0.273197D-02  0.173003D-02  0.577564D-02  0.277426D-01
     16 -0.204878D-05  0.803114D-05 -0.321798D-04  0.349421D-03 -0.494462D-02
     17  0.188098D-03 -0.203769D-05  0.816477D-05 -0.886565D-04  0.650596D-02
     18  0.405118D-02  0.182010D-03 -0.729290D-03  0.791894D-02  0.265587D-02
     19 -0.438949D-03  0.192698D-01 -0.156808D-01  0.275444D-02 -0.156113D+00
     20  0.862023D-04  0.110065D-01 -0.898563D-02  0.196850D-02  0.903158D-01
     21  0.361758D-02  0.181173D-02 -0.179033D-02  0.455104D-02 -0.143564D-01
     22 -0.136563D-02  0.205665D-01  0.159280D-01  0.236842D-04  0.250210D-05
     23 -0.102741D-02 -0.114250D-01 -0.884861D-02 -0.472009D-04  0.000000D+00
     24 -0.803121D-01  0.228693D-03  0.242733D-03  0.553063D-02 -0.184646D-03
     25 -0.109204D-03  0.123230D-04  0.651457D-05 -0.255279D-03  0.799718D-05
     26 -0.763516D-04  0.143857D-04  0.760501D-05 -0.298009D-03  0.102778D-04
     27  0.253182D-01 -0.299934D-03 -0.158560D-03  0.621334D-02  0.222855D-03
               11            12            13            14            15 
     11  0.796867D+00
     12  0.825249D-02  0.197224D+00
     13  0.853608D-01  0.233460D-01  0.100696D+01
     14 -0.217926D+00 -0.530590D-02  0.566816D-01  0.810124D+00
     15 -0.847019D-02 -0.111695D+00 -0.303282D-01 -0.165949D-01  0.222329D+00
     16 -0.191148D-01  0.107343D-02 -0.313573D+00 -0.147496D+00  0.706772D-02
     17  0.249083D-01 -0.661148D-04 -0.149587D+00 -0.238984D+00  0.641042D-02
     18  0.497203D-02  0.288323D-01  0.470601D-02  0.361337D-02 -0.902098D-01
     19  0.955220D-01 -0.115624D-01  0.644677D-02  0.251048D-01 -0.241589D-02
     20 -0.263176D+00  0.158998D-01  0.369725D-02  0.138724D-01  0.153200D-02
     21  0.229134D-01 -0.757195D-01  0.769018D-03 -0.270984D-02  0.313953D-01
     22  0.138992D-05 -0.461704D-04  0.356151D-04 -0.234278D-04 -0.498063D-03
     23  0.000000D+00  0.467093D-05 -0.164734D-04  0.108363D-04  0.230373D-03
     24 -0.102571D-03  0.340721D-02 -0.537517D-03  0.353582D-03  0.751696D-02
     25  0.621904D-05  0.135429D-03  0.177721D-01 -0.166922D-03 -0.320306D-03
     26  0.799261D-05  0.174052D-03  0.217185D-01 -0.202176D-03 -0.352407D-03
     27  0.173304D-03  0.377397D-02 -0.196684D-02  0.821397D-03  0.173301D-01
               16            17            18            19            20 
     16  0.300068D+00
     17  0.166868D+00  0.213823D+00
     18 -0.814144D-02 -0.686814D-02  0.499259D-01
     19 -0.452343D-04  0.114770D-04 -0.102515D-02  0.130383D+00
     20 -0.754078D-04  0.191328D-04 -0.170897D-02 -0.104998D+00  0.258227D+00
     21 -0.542580D-03  0.137665D-03 -0.122965D-01  0.120927D-01 -0.187698D-01
     22  0.000000D+00  0.000000D+00  0.000000D+00  0.000000D+00  0.000000D+00
     23  0.000000D+00  0.000000D+00  0.000000D+00  0.000000D+00  0.000000D+00
     24  0.000000D+00  0.000000D+00  0.000000D+00  0.000000D+00  0.000000D+00
     25  0.000000D+00 -0.101070D-04 -0.217681D-03  0.000000D+00  0.000000D+00
     26  0.000000D+00 -0.129894D-04 -0.279761D-03  0.000000D+00  0.000000D+00
     27  0.306775D-05 -0.281649D-03 -0.606606D-02  0.000000D+00  0.000000D+00
               21            22            23            24            25 
     21  0.413125D-01
     22  0.000000D+00  0.146945D+00
     23  0.000000D+00  0.124126D+00  0.301482D+00
     24  0.000000D+00  0.158206D-02  0.113112D-02  0.439358D-01
     25  0.000000D+00 -0.303851D-04  0.140543D-04  0.458585D-03  0.229244D+00
     26  0.000000D+00 -0.354711D-04  0.164068D-04  0.535345D-03 -0.127426D+00
     27  0.000000D+00  0.739555D-03 -0.342073D-03 -0.111617D-01  0.113256D-03
               26            27 
     26  0.177740D+00
     27 -0.525016D-03  0.394674D-01
 Leave Link  716 at Tue Dec 15 16:29:43 2015, MaxMem=    33554432 cpu:         0.0
 (Enter /home/Applications/g09/g09/l103.exe)

 GradGradGradGradGradGradGradGradGradGradGradGradGradGradGradGradGradGrad
 Berny optimization.
 Search for a local minimum.
 Step number   1 out of a maximum of    2
 All quantities printed in internal units (Hartrees-Bohrs-Radians)
 Second derivative matrix not updated -- first step.
 ITU=  0
     Eigenvalues ---    0.01900   0.02765   0.07042   0.07314   0.07979
     Eigenvalues ---    0.08445   0.12933   0.14095   0.15675   0.23253
     Eigenvalues ---    0.26747   0.31542   0.40128   0.43937   0.62189
     Eigenvalues ---    0.82699   1.02669   1.28115   1.33289   1.56147
     Eigenvalues ---    1.68438
 Quadratic step=5.081D-01 exceeds max=3.000D-01 adjusted using Lamda=-7.339D-02.
 Angle between NR and scaled steps=  27.75 degrees.
 Angle between quadratic step and forces=  41.86 degrees.
 Linear search not attempted -- first point.
 TrRot= -0.011873 -0.001441 -0.000846  1.034796  0.001485 -1.034834
 Variable       Old X    -DE/DX   Delta X   Delta X   Delta X     New X
                                 (Linear)    (Quad)   (Total)
    X1        1.82718   0.10656   0.00000   0.10978   0.09790   1.92508
    Y1       -1.29195   0.02261   0.00000  -0.01184  -0.01329  -1.30524
    Z1        0.09134  -0.01061   0.00000  -0.03850  -0.03915   0.05219
    X2       -0.60261  -0.07519   0.00000  -0.05330  -0.06526  -0.66788
    Y2       -2.07003  -0.02616   0.00000  -0.02063  -0.02207  -2.09210
    Z2       -0.04581   0.00595   0.00000   0.02566   0.02798  -0.01784
    X3       -2.22864  -0.02909   0.00000  -0.09509  -0.10701  -2.33565
    Y3        0.02956  -0.00749   0.00000   0.00057  -0.00086   0.02870
    Z3       -0.07072   0.00205   0.00000   0.01393   0.01481  -0.05592
    X4       -0.58897  -0.11307   0.00000  -0.09621  -0.10799  -0.69696
    Y4        2.07091   0.07960   0.00000   0.06638   0.06499   2.13590
    Z4        0.07959  -0.01562   0.00000  -0.05737  -0.06043   0.01916
    X5        1.85050   0.06821   0.00000   0.07063   0.05881   1.90931
    Y5        1.43342  -0.08205   0.00000  -0.04800  -0.04951   1.38391
    Z5       -0.03519   0.01354   0.00000   0.03905   0.03498  -0.00021
    X6        3.38700   0.03998   0.00000   0.14078   0.12897   3.51597
    Y6        2.62342   0.02595   0.00000   0.01133   0.00969   2.63311
    Z6       -0.08967  -0.00183   0.00000   0.04000   0.03312  -0.05655
    X7       -1.62025   0.00865   0.00000  -0.02923  -0.04102  -1.66128
    Y7        3.90423  -0.01235   0.00000   0.03994   0.03844   3.94268
    Z7       -0.08923   0.00678   0.00000   0.00251  -0.00212  -0.09136
    X8       -1.58578  -0.00347   0.00000  -0.03346  -0.04552  -1.63130
    Y8       -3.84009  -0.01131   0.00000  -0.05226  -0.05370  -3.89379
    Z8       -0.05671  -0.00215   0.00000   0.00496   0.01031  -0.04640
    X9        3.44048  -0.00256   0.00000   0.09303   0.08112   3.52160
    Y9       -2.61183   0.01120   0.00000   0.02778   0.02630  -2.58553
    Z9        0.09432   0.00189   0.00000  -0.01926  -0.01949   0.07483
         Item               Value     Threshold  Converged?
 Maximum Force            0.113069     0.000450     NO 
 RMS     Force            0.044314     0.000300     NO 
 Maximum Displacement     0.128966     0.001800     NO 
 RMS     Displacement     0.057370     0.001200     NO 
 Predicted change in Energy=-2.907599D-02
 GradGradGradGradGradGradGradGradGradGradGradGradGradGradGradGradGradGrad

 Leave Link  103 at Tue Dec 15 16:29:43 2015, MaxMem=    33554432 cpu:         0.0
 (Enter /home/Applications/g09/g09/l9999.exe)
 1\1\GINC-DUSTIN-DESKTOP\Force\RAM1-FC\STO-3G\C4H4O1\DUSTIN\15-Dec-2015
 \0\\#P AM1(Input,print) CIS(Singlets,NStates=15) pop(full) force\\AM1-
 Reparam Input\\0,1\C,0.966903,-0.683672,0.048334\C,-0.31889,-1.095414,
 -0.024242\O,-1.179346,0.015643,-0.037425\C,-0.311672,1.095879,0.042116
 \C,0.979242,0.758535,-0.018622\H,1.792324,1.388256,-0.047449\H,-0.8574
 01,2.066031,-0.047219\H,-0.839161,-2.032088,-0.030008\H,1.820622,-1.38
 2122,0.04991\\Version=ES64L-G09RevD.01\State=1-A\HF=0.0163626\RMSD=7.1
 98e-09\RMSF=4.431e-02\Dipole=0.2963598,-0.0164842,-0.0574256\PG=C01 [X
 (C4H4O1)]\\@


 I DO NOT DEFINE TIME, SPACE, PLACE, AND MOTION, AS BEING WELL KNOWN TO ALL.
                                            -- NEWTON (1642-1726), PRINCIPIA
 Job cpu time:       0 days  0 hours  0 minutes  0.6 seconds.
 File lengths (MBytes):  RWF=      7 Int=      0 D2E=      0 Chk=      2 Scr=      1
 Normal termination of Gaussian 09 at Tue Dec 15 16:29:43 2015.
