 Entering Gaussian System, Link 0=g09
 Input=FuranAM1_42.com
 Output=FuranAM1_42.log
 Initial command:
 /home/Applications/g09/g09/l1.exe "/home/Applications/g09/scratch/Gau-5856.inp" -scrdir="/home/Applications/g09/scratch/"
 Entering Link 1 = /home/Applications/g09/g09/l1.exe PID=      5858.
  
 Copyright (c) 1988,1990,1992,1993,1995,1998,2003,2009,2013,
            Gaussian, Inc.  All Rights Reserved.
  
 This is part of the Gaussian(R) 09 program.  It is based on
 the Gaussian(R) 03 system (copyright 2003, Gaussian, Inc.),
 the Gaussian(R) 98 system (copyright 1998, Gaussian, Inc.),
 the Gaussian(R) 94 system (copyright 1995, Gaussian, Inc.),
 the Gaussian 92(TM) system (copyright 1992, Gaussian, Inc.),
 the Gaussian 90(TM) system (copyright 1990, Gaussian, Inc.),
 the Gaussian 88(TM) system (copyright 1988, Gaussian, Inc.),
 the Gaussian 86(TM) system (copyright 1986, Carnegie Mellon
 University), and the Gaussian 82(TM) system (copyright 1983,
 Carnegie Mellon University). Gaussian is a federally registered
 trademark of Gaussian, Inc.
  
 This software contains proprietary and confidential information,
 including trade secrets, belonging to Gaussian, Inc.
  
 This software is provided under written license and may be
 used, copied, transmitted, or stored only in accord with that
 written license.
  
 The following legend is applicable only to US Government
 contracts under FAR:
  
                    RESTRICTED RIGHTS LEGEND
  
 Use, reproduction and disclosure by the US Government is
 subject to restrictions as set forth in subparagraphs (a)
 and (c) of the Commercial Computer Software - Restricted
 Rights clause in FAR 52.227-19.
  
 Gaussian, Inc.
 340 Quinnipiac St., Bldg. 40, Wallingford CT 06492
  
  
 ---------------------------------------------------------------
 Warning -- This program may not be used in any manner that
 competes with the business of Gaussian, Inc. or will provide
 assistance to any competitor of Gaussian, Inc.  The licensee
 of this program is prohibited from giving any competitor of
 Gaussian, Inc. access to this program.  By using this program,
 the user acknowledges that Gaussian, Inc. is engaged in the
 business of creating and licensing software in the field of
 computational chemistry and represents and warrants to the
 licensee that it is not a competitor of Gaussian, Inc. and that
 it will not use this program in any manner prohibited above.
 ---------------------------------------------------------------
  

 Cite this work as:
 Gaussian 09, Revision D.01,
 M. J. Frisch, G. W. Trucks, H. B. Schlegel, G. E. Scuseria, 
 M. A. Robb, J. R. Cheeseman, G. Scalmani, V. Barone, B. Mennucci, 
 G. A. Petersson, H. Nakatsuji, M. Caricato, X. Li, H. P. Hratchian, 
 A. F. Izmaylov, J. Bloino, G. Zheng, J. L. Sonnenberg, M. Hada, 
 M. Ehara, K. Toyota, R. Fukuda, J. Hasegawa, M. Ishida, T. Nakajima, 
 Y. Honda, O. Kitao, H. Nakai, T. Vreven, J. A. Montgomery, Jr., 
 J. E. Peralta, F. Ogliaro, M. Bearpark, J. J. Heyd, E. Brothers, 
 K. N. Kudin, V. N. Staroverov, T. Keith, R. Kobayashi, J. Normand, 
 K. Raghavachari, A. Rendell, J. C. Burant, S. S. Iyengar, J. Tomasi, 
 M. Cossi, N. Rega, J. M. Millam, M. Klene, J. E. Knox, J. B. Cross, 
 V. Bakken, C. Adamo, J. Jaramillo, R. Gomperts, R. E. Stratmann, 
 O. Yazyev, A. J. Austin, R. Cammi, C. Pomelli, J. W. Ochterski, 
 R. L. Martin, K. Morokuma, V. G. Zakrzewski, G. A. Voth, 
 P. Salvador, J. J. Dannenberg, S. Dapprich, A. D. Daniels, 
 O. Farkas, J. B. Foresman, J. V. Ortiz, J. Cioslowski, 
 and D. J. Fox, Gaussian, Inc., Wallingford CT, 2013.
 
 ******************************************
 Gaussian 09:  ES64L-G09RevD.01 24-Apr-2013
                15-Dec-2015 
 ******************************************
 ------------------------------------------------------------
 #P AM1(Input,print) CIS(Singlets,NStates=15) pop(full) force
 ------------------------------------------------------------
 1/10=7,30=1,38=1/1,3;
 2/12=2,17=6,18=5,40=1/2;
 3/5=2,16=1,25=1,41=700000,71=1,135=100,136=1/1,2,8,3;
 4/35=1/1;
 5/5=2,35=1,38=5/2;
 8/6=1,10=1,108=15/1;
 9/15=2,41=15,42=1,48=1,49=10/14;
 10/5=4/2;
 6/7=3,18=1/1;
 7/12=6,13=5,29=1/1,2,3,16;
 1/10=7,30=1/3;
 99//99;
 Leave Link    1 at Tue Dec 15 16:18:50 2015, MaxMem=           0 cpu:         0.0
 (Enter /home/Applications/g09/g09/l101.exe)
 -----------------
 AM1-Reparam Input
 -----------------
 Symbolic Z-matrix:
 Charge =  0 Multiplicity = 1
 6                     0.97176  -0.66983  -0.02111 
 6                    -0.3504   -1.13543  -0.00935 
 8                    -1.14054  -0.00943   0.01987 
 6                    -0.32043   1.08328   0.03345 
 6                     0.98974   0.67399   0.03805 
 1                     1.77989   1.40695   0.0225 
 1                    -0.84443   2.05586   0.03449 
 1                    -0.86155  -2.09028   0.04929 
 1                     1.8113   -1.35409   0.03054 
 
 NAtoms=      9 NQM=        9 NQMF=       0 NMMI=      0 NMMIF=      0
                NMic=       0 NMicF=      0.
                    Isotopes and Nuclear Properties:
 (Nuclear quadrupole moments (NQMom) in fm**2, nuclear magnetic moments (NMagM)
  in nuclear magnetons)

  Atom         1           2           3           4           5           6           7           8           9
 IAtWgt=          12          12          16          12          12           1           1           1           1
 AtmWgt=  12.0000000  12.0000000  15.9949146  12.0000000  12.0000000   1.0078250   1.0078250   1.0078250   1.0078250
 NucSpn=           0           0           0           0           0           1           1           1           1
 AtZEff=   0.0000000   0.0000000   0.0000000   0.0000000   0.0000000   0.0000000   0.0000000   0.0000000   0.0000000
 NQMom=    0.0000000   0.0000000   0.0000000   0.0000000   0.0000000   0.0000000   0.0000000   0.0000000   0.0000000
 NMagM=    0.0000000   0.0000000   0.0000000   0.0000000   0.0000000   2.7928460   2.7928460   2.7928460   2.7928460
 AtZNuc=   6.0000000   6.0000000   8.0000000   6.0000000   6.0000000   1.0000000   1.0000000   1.0000000   1.0000000
 Leave Link  101 at Tue Dec 15 16:18:50 2015, MaxMem=    33554432 cpu:         0.0
 (Enter /home/Applications/g09/g09/l103.exe)

 GradGradGradGradGradGradGradGradGradGradGradGradGradGradGradGradGradGrad
 Berny optimization.
 Initialization pass.
 Trust Radius=3.00D-01 FncErr=1.00D-07 GrdErr=1.00D-07
 Number of steps in this run=      2 maximum allowed number of steps=      2.
 GradGradGradGradGradGradGradGradGradGradGradGradGradGradGradGradGradGrad

 Leave Link  103 at Tue Dec 15 16:18:50 2015, MaxMem=    33554432 cpu:         0.0
 (Enter /home/Applications/g09/g09/l202.exe)
                          Input orientation:                          
 ---------------------------------------------------------------------
 Center     Atomic      Atomic             Coordinates (Angstroms)
 Number     Number       Type             X           Y           Z
 ---------------------------------------------------------------------
      1          6           0        0.971760   -0.669831   -0.021108
      2          6           0       -0.350397   -1.135435   -0.009354
      3          8           0       -1.140541   -0.009427    0.019871
      4          6           0       -0.320431    1.083284    0.033453
      5          6           0        0.989737    0.673987    0.038045
      6          1           0        1.779887    1.406950    0.022498
      7          1           0       -0.844425    2.055855    0.034487
      8          1           0       -0.861553   -2.090280    0.049289
      9          1           0        1.811304   -1.354090    0.030541
 ---------------------------------------------------------------------
                    Distance matrix (angstroms):
                    1          2          3          4          5
     1  C    0.000000
     2  C    1.401793   0.000000
     3  O    2.213510   1.375891   0.000000
     4  C    2.178565   2.219334   1.366302   0.000000
     5  C    1.345239   2.252158   2.237291   1.372620   0.000000
     6  H    2.228899   3.317054   3.245771   2.125139   1.077875
     7  H    3.275818   3.229600   2.086453   1.104747   2.296459
     8  H    2.320273   1.084642   2.099678   3.219406   3.326947
     9  H    1.084303   2.173098   3.243705   3.238070   2.188178
                    6          7          8          9
     6  H    0.000000
     7  H    2.703375   0.000000
     8  H    4.382755   4.146197   0.000000
     9  H    2.761230   4.322110   2.772452   0.000000
 Stoichiometry    C4H4O
 Framework group  C1[X(C4H4O)]
 Deg. of freedom    21
 Full point group                 C1      NOp   1
 Largest Abelian subgroup         C1      NOp   1
 Largest concise Abelian subgroup C1      NOp   1
                         Standard orientation:                         
 ---------------------------------------------------------------------
 Center     Atomic      Atomic             Coordinates (Angstroms)
 Number     Number       Type             X           Y           Z
 ---------------------------------------------------------------------
      1          6           0        0.285540    1.128025   -0.022795
      2          6           0        1.182488    0.050844   -0.009044
      3          8           0        0.402109   -1.082291    0.000520
      4          6           0       -0.907967   -0.694371    0.000924
      5          6           0       -0.980951    0.676219    0.016464
      6          1           0       -1.943050    1.161635   -0.007027
      7          1           0       -1.636924   -1.524341   -0.014432
      8          1           0        2.254782   -0.096142    0.061871
      9          1           0        0.633659    2.152871    0.042130
 ---------------------------------------------------------------------
 Rotational constants (GHZ):      9.6467135      9.1713654      4.7028597
 Leave Link  202 at Tue Dec 15 16:18:50 2015, MaxMem=    33554432 cpu:         0.0
 (Enter /home/Applications/g09/g09/l301.exe)

 Semi-emprical parameters in input format:
 Method=8 CoreType=1 PeptideFC=0.0114510000 RIJScale=0.5291770000
 ****
 H       
 PQN=1 NValence=1 F0ss=0.4721550000 ZetaOverlap=1.1880780000 U=-0.4188110000
 Beta=-0.2268830000 CoreKO=1.0589200000 KON=0,0,0,1.0589200000 KON=1,0,1,1.0589200000
 KON=0,1,1,1.0589200000 KON=2,1,1,1.0589200000 EISol=-0.4188110042 EHeat=0.0830298228
 Alpha=1.5252600000
 GCore=0.0085280000,1.4001430000,2.2676710000
 GCore=0.0003530000,1.4001430000,3.4015070000
 GCore=-0.0012730000,0.5600570000,3.9684250000
 ****
 C       
 PQN=2,2 NValence=4 F0ss=0.4494440000 F0sp=0.4215150000 F0pp=0.3768030000 F2pp=0.1898720000
 G1sp=0.2679030000
 ZetaOverlap=1.8086650000,1.6851160000
 U=-1.9120180000,-1.4557970000
 Beta=-0.5775440000,-0.2836780000 DDN=0,1,0.8236740000 DDN=1,1,0.7268010000
 CoreKO=1.1124280000 KON=0,0,0,1.1124280000 KON=1,0,1,0.8219700000 KON=0,1,1,1.1124280000
 KON=2,1,1,0.7783930000 EISol=-4.4398989268 EHeat=0.2723305520 Alpha=1.4014060000
 DipHyp=1.6472532266
 GCore=0.0007890000,1.4001430000,3.0235620000
 GCore=0.0031890000,1.4001430000,3.4959930000
 GCore=-0.0013930000,1.4001430000,3.8739390000
 GCore=-0.0000880000,1.4001430000,5.0077740000
 ****
 O       
 PQN=2,2 NValence=6 F0ss=0.5666750000 F0sp=0.5321300000 F0pp=0.4958710000 F2pp=0.2358080000
 G1sp=0.4343770000
 ZetaOverlap=3.1080320000,2.5240390000
 U=-3.5951870000,-2.8760900000
 Beta=-1.0757550000,-1.0757550000 DDN=0,1,0.4988900000 DDN=1,1,0.4852320000
 CoreKO=0.8822960000 KON=0,0,0,0.8822960000 KON=1,0,1,0.5019540000 KON=0,1,1,0.8822960000
 KON=2,1,1,0.5515580000 EISol=-11.6164441184 EHeat=0.0949133088 Alpha=2.3576810000
 DipHyp=0.9977225968
 GCore=0.0195120000,1.4001430000,1.6023330000
 GCore=0.0056550000,1.9602000000,2.7307880000
 ****
 
 Standard basis: VSTO-6G (5D, 7F)
 Ernie: Thresh=  0.10000D-02 Tol=  0.10000D-05 Strict=F.
  NNHCO=     0 NNPyr=     0 NCTC=     0               EPep=         0.000000000
    EC=        68.737301808  ECS=         1.813993740   EG=         0.351665105
   EHC=         0.000000000  EAt=       -31.051283842  AtH=         1.516354808
 EPDDG=         0.000000000  ECC=        70.902960653 EAtT=        32.567638650
 There are    24 symmetry adapted cartesian basis functions of A   symmetry.
 There are    24 symmetry adapted basis functions of A   symmetry.
    24 basis functions,   144 primitive gaussians,    24 cartesian basis functions
    13 alpha electrons       13 beta electrons
       nuclear repulsion energy       103.4705993037 Hartrees.
 IExCor=    0 DFT=F Ex=HF Corr=None ExCW=0 ScaHFX=  1.000000
 ScaDFX=  1.000000  1.000000  1.000000  1.000000 ScalE2=  1.000000  1.000000
 IRadAn=      0 IRanWt=     -1 IRanGd=            0 ICorTp=0 IEmpDi=  4
 Integral buffers will be    131072 words long.
 Regular integral format.
 Two-electron integral symmetry is turned off.
 Leave Link  301 at Tue Dec 15 16:18:50 2015, MaxMem=    33554432 cpu:         0.0
 (Enter /home/Applications/g09/g09/l302.exe)
 Do NDO integrals.
 NPDir=0 NMtPBC=     1 NCelOv=     1 NCel=       1 NClECP=     1 NCelD=      1
         NCelK=      1 NCelE2=     1 NClLst=     1 CellRange=     0.0.
 One-electron integrals computed using PRISM.
 NBasis=    24 RedAO= F EigKep=  0.00D+00  NBF=    24
 NBsUse=    24 1.00D-04 EigRej=  0.00D+00 NBFU=    24
 Leave Link  302 at Tue Dec 15 16:18:50 2015, MaxMem=    33554432 cpu:         0.0
 (Enter /home/Applications/g09/g09/l308.exe)
 Leave Link  308 at Tue Dec 15 16:18:50 2015, MaxMem=    33554432 cpu:         0.0
 (Enter /home/Applications/g09/g09/l303.exe)
 DipDrv:  MaxL=1.
 Leave Link  303 at Tue Dec 15 16:18:50 2015, MaxMem=    33554432 cpu:         0.0
 (Enter /home/Applications/g09/g09/l401.exe)
 Simple Huckel Guess.
 JPrj=0 DoOrth=F DoCkMO=F.
 Leave Link  401 at Tue Dec 15 16:18:50 2015, MaxMem=    33554432 cpu:         0.0
 (Enter /home/Applications/g09/g09/l502.exe)
 Closed shell SCF:
 Using DIIS extrapolation, IDIIS=  1040.
 Overlap will be assumed to be unity.
 Two-electron integral symmetry not used.
 Keep J ints in memory in canonical form, NReq=888082.
 IVT=       79475 IEndB=       79475 NGot=    33554432 MDV=    33473473
 LenX=    33473473 LenY=    33472456
 Requested convergence on RMS density matrix=1.00D-08 within 128 cycles.
 Requested convergence on MAX density matrix=1.00D-06.
 Requested convergence on             energy=1.00D-06.
 No special actions if energy rises.
 FoFCou: FMM=F IPFlag=           0 FMFlag=           0 FMFlg1=           0
         NFxFlg=           0 DoJE=F BraDBF=F KetDBF=F FulRan=T
         wScrn=  0.000000 ICntrl=     600 IOpCl=  2 I1Cent=           0 NGrid=           0
         NMat0=    1 NMatS0=     54 NMatT0=    0 NMatD0=    1 NMtDS0=    0 NMtDT0=    0
 Symmetry not used in FoFCou.

 Cycle   1  Pass 1  IDiag  1:
 E= 0.333502493911183    
 DIIS: error= 6.67D-02 at cycle   1 NSaved=   1.
 NSaved= 1 IEnMin= 1 EnMin= 0.333502493911183     IErMin= 1 ErrMin= 6.67D-02
 ErrMax= 6.67D-02  0.00D+00 EMaxC= 1.00D-01 BMatC= 1.12D-01 BMatP= 1.12D-01
 IDIUse=3 WtCom= 3.33D-01 WtEn= 6.67D-01
 Coeff-Com:  0.100D+01
 Coeff-En:   0.100D+01
 Coeff:      0.100D+01
 GapD=    2.000 DampG=2.000 DampE=0.500 DampFc=1.0000 IDamp=-1.
 RMSDP=1.95D-02 MaxDP=1.62D-01              OVMax= 0.00D+00

 Cycle   2  Pass 1  IDiag  1:
 E= 0.532098218608610E-01 Delta-E=       -0.280292672050 Rises=F Damp=F
 DIIS: error= 1.90D-02 at cycle   2 NSaved=   2.
 NSaved= 2 IEnMin= 2 EnMin= 0.532098218608610E-01 IErMin= 2 ErrMin= 1.90D-02
 ErrMax= 1.90D-02  0.00D+00 EMaxC= 1.00D-01 BMatC= 9.58D-03 BMatP= 1.12D-01
 IDIUse=3 WtCom= 8.10D-01 WtEn= 1.90D-01
 Coeff-Com: -0.358D+00 0.136D+01
 Coeff-En:   0.000D+00 0.100D+01
 Coeff:     -0.290D+00 0.129D+01
 RMSDP=8.21D-03 MaxDP=6.88D-02 DE=-2.80D-01 OVMax= 0.00D+00

 Cycle   3  Pass 1  IDiag  3:
 E= 0.226205567230693E-01 Delta-E=       -0.030589265138 Rises=F Damp=F
 DIIS: error= 4.17D-03 at cycle   3 NSaved=   3.
 NSaved= 3 IEnMin= 3 EnMin= 0.226205567230693E-01 IErMin= 3 ErrMin= 4.17D-03
 ErrMax= 4.17D-03  0.00D+00 EMaxC= 1.00D-01 BMatC= 3.72D-04 BMatP= 9.58D-03
 IDIUse=3 WtCom= 9.58D-01 WtEn= 4.17D-02
 Coeff-Com:  0.136D+00-0.605D+00 0.147D+01
 Coeff-En:   0.000D+00 0.000D+00 0.100D+01
 Coeff:      0.130D+00-0.580D+00 0.145D+01
 Gap=     0.359 Goal=   None    Shift=    0.000
 RMSDP=2.54D-03 MaxDP=2.71D-02 DE=-3.06D-02 OVMax= 3.37D-02

 Cycle   4  Pass 1  IDiag  3:
 E= 0.205816162460337E-01 Delta-E=       -0.002038940477 Rises=F Damp=F
 DIIS: error= 1.20D-03 at cycle   4 NSaved=   4.
 NSaved= 4 IEnMin= 4 EnMin= 0.205816162460337E-01 IErMin= 4 ErrMin= 1.20D-03
 ErrMax= 1.20D-03  0.00D+00 EMaxC= 1.00D-01 BMatC= 2.72D-05 BMatP= 3.72D-04
 IDIUse=3 WtCom= 9.88D-01 WtEn= 1.20D-02
 Coeff-Com:  0.153D-01-0.528D-01-0.192D+00 0.123D+01
 Coeff-En:   0.000D+00 0.000D+00 0.000D+00 0.100D+01
 Coeff:      0.151D-01-0.522D-01-0.190D+00 0.123D+01
 Gap=     0.359 Goal=   None    Shift=    0.000
 RMSDP=8.15D-04 MaxDP=9.34D-03 DE=-2.04D-03 OVMax= 1.08D-02

 Cycle   5  Pass 1  IDiag  3:
 E= 0.204142223691974E-01 Delta-E=       -0.000167393877 Rises=F Damp=F
 DIIS: error= 2.10D-04 at cycle   5 NSaved=   5.
 NSaved= 5 IEnMin= 5 EnMin= 0.204142223691974E-01 IErMin= 5 ErrMin= 2.10D-04
 ErrMax= 2.10D-04  0.00D+00 EMaxC= 1.00D-01 BMatC= 1.70D-06 BMatP= 2.72D-05
 IDIUse=3 WtCom= 9.98D-01 WtEn= 2.10D-03
 Coeff-Com: -0.741D-02 0.296D-01 0.320D-01-0.502D+00 0.145D+01
 Coeff-En:   0.000D+00 0.000D+00 0.000D+00 0.000D+00 0.100D+01
 Coeff:     -0.740D-02 0.295D-01 0.320D-01-0.501D+00 0.145D+01
 Gap=     0.359 Goal=   None    Shift=    0.000
 RMSDP=2.30D-04 MaxDP=1.83D-03 DE=-1.67D-04 OVMax= 2.26D-03

 Cycle   6  Pass 1  IDiag  3:
 E= 0.204022652787188E-01 Delta-E=       -0.000011957090 Rises=F Damp=F
 DIIS: error= 8.37D-05 at cycle   6 NSaved=   6.
 NSaved= 6 IEnMin= 6 EnMin= 0.204022652787188E-01 IErMin= 6 ErrMin= 8.37D-05
 ErrMax= 8.37D-05  0.00D+00 EMaxC= 1.00D-01 BMatC= 1.48D-07 BMatP= 1.70D-06
 IDIUse=1 WtCom= 1.00D+00 WtEn= 0.00D+00
 Coeff-Com:  0.282D-02-0.113D-01-0.155D-03 0.150D+00-0.653D+00 0.151D+01
 Coeff:      0.282D-02-0.113D-01-0.155D-03 0.150D+00-0.653D+00 0.151D+01
 Gap=     0.359 Goal=   None    Shift=    0.000
 RMSDP=8.14D-05 MaxDP=6.27D-04 DE=-1.20D-05 OVMax= 1.06D-03

 Cycle   7  Pass 1  IDiag  3:
 E= 0.204009540636747E-01 Delta-E=       -0.000001311215 Rises=F Damp=F
 DIIS: error= 3.49D-05 at cycle   7 NSaved=   7.
 NSaved= 7 IEnMin= 7 EnMin= 0.204009540636747E-01 IErMin= 7 ErrMin= 3.49D-05
 ErrMax= 3.49D-05  0.00D+00 EMaxC= 1.00D-01 BMatC= 1.53D-08 BMatP= 1.48D-07
 IDIUse=1 WtCom= 1.00D+00 WtEn= 0.00D+00
 Coeff-Com: -0.556D-03 0.179D-02 0.127D-02-0.395D-01 0.197D+00-0.745D+00
 Coeff-Com:  0.158D+01
 Coeff:     -0.556D-03 0.179D-02 0.127D-02-0.395D-01 0.197D+00-0.745D+00
 Coeff:      0.158D+01
 Gap=     0.359 Goal=   None    Shift=    0.000
 RMSDP=3.29D-05 MaxDP=2.93D-04 DE=-1.31D-06 OVMax= 4.03D-04

 Cycle   8  Pass 1  IDiag  3:
 E= 0.204007973251095E-01 Delta-E=       -0.000000156739 Rises=F Damp=F
 DIIS: error= 8.56D-06 at cycle   8 NSaved=   8.
 NSaved= 8 IEnMin= 8 EnMin= 0.204007973251095E-01 IErMin= 8 ErrMin= 8.56D-06
 ErrMax= 8.56D-06  0.00D+00 EMaxC= 1.00D-01 BMatC= 8.69D-10 BMatP= 1.53D-08
 IDIUse=1 WtCom= 1.00D+00 WtEn= 0.00D+00
 Coeff-Com:  0.992D-04-0.814D-04-0.172D-02 0.154D-01-0.687D-01 0.288D+00
 Coeff-Com: -0.811D+00 0.158D+01
 Coeff:      0.992D-04-0.814D-04-0.172D-02 0.154D-01-0.687D-01 0.288D+00
 Coeff:     -0.811D+00 0.158D+01
 Gap=     0.359 Goal=   None    Shift=    0.000
 RMSDP=8.06D-06 MaxDP=7.59D-05 DE=-1.57D-07 OVMax= 1.00D-04

 Cycle   9  Pass 1  IDiag  3:
 E= 0.204007889498854E-01 Delta-E=       -0.000000008375 Rises=F Damp=F
 DIIS: error= 1.26D-06 at cycle   9 NSaved=   9.
 NSaved= 9 IEnMin= 9 EnMin= 0.204007889498854E-01 IErMin= 9 ErrMin= 1.26D-06
 ErrMax= 1.26D-06  0.00D+00 EMaxC= 1.00D-01 BMatC= 3.46D-11 BMatP= 8.69D-10
 IDIUse=1 WtCom= 1.00D+00 WtEn= 0.00D+00
 Coeff-Com:  0.138D-04-0.159D-03 0.546D-03-0.250D-02 0.109D-01-0.583D-01
 Coeff-Com:  0.205D+00-0.564D+00 0.141D+01
 Coeff:      0.138D-04-0.159D-03 0.546D-03-0.250D-02 0.109D-01-0.583D-01
 Coeff:      0.205D+00-0.564D+00 0.141D+01
 Gap=     0.359 Goal=   None    Shift=    0.000
 RMSDP=1.20D-06 MaxDP=1.02D-05 DE=-8.38D-09 OVMax= 1.65D-05

 Cycle  10  Pass 1  IDiag  3:
 E= 0.204007887098214E-01 Delta-E=       -0.000000000240 Rises=F Damp=F
 DIIS: error= 2.11D-07 at cycle  10 NSaved=  10.
 NSaved=10 IEnMin=10 EnMin= 0.204007887098214E-01 IErMin=10 ErrMin= 2.11D-07
 ErrMax= 2.11D-07  0.00D+00 EMaxC= 1.00D-01 BMatC= 1.86D-12 BMatP= 3.46D-11
 IDIUse=1 WtCom= 1.00D+00 WtEn= 0.00D+00
 Coeff-Com: -0.119D-04 0.879D-04-0.227D-03 0.718D-03-0.279D-02 0.172D-01
 Coeff-Com: -0.671D-01 0.206D+00-0.654D+00 0.150D+01
 Coeff:     -0.119D-04 0.879D-04-0.227D-03 0.718D-03-0.279D-02 0.172D-01
 Coeff:     -0.671D-01 0.206D+00-0.654D+00 0.150D+01
 Gap=     0.359 Goal=   None    Shift=    0.000
 RMSDP=2.32D-07 MaxDP=1.42D-06 DE=-2.40D-10 OVMax= 2.51D-06

 Cycle  11  Pass 1  IDiag  3:
 E= 0.204007886986375E-01 Delta-E=       -0.000000000011 Rises=F Damp=F
 DIIS: error= 4.06D-08 at cycle  11 NSaved=  11.
 NSaved=11 IEnMin=11 EnMin= 0.204007886986375E-01 IErMin=11 ErrMin= 4.06D-08
 ErrMax= 4.06D-08  0.00D+00 EMaxC= 1.00D-01 BMatC= 8.06D-14 BMatP= 1.86D-12
 IDIUse=1 WtCom= 1.00D+00 WtEn= 0.00D+00
 Coeff-Com:  0.384D-05-0.301D-04 0.781D-04-0.264D-03 0.103D-02-0.628D-02
 Coeff-Com:  0.241D-01-0.730D-01 0.235D+00-0.644D+00 0.146D+01
 Coeff:      0.384D-05-0.301D-04 0.781D-04-0.264D-03 0.103D-02-0.628D-02
 Coeff:      0.241D-01-0.730D-01 0.235D+00-0.644D+00 0.146D+01
 Gap=     0.359 Goal=   None    Shift=    0.000
 RMSDP=5.13D-08 MaxDP=2.93D-07 DE=-1.12D-11 OVMax= 4.47D-07

 Cycle  12  Pass 1  IDiag  3:
 E= 0.204007886978843E-01 Delta-E=       -0.000000000001 Rises=F Damp=F
 DIIS: error= 7.49D-09 at cycle  12 NSaved=  12.
 NSaved=12 IEnMin=12 EnMin= 0.204007886978843E-01 IErMin=12 ErrMin= 7.49D-09
 ErrMax= 7.49D-09  0.00D+00 EMaxC= 1.00D-01 BMatC= 5.47D-15 BMatP= 8.06D-14
 IDIUse=1 WtCom= 1.00D+00 WtEn= 0.00D+00
 Coeff-Com: -0.863D-06 0.683D-05-0.165D-04 0.559D-04-0.210D-03 0.134D-02
 Coeff-Com: -0.521D-02 0.161D-01-0.534D-01 0.164D+00-0.585D+00 0.146D+01
 Coeff:     -0.863D-06 0.683D-05-0.165D-04 0.559D-04-0.210D-03 0.134D-02
 Coeff:     -0.521D-02 0.161D-01-0.534D-01 0.164D+00-0.585D+00 0.146D+01
 Gap=     0.359 Goal=   None    Shift=    0.000
 RMSDP=1.50D-08 MaxDP=6.99D-08 DE=-7.53D-13 OVMax= 1.83D-07

 Cycle  13  Pass 1  IDiag  3:
 E= 0.204007886980122E-01 Delta-E=        0.000000000000 Rises=F Damp=F
 DIIS: error= 2.59D-09 at cycle  13 NSaved=  13.
 NSaved=13 IEnMin=12 EnMin= 0.204007886978843E-01 IErMin=13 ErrMin= 2.59D-09
 ErrMax= 2.59D-09  0.00D+00 EMaxC= 1.00D-01 BMatC= 3.93D-16 BMatP= 5.47D-15
 IDIUse=1 WtCom= 1.00D+00 WtEn= 0.00D+00
 Coeff-Com:  0.180D-06-0.145D-05 0.318D-05-0.113D-04 0.383D-04-0.260D-03
 Coeff-Com:  0.100D-02-0.310D-02 0.108D-01-0.381D-01 0.190D+00-0.699D+00
 Coeff-Com:  0.154D+01
 Coeff:      0.180D-06-0.145D-05 0.318D-05-0.113D-04 0.383D-04-0.260D-03
 Coeff:      0.100D-02-0.310D-02 0.108D-01-0.381D-01 0.190D+00-0.699D+00
 Coeff:      0.154D+01
 Gap=     0.359 Goal=   None    Shift=    0.000
 RMSDP=4.29D-09 MaxDP=2.20D-08 DE= 1.28D-13 OVMax= 5.71D-08

 Cycle  14  Pass 2  IDiag  1:
 SCF Done:  E(RAM1) =  0.204007886980E-01 A.U. after   14 cycles
            NFock= 13  Conv=0.43D-08     -V/T= 1.0012
 KE=-1.654257851900D+01 PE=-1.711084814443D+02 EE= 8.420086144836D+01
 Leave Link  502 at Tue Dec 15 16:18:50 2015, MaxMem=    33554432 cpu:         0.0
 (Enter /home/Applications/g09/g09/l801.exe)
 Range of M.O.s used for correlation:     1    24
 NBasis=    24 NAE=    13 NBE=    13 NFC=     0 NFV=     0
 NROrb=     24 NOA=    13 NOB=    13 NVA=    11 NVB=    11
 Leave Link  801 at Tue Dec 15 16:18:50 2015, MaxMem=    33554432 cpu:         0.0
 (Enter /home/Applications/g09/g09/l914.exe)
 RHF ground state
 MDV=    33554432 DFT=F DoStab=F Mixed=F DoRPA=F DoScal=F NonHer=F
 Making orbital integer symmetry assigments:
 Orbital symmetries:
       Occupied  (A) (A) (A) (A) (A) (A) (A) (A) (A) (A) (A) (A)
                 (A)
       Virtual   (A) (A) (A) (A) (A) (A) (A) (A) (A) (A) (A)
    60 initial guesses have been made.
 Convergence on wavefunction:    0.000001000000000
 Davidson Disk Diagonalization:  ConvIn= 1.00D-06 SkipCon=T Conv= 1.00D-06.
 Max sub-space:   240 roots to seek:    60 dimension of matrix:          286
 Iteration     1 Dimension    60 NMult     0 NNew     60
 CISAX will form    60 AO SS matrices at one time.
 NMat=    60 NSing=    60 JSym2X= 0.
 FoFJK:  IHMeth= 8 ICntrl=       0 DoSepK=F KAlg= 0 I1Cent=   0 FoldK=F
 IRaf=         1 NMat= 120 IRICut=       1 DoRegI=T DoRafI=F ISym2E= 0.
 FoFCou: FMM=F IPFlag=           0 FMFlag=      100000 FMFlg1=           0
         NFxFlg=           0 DoJE=F BraDBF=F KetDBF=F FulRan=T
         wScrn=  0.000000 ICntrl=       0 IOpCl=  0 I1Cent=           0 NGrid=           0
         NMat0=  120 NMatS0=     60 NMatT0=    0 NMatD0=  120 NMtDS0=    0 NMtDT0=    0
 Symmetry not used in FoFCou.
 New state      2 was old state      4
 New state      3 was old state      2
 New state      4 was old state      6
 New state      5 was old state      7
 New state      6 was old state      9
 New state      7 was old state      3
 New state      9 was old state      5
 New state     10 was old state     13
 New state     11 was old state     10
 New state     12 was old state     14
 New state     13 was old state     17
 New state     14 was old state     11
 New state     15 was old state     12
 Excitation Energies [eV] at current iteration:
 Root      1 :     4.303391169232591
 Root      2 :     4.640108131265235
 Root      3 :     4.932826556306277
 Root      4 :     5.737063404657570
 Root      5 :     5.981878482027239
 Root      6 :     6.288387427996261
 Root      7 :     6.353717102047971
 Root      8 :     6.547024545912287
 Root      9 :     6.781406286984956
 Root     10 :     6.905243174248276
 Root     11 :     7.233034317439573
 Root     12 :     7.260192522264909
 Root     13 :     7.420989683994166
 Root     14 :     7.630679442885645
 Root     15 :     7.693154723315358
 Root     16 :     7.797259171471400
 Root     17 :     8.051231109385627
 Root     18 :     8.137418951931039
 Root     19 :     8.279183365202980
 Root     20 :     8.368057152633364
 Root     21 :     8.541085589431358
 Root     22 :     8.566843810734541
 Root     23 :     8.592432943978521
 Root     24 :     9.095559627820146
 Root     25 :     9.294805033431604
 Root     26 :     9.470583405952228
 Root     27 :     9.542222991794898
 Root     28 :     9.620790587138345
 Root     29 :     9.728685752275318
 Root     30 :     9.827851994788313
 Root     31 :     9.848923353420245
 Root     32 :    10.034748598927840
 Root     33 :    10.181263473974060
 Root     34 :    10.204891773676140
 Root     35 :    10.421502986764150
 Root     36 :    10.492791207457480
 Root     37 :    10.682577092966230
 Root     38 :    10.726100258707310
 Root     39 :    10.946238292274000
 Root     40 :    11.009323164637930
 Root     41 :    11.053507309958630
 Root     42 :    11.081565359664770
 Root     43 :    11.183768090830660
 Root     44 :    11.339573845201550
 Root     45 :    11.445172893295360
 Root     46 :    11.676745712310410
 Root     47 :    11.844746362549670
 Root     48 :    11.878479230201560
 Root     49 :    11.912045416296230
 Root     50 :    12.156677598525530
 Root     51 :    12.267100377962630
 Root     52 :    12.549565750357300
 Root     53 :    12.674228322839250
 Root     54 :    12.796848205297590
 Root     55 :    13.035256580200580
 Root     56 :    13.156212437510050
 Root     57 :    13.254955920824780
 Root     58 :    13.334306656752330
 Root     59 :    13.687235778030410
 Root     60 :    13.762414181045340
 Iteration     2 Dimension   120 NMult    60 NNew     60
 CISAX will form    60 AO SS matrices at one time.
 NMat=    60 NSing=    60 JSym2X= 0.
 Root      1 not converged, maximum delta is    0.050641696601227
 Root      2 not converged, maximum delta is    0.036125214895364
 Root      3 not converged, maximum delta is    0.014845815367608
 Root      4 not converged, maximum delta is    0.053381083007254
 Root      5 not converged, maximum delta is    0.051535405206458
 Root      6 not converged, maximum delta is    0.326755243973950
 Root      7 not converged, maximum delta is    0.341273579907028
 Root      8 not converged, maximum delta is    0.131042929558627
 Root      9 not converged, maximum delta is    0.024267197990966
 Root     10 not converged, maximum delta is    0.024590374478345
 Root     11 not converged, maximum delta is    0.185952035194289
 Root     12 not converged, maximum delta is    0.256857335676606
 Root     13 not converged, maximum delta is    0.035932403103042
 Root     14 not converged, maximum delta is    0.179507069810086
 Root     15 not converged, maximum delta is    0.208325781596603
 Excitation Energies [eV] at current iteration:
 Root      1 :     4.197138642804849   Change is   -0.106252526427741
 Root      2 :     4.604454958208452   Change is   -0.035653173056784
 Root      3 :     4.917364002114817   Change is   -0.015462554191461
 Root      4 :     5.630868001093549   Change is   -0.106195403564022
 Root      5 :     5.872595419745036   Change is   -0.109283062282203
 Root      6 :     6.170559798012470   Change is   -0.117827629983791
 Root      7 :     6.234030297326591   Change is   -0.119686804721381
 Root      8 :     6.463753339791546   Change is   -0.083271206120741
 Root      9 :     6.729996125971614   Change is   -0.051410161013342
 Root     10 :     6.866625924429199   Change is   -0.038617249819077
 Root     11 :     7.109983155438454   Change is   -0.123051162001119
 Root     12 :     7.138542683009603   Change is   -0.121649839255306
 Root     13 :     7.374682891064679   Change is   -0.046306792929487
 Root     14 :     7.536030053091107   Change is   -0.094649389794539
 Root     15 :     7.626279492178579   Change is   -0.066875231136779
 Root     16 :     7.665679896643870   Change is   -0.131579274827530
 Root     17 :     7.946913964370271   Change is   -0.104317145015357
 Root     18 :     8.077042911348542   Change is   -0.060376040582498
 Root     19 :     8.145763784882933   Change is   -0.133419580320048
 Root     20 :     8.265497222546921   Change is   -0.102559930086443
 Root     21 :     8.290671020588603   Change is   -0.276172790145938
 Root     22 :     8.514545869417866   Change is   -0.026539720013492
 Root     23 :     8.550948494557288   Change is   -0.041484449421233
 Root     24 :     8.952657793013557   Change is   -0.142901834806588
 Root     25 :     8.959056195817555   Change is   -0.335748837614050
 Root     26 :     9.171708010861877   Change is   -0.370514980933022
 Root     27 :     9.267784417707922   Change is   -0.581138935712322
 Root     28 :     9.316203229713002   Change is   -0.154380176239226
 Root     29 :     9.458989248104492   Change is   -0.161801339033853
 Root     30 :     9.671058411439471   Change is   -0.510205062534588
 Root     31 :     9.684135333810852   Change is   -0.808655873646625
 Root     32 :     9.705820358309714   Change is   -0.022865393965606
 Root     33 :     9.766422235478876   Change is   -0.061429759309438
 Root     34 :     9.928124147560409   Change is   -0.276767626115735
 Root     35 :     9.986777599647281   Change is   -0.047970999280563
 Root     36 :    10.005180621400990   Change is   -0.941057670873011
 Root     37 :    10.023436653381840   Change is   -0.398066333382302
 Root     38 :    10.227770836457250   Change is   -0.454806256508979
 Root     39 :    10.339425333119670   Change is   -0.386674925587636
 Root     40 :    10.542418190725130   Change is   -0.466904973912797
 Root     41 :    10.618564257447940   Change is   -0.434943052510692
 Root     42 :    10.767832744296730   Change is   -0.313732615368040
 Root     43 :    10.958009185851720   Change is   -0.487163707443640
 Root     44 :    10.996791777421660   Change is   -0.342782067779892
 Root     45 :    11.116213004435860   Change is   -0.067555086394805
 Root     46 :    11.304859343148630   Change is   -0.539887019401040
 Root     47 :    11.400863118406570   Change is   -0.275882593903839
 Root     48 :    11.626069181797120   Change is   -0.285976234499114
 Root     49 :    11.659536977591750   Change is   -0.218942252609812
 Root     50 :    11.884301550677810   Change is   -0.382798827284826
 Root     51 :    11.983954487926190   Change is   -0.172723110599337
 Root     52 :    12.093938813026960   Change is   -0.580289509812296
 Root     53 :    12.248368124946890   Change is   -0.301197625410403
 Root     54 :    12.382817390588160   Change is   -0.652439189612419
 Root     55 :    12.748295694357280   Change is   -0.048552510940317
 Root     56 :    12.763170618969610   Change is   -0.491785301855171
 Root     57 :    12.895583877904160   Change is   -0.438722778848162
 Root     58 :    12.927174042141830   Change is   -0.229038395368219
 Root     59 :    13.069299160035840   Change is   -0.617936617994565
 Root     60 :    13.088634410035170
 Iteration     3 Dimension   135 NMult   120 NNew     15
 CISAX will form    15 AO SS matrices at one time.
 NMat=    15 NSing=    15 JSym2X= 0.
 Root      1 not converged, maximum delta is    0.001692840816238
 Root      2 not converged, maximum delta is    0.000066143604291
 Root      3 not converged, maximum delta is    0.000289447947703
 Root      4 not converged, maximum delta is    0.000116877659692
 Root      5 not converged, maximum delta is    0.000076822058937
 Root      6 not converged, maximum delta is    0.004274182977533
 Root      7 not converged, maximum delta is    0.003804362271881
 Root      8 not converged, maximum delta is    0.000200633170036
 Root      9 not converged, maximum delta is    0.002266695045841
 Root     10 not converged, maximum delta is    0.000300927203422
 Root     11 not converged, maximum delta is    0.000507399917018
 Root     12 not converged, maximum delta is    0.000147970607592
 Root     13 not converged, maximum delta is    0.000113380162668
 Root     14 not converged, maximum delta is    0.000159974979995
 Root     15 not converged, maximum delta is    0.000121206107887
 Excitation Energies [eV] at current iteration:
 Root      1 :     4.196686800053815   Change is   -0.000451842751035
 Root      2 :     4.604453485205392   Change is   -0.000001473003060
 Root      3 :     4.917340946030883   Change is   -0.000023056083933
 Root      4 :     5.630863286917661   Change is   -0.000004714175888
 Root      5 :     5.872593427627410   Change is   -0.000001992117626
 Root      6 :     6.169482793745820   Change is   -0.001077004266651
 Root      7 :     6.233831336118802   Change is   -0.000198961207788
 Root      8 :     6.463749460835440   Change is   -0.000003878956106
 Root      9 :     6.729639659387687   Change is   -0.000356466583927
 Root     10 :     6.866615796879389   Change is   -0.000010127549810
 Root     11 :     7.109953782329304   Change is   -0.000029373109149
 Root     12 :     7.138539173870850   Change is   -0.000003509138753
 Root     13 :     7.374680125764216   Change is   -0.000002765300463
 Root     14 :     7.536026178904781   Change is   -0.000003874186325
 Root     15 :     7.626275764249013   Change is   -0.000003727929566
 Iteration     4 Dimension   143 NMult   135 NNew      8
 CISAX will form     8 AO SS matrices at one time.
 NMat=     8 NSing=     8 JSym2X= 0.
 Root      1 not converged, maximum delta is    0.000047874555269
 Root      2 not converged, maximum delta is    0.000003138040260
 Root      3 not converged, maximum delta is    0.000008136186955
 Root      4 not converged, maximum delta is    0.000004854696836
 Root      5 not converged, maximum delta is    0.000005299749419
 Root      6 not converged, maximum delta is    0.000048297269036
 Root      7 not converged, maximum delta is    0.000023330095589
 Root      8 not converged, maximum delta is    0.000005146070088
 Root      9 not converged, maximum delta is    0.000064850202724
 Root     10 not converged, maximum delta is    0.000009049619781
 Root     11 not converged, maximum delta is    0.000023984879870
 Root     12 not converged, maximum delta is    0.000004571486772
 Root     13 not converged, maximum delta is    0.000006067001106
 Root     14 not converged, maximum delta is    0.000007442872609
 Root     15 not converged, maximum delta is    0.000007286109928
 Excitation Energies [eV] at current iteration:
 Root      1 :     4.196686142885983   Change is   -0.000000657167832
 Root      2 :     4.604453481836964   Change is   -0.000000003368427
 Root      3 :     4.917340915133828   Change is   -0.000000030897056
 Root      4 :     5.630863275320980   Change is   -0.000000011596681
 Root      5 :     5.872593420613233   Change is   -0.000000007014176
 Root      6 :     6.169481845711610   Change is   -0.000000948034209
 Root      7 :     6.233831177492656   Change is   -0.000000158626146
 Root      8 :     6.463749454967427   Change is   -0.000000005868013
 Root      9 :     6.729638549717191   Change is   -0.000001109670495
 Root     10 :     6.866615780972021   Change is   -0.000000015907368
 Root     11 :     7.109953708153656   Change is   -0.000000074175649
 Root     12 :     7.138539166736036   Change is   -0.000000007134814
 Root     13 :     7.374680116111649   Change is   -0.000000009652568
 Root     14 :     7.536026155137947   Change is   -0.000000023766834
 Root     15 :     7.626275746051940   Change is   -0.000000018197074
 Convergence achieved on expansion vectors.
 ***********************************************************************
 Excited states from <AA,BB:AA,BB> singles matrix:
 ***********************************************************************
 
 1PDM for each excited state written to RWF  633
 Ground to excited state transition densities written to RWF  633
 Ground to excited state transition electric dipole moments (Au):
       state          X           Y           Z        Dip. S.      Osc.
         1        -1.0563     -0.3159     -0.0154      1.2158      0.1250
         2         0.0290      0.0550      0.0099      0.0040      0.0004
         3        -0.1293      0.3459      0.0073      0.1364      0.0164
         4        -0.0060      0.0357      0.0632      0.0053      0.0007
         5         0.0144     -0.0148     -0.1391      0.0198      0.0028
         6        -0.3700      1.3168      0.0206      1.8713      0.2829
         7         0.2188     -0.5409      0.0541      0.3434      0.0524
         8         0.0582      0.0164      0.0112      0.0038      0.0006
         9         0.9253      0.1864     -0.0551      0.8940      0.1474
        10         0.0013      0.1126     -0.1066      0.0240      0.0040
        11        -0.0411      0.0561      0.0331      0.0059      0.0010
        12        -0.0191      0.0251      0.0115      0.0011      0.0002
        13        -0.0303     -0.0197      0.1394      0.0207      0.0037
        14         0.0030      0.0448     -0.1174      0.0158      0.0029
        15        -0.0250      0.0105      0.3089      0.0962      0.0180
 Ground to excited state transition velocity dipole moments (Au):
       state          X           Y           Z        Dip. S.      Osc.
         1         0.0426      0.0086      0.0118      0.0020      0.0088
         2        -0.0019     -0.0017     -0.0030      0.0000      0.0001
         3         0.0155     -0.0267     -0.0008      0.0010      0.0035
         4         0.0044     -0.0133     -0.0022      0.0002      0.0006
         5        -0.0011      0.0018      0.0420      0.0018      0.0055
         6         0.0862     -0.2765     -0.0294      0.0848      0.2492
         7        -0.0459      0.1180     -0.0713      0.0211      0.0615
         8        -0.0137     -0.0053     -0.1776      0.0318      0.0891
         9        -0.1713     -0.0245      0.0289      0.0308      0.0829
        10        -0.0002     -0.0275      0.0130      0.0009      0.0025
        11         0.0080     -0.0138      0.0135      0.0004      0.0011
        12         0.0075     -0.0085     -0.0050      0.0002      0.0004
        13         0.0018      0.0059     -0.0887      0.0079      0.0194
        14         0.0046     -0.0159      0.0266      0.0010      0.0024
        15         0.0044     -0.0020     -0.0736      0.0054      0.0129
 Ground to excited state transition magnetic dipole moments (Au):
       state          X           Y           Z
         1         0.0244      0.0481     -0.5670
         2        -0.2563      0.5938      0.0143
         3         0.0176     -0.0387     -0.0028
         4         0.1869      0.1205      0.0219
         5        -0.2132     -0.0525      0.0030
         6         0.1017      0.0208      0.0552
         7         0.0506      0.0029     -0.0130
         8        -0.1320     -0.0673     -0.0113
         9         0.1189      0.0381      0.1613
        10        -1.6059     -0.5869     -0.0339
        11         0.5731     -0.4883     -0.0108
        12        -0.1918      0.7320     -0.0041
        13        -0.7087     -0.2851      0.0070
        14         0.1369     -0.1051     -0.0235
        15        -0.1268     -0.0424      0.0046
 Ground to excited state transition velocity quadrupole moments (Au):
       state          XX          YY          ZZ          XY          XZ          YZ
         1         0.2968     -0.2746      0.0009     -0.3178      0.0085      0.0000
         2        -0.0154      0.0159      0.0086      0.0221      0.1630      0.0612
         3         0.0904     -0.1273      0.0695      0.0851     -0.0131     -0.0048
         4         0.0100     -0.0008     -0.0010      0.0095     -0.1538      0.0803
         5        -0.0023      0.0052     -0.0013      0.0023     -0.0033     -0.2389
         6         0.3715     -0.1648     -0.0561      0.1943      0.0136      0.0470
         7        -0.1329      0.0596      0.0211     -0.1107     -0.0677      0.1307
         8         0.0617     -0.0402     -0.0066     -0.0633     -0.0656      0.0986
         9         0.3496     -0.3437      0.0015     -0.4586      0.0028     -0.0194
        10         0.0772     -0.0620     -0.0089     -0.0400     -0.0448      0.0684
        11         0.0295      0.0025     -0.0110      0.0079     -0.0372     -0.0321
        12         0.0177      0.0204     -0.0277      0.0046     -0.1841     -0.1089
        13        -0.0302      0.0450      0.0060      0.0192      0.1177     -0.4464
        14         0.0475     -0.0210      0.0097     -0.0038     -0.1237      0.0514
        15        -0.0007      0.0204      0.0260      0.0093     -0.0937     -0.1820
 <0|del|b> * <b|rxdel|0> + <0|del|b> * <b|delr+rdel|0>
 Rotatory Strengths (R) in cgs (10**-40 erg-esu-cm/Gauss)
       state          XX          YY          ZZ    R(velocity)    E-M Angle
         1       -23.1655     -4.3619      3.5081     -8.0064      101.77
         2        -1.7291      0.8419     -1.3416     -0.7430      101.99
         3         1.1965      0.5318      3.3799      1.7027        6.10
         4        -6.3558      1.9493      1.5534     -0.9510      105.28
         5         0.2197      0.8701     -0.2076      0.2941       88.33
         6       -14.5504     26.3739     -7.4853      1.4461       87.67
         7        26.4709    -23.6133     -6.1336     -1.0920       98.02
         8        19.7552    -13.0666      5.7377      4.1421       80.93
         9       -13.5091      1.2320    -35.2757    -15.8509      117.70
        10        19.5780      0.5372     24.8484     14.9879       72.06
        11         8.3573      5.5315     16.3681     10.0857       44.78
        12       -10.4665     -2.9921     -7.0985     -6.8524      144.31
        13        -6.1520     -1.3112     -1.9152     -3.1261       93.03
        14        -1.3044      0.4350      5.1414      1.4240       72.15
        15        -1.4201     -1.2696      0.6457     -0.6813       94.71
 1/2[<0|r|b>*<b|rxdel|0> + (<0|rxdel|b>*<b|r|0>)*]
 Rotatory Strengths (R) in cgs (10**-40 erg-esu-cm/Gauss)
       state          XX          YY          ZZ     R(length)
         1        18.2339     10.7572     -6.1557      7.6118
         2         5.2644    -23.0828     -0.1007     -5.9731
         3         1.6060      9.4597      0.0144      3.6934
         4         0.7918     -3.0384     -0.9803     -1.0756
         5         2.1740     -0.5482      0.2908      0.6389
         6        26.6168    -19.3988     -0.8045      2.1378
         7        -7.8365      1.0940      0.4983     -2.0814
         8         5.4303      0.7822      0.0900      2.1008
         9       -77.7782     -5.0194      6.2796    -25.5060
        10         1.5029     46.7322     -2.5551     15.2267
        11        16.6391     19.3599      0.2529     12.0840
        12        -2.5967    -12.9975      0.0338     -5.1868
        13       -15.1738     -3.9790     -0.6899     -6.6142
        14        -0.2899      3.3336     -1.9527      0.3637
        15        -2.2407      0.3149     -1.0073     -0.9777
  1/2[<0|del|b>*<b|r|0> + (<0|r|b>*<b|del|0>)*] (Au)
       state          X           Y           Z        Dip. S.   Osc.(frdel)
         1        -0.0450     -0.0027     -0.0002      0.0479      0.0320
         2        -0.0001     -0.0001      0.0000      0.0002      0.0001
         3        -0.0020     -0.0092      0.0000      0.0112      0.0075
         4         0.0000     -0.0005     -0.0001      0.0006      0.0004
         5         0.0000      0.0000     -0.0058      0.0059      0.0039
         6        -0.0319     -0.3641     -0.0006      0.3966      0.2644
         7        -0.0101     -0.0638     -0.0039      0.0777      0.0518
         8        -0.0008     -0.0001     -0.0020      0.0029      0.0019
         9        -0.1585     -0.0046     -0.0016      0.1646      0.1097
        10         0.0000     -0.0031     -0.0014      0.0045      0.0030
        11        -0.0003     -0.0008      0.0004      0.0007      0.0004
        12        -0.0001     -0.0002     -0.0001      0.0004      0.0003
        13        -0.0001     -0.0001     -0.0124      0.0125      0.0084
        14         0.0000     -0.0007     -0.0031      0.0038      0.0025
        15        -0.0001      0.0000     -0.0227      0.0229      0.0152

 Excitation energies and oscillator strengths:
 
 Excited State   1:      Singlet-A      4.1967 eV  295.43 nm  f=0.1250  <S**2>=0.000
      12 -> 15         0.16831
      13 -> 14         0.67722
 This state for optimization and/or second-order correction.
 Total Energy, E(CIS) =  0.174626173353    
 Copying the excited state density for this state as the 1-particle RhoCI density.
 
 Excited State   2:      Singlet-A      4.6045 eV  269.27 nm  f=0.0004  <S**2>=0.000
      13 -> 16         0.68103
      13 -> 20         0.10535
 
 Excited State   3:      Singlet-A      4.9173 eV  252.14 nm  f=0.0164  <S**2>=0.000
      12 -> 14        -0.37517
      13 -> 15         0.58796
 
 Excited State   4:      Singlet-A      5.6309 eV  220.19 nm  f=0.0007  <S**2>=0.000
      12 -> 17         0.14774
      13 -> 17         0.52604
      13 -> 18         0.22014
      13 -> 19         0.11105
      13 -> 22         0.28664
      13 -> 23        -0.14434
 
 Excited State   5:      Singlet-A      5.8726 eV  211.12 nm  f=0.0028  <S**2>=0.000
      12 -> 18        -0.15985
      12 -> 22        -0.11224
      13 -> 17        -0.11879
      13 -> 18         0.44235
      13 -> 19        -0.33537
      13 -> 21        -0.13323
      13 -> 22         0.15296
      13 -> 23         0.23848
 
 Excited State   6:      Singlet-A      6.1695 eV  200.96 nm  f=0.2829  <S**2>=0.000
      12 -> 14         0.51820
      12 -> 16         0.24506
      13 -> 15         0.33041
 
 Excited State   7:      Singlet-A      6.2338 eV  198.89 nm  f=0.0524  <S**2>=0.000
       7 -> 16        -0.18356
      12 -> 14        -0.21359
      12 -> 16         0.59227
      12 -> 22         0.10450
      13 -> 15        -0.13404
 
 Excited State   8:      Singlet-A      6.4637 eV  191.81 nm  f=0.0006  <S**2>=0.000
      13 -> 17        -0.26768
      13 -> 18         0.29288
      13 -> 19         0.53669
      13 -> 21         0.11474
 
 Excited State   9:      Singlet-A      6.7296 eV  184.24 nm  f=0.1474  <S**2>=0.000
      12 -> 15         0.66725
      13 -> 14        -0.15087
 
 Excited State  10:      Singlet-A      6.8666 eV  180.56 nm  f=0.0040  <S**2>=0.000
      10 -> 14         0.60360
      11 -> 14         0.17209
      11 -> 15         0.26419
 
 Excited State  11:      Singlet-A      7.1100 eV  174.38 nm  f=0.0010  <S**2>=0.000
      10 -> 14        -0.13636
      10 -> 15         0.24012
      11 -> 14         0.59165
      13 -> 20        -0.14121
      13 -> 22        -0.12797
 
 Excited State  12:      Singlet-A      7.1385 eV  173.68 nm  f=0.0002  <S**2>=0.000
      11 -> 14         0.13799
      12 -> 19         0.27431
      13 -> 16        -0.11420
      13 -> 17        -0.15701
      13 -> 18        -0.26943
      13 -> 20         0.20802
      13 -> 22         0.46952
 
 Excited State  13:      Singlet-A      7.3747 eV  168.12 nm  f=0.0037  <S**2>=0.000
       7 -> 16         0.11046
      12 -> 17        -0.26673
      12 -> 18        -0.25165
      12 -> 20        -0.18837
      12 -> 22        -0.16447
      13 -> 17         0.25063
      13 -> 18        -0.15620
      13 -> 19         0.15923
      13 -> 23         0.27564
      13 -> 24         0.24212
 
 Excited State  14:      Singlet-A      7.5360 eV  164.52 nm  f=0.0029  <S**2>=0.000
      11 -> 14         0.10608
      12 -> 17        -0.28932
      12 -> 19        -0.30099
      13 -> 18         0.12945
      13 -> 20         0.45765
      13 -> 23        -0.18142
 
 Excited State  15:      Singlet-A      7.6263 eV  162.58 nm  f=0.0180  <S**2>=0.000
      11 -> 15        -0.12452
      12 -> 18         0.26715
      12 -> 21         0.12322
      12 -> 23         0.12670
      13 -> 20        -0.11052
      13 -> 21         0.41837
      13 -> 23         0.35172
      13 -> 24        -0.10609
 SavETr:  write IOETrn=   770 NScale= 10 NData=  16 NLR=1 NState=   15 LETran=     280.
 The selected state is a singlet
 CISAX will form     1 AO SS matrices at one time.
 NMat=     1 NSing=     1 JSym2X= 0.
 Leave Link  914 at Tue Dec 15 16:18:50 2015, MaxMem=    33554432 cpu:         0.1
 (Enter /home/Applications/g09/g09/l1002.exe)
 Minotr:  Closed shell wavefunction.
          Computing CIS/TD-HF/TD-KS derivatives.
          Using Z-Vector for PSCF gradient.
          Skipping F1 and S1 gradient terms here.
          IDoAtm=111111111
          Direct CPHF calculation.
          Differentiating once with respect to electric field.
                with respect to dipole field.
          Differentiating once with respect to nuclear coordinates.
          Electric field/nuclear overlap derivatives assumed to be zero.
          Requested convergence is 1.0D-10 RMS, and 1.0D-09 maximum.
          NewPWx=T KeepS1=F KeepF1=F KeepIn=T MapXYZ=F SortEE=F KeepMc=T.
          MDV=      33495423 using IRadAn=       0.
 Keep J ints in memory in canonical form, NReq=871704.
 FoFCou: FMM=F IPFlag=           0 FMFlag=           0 FMFlg1=           0
         NFxFlg=           0 DoJE=F BraDBF=F KetDBF=F FulRan=T
         wScrn=  0.000000 ICntrl=     600 IOpCl=  2 I1Cent=           0 NGrid=           0
         NMat0=    1 NMatS0=     54 NMatT0=    0 NMatD0=    1 NMtDS0=    0 NMtDT0=    0
 Symmetry not used in FoFCou.
          Solving linear equations separately, MaxMat=       0.
          There are     1 degrees of freedom in the 1st order CPHF.  IDoFFX=0 NUNeed=     1.
 LinEq1:  Iter=  0 NonCon=     1 RMS=1.34D-02 Max=9.82D-02 NDo=     1
 AX will form     1 AO Fock derivatives at one time.
 LinEq1:  Iter=  1 NonCon=     1 RMS=2.72D-03 Max=2.20D-02 NDo=     1
 LinEq1:  Iter=  2 NonCon=     1 RMS=4.67D-04 Max=3.52D-03 NDo=     1
 LinEq1:  Iter=  3 NonCon=     1 RMS=6.06D-05 Max=3.32D-04 NDo=     1
 LinEq1:  Iter=  4 NonCon=     1 RMS=6.83D-06 Max=3.31D-05 NDo=     1
 LinEq1:  Iter=  5 NonCon=     1 RMS=1.24D-06 Max=6.12D-06 NDo=     1
 LinEq1:  Iter=  6 NonCon=     1 RMS=1.73D-07 Max=6.35D-07 NDo=     1
 LinEq1:  Iter=  7 NonCon=     1 RMS=1.99D-08 Max=8.45D-08 NDo=     1
 LinEq1:  Iter=  8 NonCon=     1 RMS=2.35D-09 Max=1.26D-08 NDo=     1
 LinEq1:  Iter=  9 NonCon=     1 RMS=3.43D-10 Max=1.69D-09 NDo=     1
 LinEq1:  Iter= 10 NonCon=     0 RMS=4.04D-11 Max=1.79D-10 NDo=     1
 Linear equations converged to 1.000D-10 1.000D-09 after    10 iterations.
 End of Minotr F.D. properties file   721 does not exist.
 End of Minotr F.D. properties file   722 does not exist.
 End of Minotr F.D. properties file   788 does not exist.
 Leave Link 1002 at Tue Dec 15 16:18:50 2015, MaxMem=    33554432 cpu:         0.0
 (Enter /home/Applications/g09/g09/l601.exe)
 Copying SCF densities to generalized density rwf, IOpCl= 0 IROHF=0.

 **********************************************************************

            Population analysis using the SCF density.

 **********************************************************************

 Orbital symmetries:
       Occupied  (A) (A) (A) (A) (A) (A) (A) (A) (A) (A) (A) (A)
                 (A)
       Virtual   (A) (A) (A) (A) (A) (A) (A) (A) (A) (A) (A)
 The electronic state is 1-A.
 Alpha  occ. eigenvalues --   -1.56256  -1.24669  -1.08545  -0.82228  -0.81557
 Alpha  occ. eigenvalues --   -0.68201  -0.59905  -0.56322  -0.51700  -0.50081
 Alpha  occ. eigenvalues --   -0.49143  -0.40354  -0.33503
 Alpha virt. eigenvalues --    0.02433   0.06855   0.09554   0.13752   0.14110
 Alpha virt. eigenvalues --    0.15615   0.18143   0.18474   0.19049   0.20873
 Alpha virt. eigenvalues --    0.22316
     Molecular Orbital Coefficients:
                           1         2         3         4         5
                           O         O         O         O         O
     Eigenvalues --    -1.56256  -1.24669  -1.08545  -0.82228  -0.81557
   1 1   C  1S          0.29981  -0.46133   0.29888  -0.31743  -0.27246
   2        1PX        -0.03195   0.10248   0.18814   0.22858  -0.25178
   3        1PY        -0.12776   0.05088  -0.05183  -0.20962  -0.03224
   4        1PZ         0.00404  -0.00641   0.00341  -0.00629  -0.00214
   5 2   C  1S          0.35120  -0.07107   0.52876   0.42204  -0.00748
   6        1PX        -0.16901   0.02677  -0.01187   0.12064   0.02423
   7        1PY        -0.07031  -0.21839   0.02284  -0.04532  -0.36470
   8        1PZ         0.00188   0.00072   0.00340   0.00590   0.00414
   9 3   O  1S          0.63224   0.59599  -0.02114  -0.29910   0.10070
  10        1PX        -0.06932   0.01281   0.32423   0.05575   0.47924
  11        1PY         0.18398  -0.01451   0.12246   0.22049   0.09679
  12        1PZ        -0.00076  -0.00039  -0.00049   0.00102   0.00085
  13 4   C  1S          0.36718  -0.11506  -0.50718   0.36367  -0.20928
  14        1PX         0.17535   0.12846   0.00716  -0.16505  -0.17147
  15        1PY         0.05634  -0.20252  -0.00483   0.05016   0.30443
  16        1PZ        -0.00004  -0.00057  -0.00080   0.00102   0.00234
  17 5   C  1S          0.30166  -0.48867  -0.25606  -0.12480   0.38996
  18        1PX         0.10675  -0.10292   0.11352  -0.15183  -0.17980
  19        1PY        -0.07996  -0.00624   0.16544  -0.33541   0.03791
  20        1PZ        -0.00335   0.00533   0.00156   0.00351  -0.00248
  21 6   H  1S          0.06640  -0.15296  -0.11226  -0.06607   0.26566
  22 7   H  1S          0.07655  -0.02156  -0.19745   0.20099  -0.15298
  23 8   H  1S          0.07381  -0.00973   0.20471   0.25904   0.03255
  24 9   H  1S          0.06534  -0.14437   0.12296  -0.20503  -0.17813
                           6         7         8         9        10
                           O         O         O         O         O
     Eigenvalues --    -0.68201  -0.59905  -0.56322  -0.51700  -0.50081
   1 1   C  1S         -0.08215  -0.01500   0.16367   0.02705  -0.03457
   2        1PX        -0.10111  -0.00805   0.05970  -0.47161  -0.24046
   3        1PY        -0.28505   0.00285   0.13222  -0.13829   0.27005
   4        1PZ        -0.00815   0.23135   0.01763   0.00063   0.01120
   5 2   C  1S         -0.10948  -0.00256  -0.14523  -0.00596   0.05040
   6        1PX        -0.37662   0.02294  -0.37651   0.26981   0.05041
   7        1PY        -0.04963   0.00586  -0.17482  -0.15294  -0.35894
   8        1PZ        -0.01417   0.37448   0.01301   0.00917   0.01446
   9 3   O  1S         -0.17436  -0.00313   0.01013  -0.00774  -0.20697
  10        1PX        -0.13280  -0.02775   0.43510   0.11147  -0.16557
  11        1PY         0.44929   0.00654   0.12811  -0.22481   0.53593
  12        1PZ        -0.01285   0.77073   0.04758  -0.00802  -0.00873
  13 4   C  1S         -0.09758  -0.00771   0.14970   0.05660   0.05463
  14        1PX         0.29730   0.03465  -0.42088  -0.07844   0.14347
  15        1PY         0.22736   0.01606  -0.07992  -0.09693  -0.34604
  16        1PZ        -0.00380   0.38829   0.02346  -0.01112  -0.01184
  17 5   C  1S         -0.07627   0.01079  -0.16691   0.00127  -0.03186
  18        1PX         0.25631   0.01187   0.08479   0.56578  -0.01518
  19        1PY        -0.15054  -0.00629  -0.10910   0.01269   0.38768
  20        1PZ        -0.00519   0.23702   0.01698  -0.01333  -0.00233
  21 6   H  1S         -0.22219  -0.00612  -0.18546  -0.38498   0.14054
  22 7   H  1S         -0.27047  -0.03099   0.33041   0.13923   0.17581
  23 8   H  1S         -0.27771   0.02759  -0.33785   0.22607   0.12007
  24 9   H  1S         -0.22735  -0.00046   0.19682  -0.20076   0.12721
                          11        12        13        14        15
                           O         O         O         V         V
     Eigenvalues --    -0.49143  -0.40354  -0.33503   0.02433   0.06855
   1 1   C  1S          0.01372  -0.01749  -0.00823   0.01912   0.02581
   2        1PX         0.04083   0.00592   0.00848  -0.00629   0.00676
   3        1PY         0.48661  -0.02236  -0.01322   0.00395   0.01980
   4        1PZ         0.01428   0.58407   0.37740  -0.32278  -0.59426
   5 2   C  1S         -0.10752   0.00313  -0.01154  -0.01924  -0.03194
   6        1PX         0.26565  -0.01266  -0.02131  -0.02297  -0.00569
   7        1PY        -0.19753   0.00849   0.01885   0.00892   0.02624
   8        1PZ         0.00005   0.11632   0.62142   0.58849   0.33011
   9 3   O  1S         -0.00401   0.00001   0.00490   0.00320   0.01506
  10        1PX         0.00571   0.00008   0.00172  -0.00126  -0.00472
  11        1PY         0.10234  -0.01001  -0.00234   0.00561   0.03090
  12        1PZ        -0.04348  -0.49821  -0.01032  -0.39085   0.01704
  13 4   C  1S          0.10625  -0.00579  -0.00343  -0.00248  -0.01388
  14        1PX         0.13422  -0.00414  -0.00639  -0.01069  -0.01780
  15        1PY         0.39070  -0.01273   0.01074  -0.00440   0.01820
  16        1PZ        -0.01008   0.15899  -0.59828   0.56672  -0.37836
  17 5   C  1S         -0.04522   0.01527  -0.00698  -0.01240   0.01091
  18        1PX         0.07410   0.00863  -0.00683  -0.01090  -0.00593
  19        1PY        -0.36315   0.01001  -0.00444  -0.00899   0.00689
  20        1PZ         0.00554   0.60823  -0.33427  -0.26998   0.62160
  21 6   H  1S         -0.23199  -0.00008   0.00552   0.00513  -0.01869
  22 7   H  1S         -0.24708   0.00620  -0.00006  -0.00216   0.01812
  23 8   H  1S          0.16438  -0.00528   0.00210   0.02388   0.03436
  24 9   H  1S          0.40523  -0.00563   0.00263  -0.01177  -0.03319
                          16        17        18        19        20
                           V         V         V         V         V
     Eigenvalues --     0.09554   0.13752   0.14110   0.15615   0.18143
   1 1   C  1S          0.02782   0.30599  -0.13076   0.13392  -0.00971
   2        1PX        -0.00129   0.09775   0.12942   0.33571  -0.31642
   3        1PY         0.04135  -0.29045  -0.20930   0.12653  -0.10738
   4        1PZ         0.04714   0.02024  -0.02281   0.00916  -0.01495
   5 2   C  1S         -0.27046  -0.45587  -0.02228  -0.12216   0.14072
   6        1PX         0.10785  -0.15138   0.03988   0.34375   0.28803
   7        1PY         0.41000  -0.23119  -0.17496   0.04922   0.12182
   8        1PZ        -0.04648  -0.03097   0.01297   0.00992   0.01531
   9 3   O  1S          0.23750  -0.02711  -0.04879  -0.00629   0.08974
  10        1PX        -0.15101   0.07863  -0.02932   0.30621  -0.12254
  11        1PY         0.45514   0.00583  -0.07904   0.08533   0.14469
  12        1PZ         0.00081   0.00800  -0.00157  -0.00582  -0.00225
  13 4   C  1S         -0.28114   0.06636  -0.43398   0.17503  -0.05448
  14        1PX        -0.32112   0.00968   0.33983   0.31360  -0.28429
  15        1PY         0.23793  -0.12032  -0.03456   0.23609  -0.04543
  16        1PZ         0.02293  -0.00700  -0.00058   0.00906  -0.00727
  17 5   C  1S          0.04872  -0.23148   0.19535  -0.14518  -0.31108
  18        1PX        -0.01412   0.00360   0.11729   0.29324   0.21927
  19        1PY         0.03162  -0.18725  -0.33006   0.20700  -0.30685
  20        1PZ        -0.03713   0.00747   0.00073  -0.00628   0.02302
  21 6   H  1S         -0.12253   0.32835   0.10297   0.28654   0.51238
  22 7   H  1S          0.31380  -0.13838   0.55768   0.20257  -0.12713
  23 8   H  1S          0.28879   0.53364  -0.04084  -0.20430  -0.30197
  24 9   H  1S         -0.11295  -0.02059   0.30054  -0.34191   0.17567
                          21        22        23        24
                           V         V         V         V
     Eigenvalues --     0.18474   0.19049   0.20873   0.22316
   1 1   C  1S         -0.40117   0.20429  -0.24855   0.04134
   2        1PX         0.20518   0.33560   0.17148  -0.34386
   3        1PY        -0.36258  -0.14864   0.43890  -0.03385
   4        1PZ        -0.03546   0.00352  -0.00055   0.00526
   5 2   C  1S         -0.14624  -0.13145   0.04484  -0.09070
   6        1PX         0.06173   0.43784  -0.27857   0.11765
   7        1PY         0.17921  -0.20018   0.22566   0.44016
   8        1PZ         0.00679   0.01416  -0.01226  -0.00557
   9 3   O  1S          0.03376   0.05010  -0.00593  -0.00651
  10        1PX         0.16992  -0.04147   0.08977   0.48191
  11        1PY         0.10622   0.21326   0.02577   0.16199
  12        1PZ        -0.00371  -0.00290   0.00216  -0.00158
  13 4   C  1S          0.20993  -0.08287  -0.07141   0.08670
  14        1PX        -0.05395  -0.16758  -0.02834   0.39298
  15        1PY        -0.01443  -0.41427  -0.36681  -0.28876
  16        1PZ         0.00256  -0.00222  -0.00474  -0.00279
  17 5   C  1S          0.10926   0.33082   0.25732  -0.00492
  18        1PX         0.27512  -0.05893   0.42939  -0.31469
  19        1PY         0.35356  -0.14654  -0.24984  -0.21018
  20        1PZ        -0.00052  -0.01108  -0.01116   0.00431
  21 6   H  1S         -0.01807  -0.22465   0.19507  -0.10842
  22 7   H  1S         -0.17023  -0.24309  -0.14803  -0.00956
  23 8   H  1S          0.07097  -0.24414   0.17497   0.00366
  24 9   H  1S          0.52096  -0.11961  -0.18042   0.06377
     Density Matrix:
                           1         2         3         4         5
   1 1   C  1S          1.20657
   2        1PX         0.01911   0.91685
   3        1PY         0.07436   0.03270   0.98968
   4        1PZ        -0.01129   0.00644  -0.00496   1.07583
   5 2   C  1S          0.29221   0.33594  -0.37985  -0.00944   1.26704
   6        1PX        -0.26580  -0.17194   0.32254  -0.02175   0.10326
   7        1PY         0.36176   0.42148  -0.32669   0.01215   0.04236
   8        1PZ        -0.02295  -0.00338  -0.00615   0.77917  -0.00515
   9 3   O  1S         -0.00265   0.02947   0.00857   0.00135   0.09827
  10        1PX         0.02657  -0.03254   0.00700   0.00139   0.21582
  11        1PY        -0.07391  -0.02975   0.06965   0.00072   0.34452
  12        1PZ         0.00964  -0.00217   0.00176  -0.23272  -0.00941
  13 4   C  1S         -0.02596   0.00038   0.02086  -0.00443   0.00796
  14        1PX        -0.00876  -0.06644  -0.00266  -0.00374   0.01935
  15        1PY        -0.01431   0.05671  -0.00540  -0.00150  -0.04369
  16        1PZ        -0.00102   0.00328   0.00562  -0.08590   0.00798
  17 5   C  1S          0.30360  -0.46339  -0.13575   0.01777  -0.02874
  18        1PX         0.43999  -0.52630  -0.19067   0.01735  -0.02062
  19        1PY         0.20183  -0.31685   0.04987   0.00700   0.01787
  20        1PZ        -0.02375   0.01968  -0.00182   0.56851   0.00679
  21 6   H  1S         -0.05000   0.05775   0.02372  -0.00421   0.06098
  22 7   H  1S          0.04544  -0.05601  -0.01858   0.00366   0.05262
  23 8   H  1S         -0.06379  -0.06985   0.07986   0.00718   0.62066
  24 9   H  1S          0.56653   0.23921   0.75376   0.02658  -0.05336
                           6         7         8         9        10
   6        1PX         0.95043
   7        1PY        -0.07246   0.82590
   8        1PZ        -0.00399   0.00947   1.08133
   9 3   O  1S         -0.15240  -0.23008   0.00323   1.85684
  10        1PX        -0.12937  -0.39235   0.00030   0.09915   1.18092
  11        1PY        -0.45514  -0.55048   0.00654  -0.27558  -0.06376
  12        1PZ        -0.00552   0.01026   0.44974   0.00276   0.00324
  13 4   C  1S          0.01259  -0.04634  -0.00178   0.10162  -0.39043
  14        1PX         0.03771   0.04531  -0.00209   0.26701  -0.70974
  15        1PY         0.00699  -0.01681   0.00515  -0.07794   0.24790
  16        1PZ         0.01230  -0.00883  -0.41558  -0.00218   0.00101
  17 5   C  1S          0.02373  -0.00740   0.00031  -0.00041   0.02417
  18        1PX        -0.00278  -0.06646   0.00504  -0.02874   0.00394
  19        1PY        -0.00814  -0.06143   0.00211  -0.01474  -0.06718
  20        1PZ        -0.00153  -0.00164  -0.09613  -0.00203  -0.00057
  21 6   H  1S         -0.04136   0.06011   0.00139   0.02286  -0.07569
  22 7   H  1S         -0.06633  -0.07713   0.00205  -0.04334   0.06766
  23 8   H  1S          0.72008  -0.11828   0.03374  -0.04000  -0.02690
  24 9   H  1S          0.05199  -0.02825   0.01020   0.02261   0.02282
                          11        12        13        14        15
  11        1PY         1.34738
  12        1PZ         0.00632   1.69362
  13 4   C  1S          0.13965   0.00002   1.26173
  14        1PX         0.33296  -0.00395  -0.10550   0.83096
  15        1PY         0.04335  -0.00192  -0.03229   0.07104   0.95961
  16        1PZ        -0.00176   0.45606   0.00003   0.00555  -0.00568
  17 5   C  1S         -0.07249  -0.00731   0.29140  -0.04157   0.43758
  18        1PX        -0.03514  -0.00474   0.00502   0.13305  -0.01034
  19        1PY         0.04272  -0.00213  -0.52157   0.08408  -0.62475
  20        1PZ        -0.00313  -0.23226  -0.00457   0.00111  -0.01532
  21 6   H  1S          0.05264   0.00293  -0.05105  -0.02496  -0.04974
  22 7   H  1S         -0.04418   0.00087   0.60626  -0.47427  -0.57240
  23 8   H  1S         -0.07685   0.00299   0.04989   0.09395  -0.01361
  24 9   H  1S          0.08924  -0.00564   0.06255  -0.00774   0.06848
                          16        17        18        19        20
  16        1PZ         1.06985
  17 5   C  1S          0.01850   1.20028
  18        1PX         0.00722  -0.06656   0.97847
  19        1PY        -0.00327   0.05420  -0.03682   0.92959
  20        1PZ         0.77851   0.01226   0.00509   0.00230   1.07690
  21 6   H  1S         -0.00703   0.57737  -0.67514   0.39369  -0.00785
  22 7   H  1S         -0.00670  -0.05913   0.00228   0.10542   0.00047
  23 8   H  1S         -0.00734   0.04354   0.05128   0.02106  -0.00641
  24 9   H  1S         -0.00233  -0.04671  -0.05639  -0.01934   0.00733
                          21        22        23        24
  21 6   H  1S          0.84192
  22 7   H  1S          0.00812   0.80755
  23 8   H  1S         -0.01829  -0.02582   0.80044
  24 9   H  1S         -0.01194  -0.01866   0.01132   0.85032
    Full Mulliken population analysis:
                           1         2         3         4         5
   1 1   C  1S          1.20657
   2        1PX         0.00000   0.91685
   3        1PY         0.00000   0.00000   0.98968
   4        1PZ         0.00000   0.00000   0.00000   1.07583
   5 2   C  1S          0.00000   0.00000   0.00000   0.00000   1.26704
   6        1PX         0.00000   0.00000   0.00000   0.00000   0.00000
   7        1PY         0.00000   0.00000   0.00000   0.00000   0.00000
   8        1PZ         0.00000   0.00000   0.00000   0.00000   0.00000
   9 3   O  1S          0.00000   0.00000   0.00000   0.00000   0.00000
  10        1PX         0.00000   0.00000   0.00000   0.00000   0.00000
  11        1PY         0.00000   0.00000   0.00000   0.00000   0.00000
  12        1PZ         0.00000   0.00000   0.00000   0.00000   0.00000
  13 4   C  1S          0.00000   0.00000   0.00000   0.00000   0.00000
  14        1PX         0.00000   0.00000   0.00000   0.00000   0.00000
  15        1PY         0.00000   0.00000   0.00000   0.00000   0.00000
  16        1PZ         0.00000   0.00000   0.00000   0.00000   0.00000
  17 5   C  1S          0.00000   0.00000   0.00000   0.00000   0.00000
  18        1PX         0.00000   0.00000   0.00000   0.00000   0.00000
  19        1PY         0.00000   0.00000   0.00000   0.00000   0.00000
  20        1PZ         0.00000   0.00000   0.00000   0.00000   0.00000
  21 6   H  1S          0.00000   0.00000   0.00000   0.00000   0.00000
  22 7   H  1S          0.00000   0.00000   0.00000   0.00000   0.00000
  23 8   H  1S          0.00000   0.00000   0.00000   0.00000   0.00000
  24 9   H  1S          0.00000   0.00000   0.00000   0.00000   0.00000
                           6         7         8         9        10
   6        1PX         0.95043
   7        1PY         0.00000   0.82590
   8        1PZ         0.00000   0.00000   1.08133
   9 3   O  1S          0.00000   0.00000   0.00000   1.85684
  10        1PX         0.00000   0.00000   0.00000   0.00000   1.18092
  11        1PY         0.00000   0.00000   0.00000   0.00000   0.00000
  12        1PZ         0.00000   0.00000   0.00000   0.00000   0.00000
  13 4   C  1S          0.00000   0.00000   0.00000   0.00000   0.00000
  14        1PX         0.00000   0.00000   0.00000   0.00000   0.00000
  15        1PY         0.00000   0.00000   0.00000   0.00000   0.00000
  16        1PZ         0.00000   0.00000   0.00000   0.00000   0.00000
  17 5   C  1S          0.00000   0.00000   0.00000   0.00000   0.00000
  18        1PX         0.00000   0.00000   0.00000   0.00000   0.00000
  19        1PY         0.00000   0.00000   0.00000   0.00000   0.00000
  20        1PZ         0.00000   0.00000   0.00000   0.00000   0.00000
  21 6   H  1S          0.00000   0.00000   0.00000   0.00000   0.00000
  22 7   H  1S          0.00000   0.00000   0.00000   0.00000   0.00000
  23 8   H  1S          0.00000   0.00000   0.00000   0.00000   0.00000
  24 9   H  1S          0.00000   0.00000   0.00000   0.00000   0.00000
                          11        12        13        14        15
  11        1PY         1.34738
  12        1PZ         0.00000   1.69362
  13 4   C  1S          0.00000   0.00000   1.26173
  14        1PX         0.00000   0.00000   0.00000   0.83096
  15        1PY         0.00000   0.00000   0.00000   0.00000   0.95961
  16        1PZ         0.00000   0.00000   0.00000   0.00000   0.00000
  17 5   C  1S          0.00000   0.00000   0.00000   0.00000   0.00000
  18        1PX         0.00000   0.00000   0.00000   0.00000   0.00000
  19        1PY         0.00000   0.00000   0.00000   0.00000   0.00000
  20        1PZ         0.00000   0.00000   0.00000   0.00000   0.00000
  21 6   H  1S          0.00000   0.00000   0.00000   0.00000   0.00000
  22 7   H  1S          0.00000   0.00000   0.00000   0.00000   0.00000
  23 8   H  1S          0.00000   0.00000   0.00000   0.00000   0.00000
  24 9   H  1S          0.00000   0.00000   0.00000   0.00000   0.00000
                          16        17        18        19        20
  16        1PZ         1.06985
  17 5   C  1S          0.00000   1.20028
  18        1PX         0.00000   0.00000   0.97847
  19        1PY         0.00000   0.00000   0.00000   0.92959
  20        1PZ         0.00000   0.00000   0.00000   0.00000   1.07690
  21 6   H  1S          0.00000   0.00000   0.00000   0.00000   0.00000
  22 7   H  1S          0.00000   0.00000   0.00000   0.00000   0.00000
  23 8   H  1S          0.00000   0.00000   0.00000   0.00000   0.00000
  24 9   H  1S          0.00000   0.00000   0.00000   0.00000   0.00000
                          21        22        23        24
  21 6   H  1S          0.84192
  22 7   H  1S          0.00000   0.80755
  23 8   H  1S          0.00000   0.00000   0.80044
  24 9   H  1S          0.00000   0.00000   0.00000   0.85032
     Gross orbital populations:
                           1
   1 1   C  1S          1.20657
   2        1PX         0.91685
   3        1PY         0.98968
   4        1PZ         1.07583
   5 2   C  1S          1.26704
   6        1PX         0.95043
   7        1PY         0.82590
   8        1PZ         1.08133
   9 3   O  1S          1.85684
  10        1PX         1.18092
  11        1PY         1.34738
  12        1PZ         1.69362
  13 4   C  1S          1.26173
  14        1PX         0.83096
  15        1PY         0.95961
  16        1PZ         1.06985
  17 5   C  1S          1.20028
  18        1PX         0.97847
  19        1PY         0.92959
  20        1PZ         1.07690
  21 6   H  1S          0.84192
  22 7   H  1S          0.80755
  23 8   H  1S          0.80044
  24 9   H  1S          0.85032
          Condensed to atoms (all electrons):
               1          2          3          4          5          6
     1  C    4.188925   0.000000   0.000000   0.000000   0.000000   0.000000
     2  C    0.000000   4.124700   0.000000   0.000000   0.000000   0.000000
     3  O    0.000000   0.000000   6.078766   0.000000   0.000000   0.000000
     4  C    0.000000   0.000000   0.000000   4.122142   0.000000   0.000000
     5  C    0.000000   0.000000   0.000000   0.000000   4.185244   0.000000
     6  H    0.000000   0.000000   0.000000   0.000000   0.000000   0.841920
     7  H    0.000000   0.000000   0.000000   0.000000   0.000000   0.000000
     8  H    0.000000   0.000000   0.000000   0.000000   0.000000   0.000000
     9  H    0.000000   0.000000   0.000000   0.000000   0.000000   0.000000
               7          8          9
     1  C    0.000000   0.000000   0.000000
     2  C    0.000000   0.000000   0.000000
     3  O    0.000000   0.000000   0.000000
     4  C    0.000000   0.000000   0.000000
     5  C    0.000000   0.000000   0.000000
     6  H    0.000000   0.000000   0.000000
     7  H    0.807546   0.000000   0.000000
     8  H    0.000000   0.800436   0.000000
     9  H    0.000000   0.000000   0.850320
 Mulliken charges:
               1
     1  C   -0.188925
     2  C   -0.124700
     3  O   -0.078766
     4  C   -0.122142
     5  C   -0.185244
     6  H    0.158080
     7  H    0.192454
     8  H    0.199564
     9  H    0.149680
 Sum of Mulliken charges =   0.00000
 Mulliken charges with hydrogens summed into heavy atoms:
               1
     1  C   -0.039245
     2  C    0.074864
     3  O   -0.078766
     4  C    0.070312
     5  C   -0.027164
 Charge=              0.0000 electrons
 Dipole moment (field-independent basis, Debye):
    X=             -0.1290    Y=              0.2081    Z=              0.0920  Tot=              0.2615
 N-N= 1.034705993037D+02 E-N=-1.711084814451D+02  KE=-1.654257851900D+01
 Orbital energies and kinetic energies (alpha):
                                 1                 2
   1         O                -1.562564         -1.314530
   2         O                -1.246694         -1.057073
   3         O                -1.085446         -0.950632
   4         O                -0.822284         -0.726029
   5         O                -0.815573         -0.701064
   6         O                -0.682010         -0.603176
   7         O                -0.599053         -0.486176
   8         O                -0.563224         -0.503666
   9         O                -0.517003         -0.443262
  10         O                -0.500808         -0.398749
  11         O                -0.491433         -0.429769
  12         O                -0.403542         -0.349839
  13         O                -0.335034         -0.307324
  14         V                 0.024332         -0.197177
  15         V                 0.068547         -0.188098
  16         V                 0.095543         -0.191855
  17         V                 0.137521         -0.234577
  18         V                 0.141097         -0.219835
  19         V                 0.156154         -0.165442
  20         V                 0.181425         -0.183845
  21         V                 0.184744         -0.174442
  22         V                 0.190485         -0.135249
  23         V                 0.208734         -0.115162
  24         V                 0.223162         -0.049442
 Total kinetic energy from orbitals=-1.654257851900D+01
 Leave Link  601 at Tue Dec 15 16:18:50 2015, MaxMem=    33554432 cpu:         0.0
 (Enter /home/Applications/g09/g09/l701.exe)
 Compute integral first derivatives.
 ... and contract with generalized density number  6.
 Leave Link  701 at Tue Dec 15 16:18:51 2015, MaxMem=    33554432 cpu:         0.0
 (Enter /home/Applications/g09/g09/l702.exe)
 L702 exits ... SP integral derivatives will be done elsewhere.
 Leave Link  702 at Tue Dec 15 16:18:51 2015, MaxMem=    33554432 cpu:         0.0
 (Enter /home/Applications/g09/g09/l703.exe)
 Compute integral first derivatives, UseDBF=F ICtDFT=           0.
 Integral derivatives from FoFJK, PRISM(SPDF).
 Calling FoFJK, ICntrl=  10005127 FMM=F ISym2X=0 I1Cent= 0 IOpClX= 0 NMat=1 NMatS=1 NMatT=0.
 FoFJK:  IHMeth= 8 ICntrl=10005127 DoSepK=F KAlg= 0 I1Cent=   0 FoldK=F
 IRaf=         0 NMat=   1 IRICut=       1 DoRegI=T DoRafI=F ISym2E= 0.
 FoFCou: FMM=F IPFlag=           0 FMFlag=      100000 FMFlg1=         800
         NFxFlg=           0 DoJE=F BraDBF=F KetDBF=F FulRan=T
         wScrn=  0.000000 ICntrl=10005127 IOpCl=  0 I1Cent=           0 NGrid=           0
         NMat0=    1 NMatS0=      1 NMatT0=    0 NMatD0=    1 NMtDS0=    0 NMtDT0=    0
 Symmetry not used in FoFCou.
 Leave Link  703 at Tue Dec 15 16:18:51 2015, MaxMem=    33554432 cpu:         0.0
 (Enter /home/Applications/g09/g09/l716.exe)
 Dipole        =-8.37128983D-02 1.97315827D-01 6.45736569D-02
 ***** Axes restored to original set *****
 -------------------------------------------------------------------
 Center     Atomic                   Forces (Hartrees/Bohr)
 Number     Number              X              Y              Z
 -------------------------------------------------------------------
      1        6           0.066427040   -0.083055709    0.004499784
      2        6          -0.013350001   -0.021056601    0.001080091
      3        8          -0.093042473   -0.008041829   -0.001401115
      4        6          -0.050229533    0.063959677    0.001946726
      5        6           0.060288783    0.060078096   -0.004535924
      6        1           0.015217981   -0.000690141    0.002004594
      7        1           0.005747329   -0.010520824    0.000751256
      8        1           0.001193460    0.001212773   -0.001040625
      9        1           0.007747413   -0.001885442   -0.003304787
 -------------------------------------------------------------------
 Cartesian Forces:  Max     0.093042473 RMS     0.036013641
 Z-matrix is all fixed cartesians, so copy forces.
 Force constants in Cartesian coordinates: 
                1             2             3             4             5 
      1  0.836413D+00
      2 -0.266553D-01  0.943327D+00
      3  0.742572D-02  0.118829D-01  0.225842D+00
      4 -0.420961D+00 -0.101249D+00  0.289798D-03  0.824296D+00
      5 -0.764792D-01 -0.208550D+00  0.463033D-03  0.279797D-01  0.860834D+00
      6  0.678826D-02  0.233706D-02 -0.924282D-01 -0.180408D-01 -0.769124D-02
      7 -0.985739D-02  0.280114D-01  0.896666D-03 -0.265825D+00  0.154943D+00
      8 -0.692672D-02  0.196746D-01  0.353362D-03  0.198526D+00 -0.364833D+00
      9  0.429649D-03 -0.554451D-03  0.709387D-02  0.925655D-02 -0.790117D-02
     10  0.112648D-01 -0.155940D-03  0.998468D-04  0.243800D-01  0.170992D-01
     11  0.360949D-01 -0.503140D-03  0.500894D-03 -0.182801D-01 -0.128365D-01
     12  0.295403D-02 -0.806309D-04 -0.113719D-02 -0.103398D-02 -0.469868D-03
     13 -0.190230D+00  0.593108D-02 -0.912148D-03  0.122839D-01 -0.349526D-01
     14 -0.189334D-01 -0.559233D+00 -0.220346D-01 -0.162352D-03  0.461313D-03
     15 -0.136200D-03 -0.232350D-01 -0.113163D+00 -0.718298D-04  0.198547D-03
     16  0.208267D-01 -0.289561D-03  0.248771D-03  0.114475D-04 -0.207149D-04
     17 -0.225216D-01  0.285023D-03  0.369407D-03 -0.837757D-05  0.151597D-04
     18 -0.329636D-02 -0.127906D-02  0.300590D-01  0.186840D-03 -0.338097D-03
     19  0.000000D+00  0.139114D-05 -0.317694D-04  0.000000D+00  0.000000D+00
     20  0.000000D+00  0.107009D-05 -0.244375D-04  0.000000D+00  0.000000D+00
     21 -0.118334D-03 -0.301534D-03  0.688611D-02  0.424799D-04 -0.885779D-04
     22  0.863463D-02 -0.244714D-01  0.190032D-02 -0.167993D+00 -0.106110D+00
     23 -0.462506D-02  0.131453D-01  0.463271D-03 -0.992153D-01 -0.296632D+00
     24 -0.438256D-04  0.733024D-03  0.241071D-01  0.927752D-02  0.155658D-01
     25 -0.256091D+00  0.118877D+00 -0.991720D-02 -0.619205D-02  0.175404D-01
     26  0.120046D+00 -0.208147D+00  0.802611D-02 -0.759021D-02  0.215408D-01
     27 -0.140029D-01  0.104977D-01 -0.872604D-01  0.934519D-04  0.261602D-03
                6             7             8             9            10 
      6  0.177922D+00
      7  0.680841D-02  0.528093D+00
      8 -0.690604D-02  0.109661D-01  0.706802D+00
      9 -0.420179D-01 -0.495593D-02  0.110110D-01  0.513388D-01
     10  0.230050D-03 -0.285955D+00 -0.208731D+00 -0.264209D-02  0.891300D+00
     11  0.732880D-04 -0.165105D+00 -0.366413D+00 -0.390608D-02 -0.134203D-01
     12 -0.362918D-02 -0.171247D-02 -0.359990D-02 -0.451199D-01  0.425393D-02
     13 -0.278050D-02 -0.890171D-02  0.668386D-02 -0.282635D-03 -0.474696D+00
     14  0.316819D-04 -0.284917D-01  0.213892D-01 -0.338774D-03  0.106203D+00
     15 -0.276700D-02 -0.342547D-03  0.116605D-03  0.922859D-02 -0.137693D-02
     16  0.467115D-03  0.000000D+00  0.000000D+00  0.133034D-04 -0.614422D-02
     17 -0.341846D-03  0.000000D+00  0.000000D+00  0.106503D-03  0.661941D-02
     18  0.762399D-02 -0.340960D-04 -0.452240D-04  0.569719D-02 -0.197510D-03
     19 -0.402127D-04  0.208996D-01 -0.156866D-01  0.678971D-04 -0.160164D+00
     20 -0.265149D-04  0.112600D-01 -0.845134D-02  0.319234D-04  0.923793D-01
     21  0.456132D-02  0.115896D-03 -0.141437D-03  0.438096D-02 -0.288921D-03
     22  0.826659D-02  0.215469D-01  0.151674D-01 -0.182863D-02  0.293248D-05
     23  0.130324D-01 -0.115865D-01 -0.816340D-02  0.126724D-02  0.000000D+00
     24 -0.701400D-01 -0.843935D-03 -0.714050D-03  0.469449D-02  0.415199D-04
     25 -0.169887D-02  0.000000D+00  0.000000D+00 -0.581096D-04  0.115514D-04
     26 -0.508753D-03  0.410241D-05 -0.448607D-05  0.283759D-03  0.512306D-05
     27  0.208747D-01  0.680057D-04 -0.743656D-04  0.470387D-02 -0.119894D-03
               11            12            13            14            15 
     11  0.848331D+00
     12  0.514244D-02  0.187592D+00
     13  0.816720D-01 -0.457663D-02  0.879898D+00
     14 -0.211314D+00 -0.207280D-03  0.391455D-01  0.966254D+00
     15 -0.658239D-03 -0.994582D-01 -0.382468D-03  0.191690D-01  0.241878D+00
     16 -0.196606D-01  0.640037D-03 -0.245218D+00 -0.122358D+00  0.293231D-02
     17  0.211863D-01 -0.225134D-03 -0.126337D+00 -0.230529D+00  0.248389D-02
     18 -0.386366D-03  0.219149D-01  0.572918D-02  0.425494D-02 -0.963907D-01
     19  0.986760D-01 -0.167602D-03  0.775556D-02  0.248255D-01 -0.174234D-04
     20 -0.278462D+00 -0.366752D-03  0.417834D-02  0.133745D-01 -0.369918D-04
     21 -0.373850D-03 -0.715974D-01  0.125792D-03  0.693965D-03  0.259646D-01
     22 -0.611474D-05  0.314879D-03 -0.239447D-05  0.433292D-05 -0.977061D-04
     23 -0.204380D-05  0.105245D-03  0.106503D-04 -0.192723D-04  0.434585D-03
     24 -0.865763D-04  0.445825D-02  0.152541D-03 -0.276031D-03  0.622441D-02
     25  0.294348D-04 -0.672200D-03  0.191102D-01 -0.233321D-03 -0.507207D-03
     26  0.130543D-04 -0.298121D-03  0.236680D-01 -0.383864D-03  0.152763D-02
     27 -0.305509D-03  0.697689D-02  0.292688D-02 -0.129293D-02  0.284830D-01
               16            17            18            19            20 
     16  0.230455D+00
     17  0.142298D+00  0.209065D+00
     18 -0.356120D-02 -0.274076D-02  0.523185D-01
     19  0.000000D+00  0.000000D+00  0.438355D-04  0.131508D+00
     20  0.000000D+00  0.000000D+00  0.337190D-04 -0.107818D+00  0.273536D+00
     21 -0.221868D-04 -0.177620D-03 -0.950149D-02  0.145275D-03  0.389054D-03
     22  0.000000D+00  0.000000D+00  0.000000D+00  0.000000D+00  0.000000D+00
     23  0.000000D+00  0.000000D+00  0.000000D+00  0.000000D+00  0.000000D+00
     24  0.000000D+00  0.000000D+00  0.000000D+00  0.000000D+00  0.000000D+00
     25  0.691919D-04 -0.506363D-04  0.112931D-02  0.000000D+00  0.000000D+00
     26  0.306866D-04 -0.224572D-04  0.500850D-03  0.000000D+00  0.000000D+00
     27 -0.718156D-03  0.525564D-03 -0.117213D-01  0.000000D+00  0.000000D+00
               21            22            23            24            25 
     21  0.393059D-01
     22  0.000000D+00  0.137812D+00
     23  0.000000D+00  0.115408D+00  0.291708D+00
     24  0.000000D+00 -0.868865D-02 -0.147103D-01  0.391412D-01
     25  0.000000D+00 -0.164546D-05  0.731882D-05  0.104825D-03  0.243095D+00
     26  0.000000D+00  0.803507D-05 -0.357390D-04 -0.511878D-03 -0.136172D+00
     27  0.000000D+00  0.133197D-03 -0.592446D-03 -0.848540D-02  0.116194D-01
               26            27 
     26  0.187039D+00
     27 -0.901960D-02  0.464287D-01
 Leave Link  716 at Tue Dec 15 16:18:51 2015, MaxMem=    33554432 cpu:         0.0
 (Enter /home/Applications/g09/g09/l103.exe)

 GradGradGradGradGradGradGradGradGradGradGradGradGradGradGradGradGradGrad
 Berny optimization.
 Search for a local minimum.
 Step number   1 out of a maximum of    2
 All quantities printed in internal units (Hartrees-Bohrs-Radians)
 Second derivative matrix not updated -- first step.
 ITU=  0
     Eigenvalues ---    0.02101   0.03004   0.06938   0.07363   0.07806
     Eigenvalues ---    0.08283   0.13239   0.15498   0.16682   0.23468
     Eigenvalues ---    0.25479   0.29155   0.43194   0.43887   0.61876
     Eigenvalues ---    0.82932   1.07735   1.35135   1.37150   1.53872
     Eigenvalues ---    1.65139
 Quadratic step=4.252D-01 exceeds max=3.000D-01 adjusted using Lamda=-9.708D-02.
 Angle between NR and scaled steps=  11.32 degrees.
 Angle between quadratic step and forces=  36.08 degrees.
 Linear search not attempted -- first point.
 TrRot= -0.014796  0.001493 -0.000146 -0.975335 -0.001173  0.975956
 Variable       Old X    -DE/DX   Delta X   Delta X   Delta X     New X
                                 (Linear)    (Quad)   (Total)
    X1        1.83636   0.06643   0.00000   0.11317   0.09922   1.93558
    Y1       -1.26580  -0.08306   0.00000  -0.07705  -0.07437  -1.34016
    Z1       -0.03989   0.00450   0.00000   0.01603   0.01847  -0.02141
    X2       -0.66215  -0.01335   0.00000  -0.01445  -0.02791  -0.69007
    Y2       -2.14566  -0.02106   0.00000   0.00112   0.00219  -2.14347
    Z2       -0.01768   0.00108   0.00000   0.00779   0.00928  -0.00840
    X3       -2.15531  -0.09304   0.00000  -0.16294  -0.17774  -2.33305
    Y3       -0.01781  -0.00804   0.00000   0.00068   0.00076  -0.01705
    Z3        0.03755  -0.00140   0.00000  -0.00840  -0.01005   0.02750
    X4       -0.60553  -0.05023   0.00000  -0.07019  -0.08633  -0.69185
    Y4        2.04711   0.06396   0.00000   0.04729   0.04843   2.09554
    Z4        0.06322   0.00195   0.00000   0.00453   0.00190   0.06512
    X5        1.87033   0.06029   0.00000   0.07430   0.05865   1.92898
    Y5        1.27365   0.06008   0.00000   0.04391   0.04666   1.32031
    Z5        0.07189  -0.00454   0.00000  -0.01478  -0.01493   0.05697
    X6        3.36350   0.01522   0.00000   0.10862   0.09213   3.45563
    Y6        2.65875  -0.00069   0.00000   0.01690   0.02059   2.67934
    Z6        0.04252   0.00200   0.00000   0.00017  -0.00030   0.04222
    X7       -1.59573   0.00575   0.00000  -0.02226  -0.03953  -1.63526
    Y7        3.88500  -0.01052   0.00000   0.02065   0.02121   3.90621
    Z7        0.06517   0.00075   0.00000   0.01247   0.00746   0.07264
    X8       -1.62810   0.00119   0.00000   0.00091  -0.01149  -1.63959
    Y8       -3.95006   0.00121   0.00000  -0.00149  -0.00092  -3.95098
    Z8        0.09314  -0.00104   0.00000  -0.00804  -0.00541   0.08773
    X9        3.42287   0.00775   0.00000   0.10620   0.09300   3.51587
    Y9       -2.55886  -0.00189   0.00000  -0.06828  -0.06455  -2.62341
    Z9        0.05771  -0.00330   0.00000  -0.01116  -0.00643   0.05128
         Item               Value     Threshold  Converged?
 Maximum Force            0.093042     0.000450     NO 
 RMS     Force            0.036014     0.000300     NO 
 Maximum Displacement     0.177740     0.001800     NO 
 RMS     Displacement     0.057064     0.001200     NO 
 Predicted change in Energy=-2.705943D-02
 GradGradGradGradGradGradGradGradGradGradGradGradGradGradGradGradGradGrad

 Leave Link  103 at Tue Dec 15 16:18:51 2015, MaxMem=    33554432 cpu:         0.0
 (Enter /home/Applications/g09/g09/l9999.exe)
 1\1\GINC-DUSTIN-DESKTOP\Force\RAM1-FC\STO-3G\C4H4O1\DUSTIN\15-Dec-2015
 \0\\#P AM1(Input,print) CIS(Singlets,NStates=15) pop(full) force\\AM1-
 Reparam Input\\0,1\C,0.97176,-0.669831,-0.021108\C,-0.350397,-1.135435
 ,-0.009354\O,-1.140541,-0.009427,0.019871\C,-0.320431,1.083284,0.03345
 3\C,0.989737,0.673987,0.038045\H,1.779887,1.40695,0.022498\H,-0.844425
 ,2.055855,0.034487\H,-0.861553,-2.09028,0.049289\H,1.811304,-1.35409,0
 .030541\\Version=ES64L-G09RevD.01\State=1-A\HF=0.0204008\RMSD=4.290e-0
 9\RMSF=3.601e-02\Dipole=0.214358,0.0087617,0.0639143\PG=C01 [X(C4H4O1)
 ]\\@


 GOORD'S AXIOM:  A MEETING IS AN EVENT AT WHICH
 THE MINUTES ARE KEPT AND THE HOURS ARE LOST.
 Job cpu time:       0 days  0 hours  0 minutes  0.5 seconds.
 File lengths (MBytes):  RWF=      7 Int=      0 D2E=      0 Chk=      2 Scr=      1
 Normal termination of Gaussian 09 at Tue Dec 15 16:18:51 2015.
