 Entering Gaussian System, Link 0=g09
 Input=FuranAM1_37P8.com
 Output=FuranAM1_37P8.log
 Initial command:
 /home/Applications/g09/g09/l1.exe "/home/Applications/g09/scratch/Gau-8802.inp" -scrdir="/home/Applications/g09/scratch/"
 Entering Link 1 = /home/Applications/g09/g09/l1.exe PID=      8807.
  
 Copyright (c) 1988,1990,1992,1993,1995,1998,2003,2009,2013,
            Gaussian, Inc.  All Rights Reserved.
  
 This is part of the Gaussian(R) 09 program.  It is based on
 the Gaussian(R) 03 system (copyright 2003, Gaussian, Inc.),
 the Gaussian(R) 98 system (copyright 1998, Gaussian, Inc.),
 the Gaussian(R) 94 system (copyright 1995, Gaussian, Inc.),
 the Gaussian 92(TM) system (copyright 1992, Gaussian, Inc.),
 the Gaussian 90(TM) system (copyright 1990, Gaussian, Inc.),
 the Gaussian 88(TM) system (copyright 1988, Gaussian, Inc.),
 the Gaussian 86(TM) system (copyright 1986, Carnegie Mellon
 University), and the Gaussian 82(TM) system (copyright 1983,
 Carnegie Mellon University). Gaussian is a federally registered
 trademark of Gaussian, Inc.
  
 This software contains proprietary and confidential information,
 including trade secrets, belonging to Gaussian, Inc.
  
 This software is provided under written license and may be
 used, copied, transmitted, or stored only in accord with that
 written license.
  
 The following legend is applicable only to US Government
 contracts under FAR:
  
                    RESTRICTED RIGHTS LEGEND
  
 Use, reproduction and disclosure by the US Government is
 subject to restrictions as set forth in subparagraphs (a)
 and (c) of the Commercial Computer Software - Restricted
 Rights clause in FAR 52.227-19.
  
 Gaussian, Inc.
 340 Quinnipiac St., Bldg. 40, Wallingford CT 06492
  
  
 ---------------------------------------------------------------
 Warning -- This program may not be used in any manner that
 competes with the business of Gaussian, Inc. or will provide
 assistance to any competitor of Gaussian, Inc.  The licensee
 of this program is prohibited from giving any competitor of
 Gaussian, Inc. access to this program.  By using this program,
 the user acknowledges that Gaussian, Inc. is engaged in the
 business of creating and licensing software in the field of
 computational chemistry and represents and warrants to the
 licensee that it is not a competitor of Gaussian, Inc. and that
 it will not use this program in any manner prohibited above.
 ---------------------------------------------------------------
  

 Cite this work as:
 Gaussian 09, Revision D.01,
 M. J. Frisch, G. W. Trucks, H. B. Schlegel, G. E. Scuseria, 
 M. A. Robb, J. R. Cheeseman, G. Scalmani, V. Barone, B. Mennucci, 
 G. A. Petersson, H. Nakatsuji, M. Caricato, X. Li, H. P. Hratchian, 
 A. F. Izmaylov, J. Bloino, G. Zheng, J. L. Sonnenberg, M. Hada, 
 M. Ehara, K. Toyota, R. Fukuda, J. Hasegawa, M. Ishida, T. Nakajima, 
 Y. Honda, O. Kitao, H. Nakai, T. Vreven, J. A. Montgomery, Jr., 
 J. E. Peralta, F. Ogliaro, M. Bearpark, J. J. Heyd, E. Brothers, 
 K. N. Kudin, V. N. Staroverov, T. Keith, R. Kobayashi, J. Normand, 
 K. Raghavachari, A. Rendell, J. C. Burant, S. S. Iyengar, J. Tomasi, 
 M. Cossi, N. Rega, J. M. Millam, M. Klene, J. E. Knox, J. B. Cross, 
 V. Bakken, C. Adamo, J. Jaramillo, R. Gomperts, R. E. Stratmann, 
 O. Yazyev, A. J. Austin, R. Cammi, C. Pomelli, J. W. Ochterski, 
 R. L. Martin, K. Morokuma, V. G. Zakrzewski, G. A. Voth, 
 P. Salvador, J. J. Dannenberg, S. Dapprich, A. D. Daniels, 
 O. Farkas, J. B. Foresman, J. V. Ortiz, J. Cioslowski, 
 and D. J. Fox, Gaussian, Inc., Wallingford CT, 2013.
 
 ******************************************
 Gaussian 09:  ES64L-G09RevD.01 24-Apr-2013
                15-Dec-2015 
 ******************************************
 ------------------------------------------------------------
 #P AM1(Input,print) CIS(Singlets,NStates=15) pop(full) force
 ------------------------------------------------------------
 1/10=7,30=1,38=1/1,3;
 2/12=2,17=6,18=5,40=1/2;
 3/5=2,16=1,25=1,41=700000,71=1,135=100,136=1/1,2,8,3;
 4/35=1/1;
 5/5=2,35=1,38=5/2;
 8/6=1,10=1,108=15/1;
 9/15=2,41=15,42=1,48=1,49=10/14;
 10/5=4/2;
 6/7=3,18=1/1;
 7/12=6,13=5,29=1/1,2,3,16;
 1/10=7,30=1/3;
 99//99;
 Leave Link    1 at Tue Dec 15 17:06:57 2015, MaxMem=           0 cpu:         0.0
 (Enter /home/Applications/g09/g09/l101.exe)
 -----------------
 AM1-Reparam Input
 -----------------
 Symbolic Z-matrix:
 Charge =  0 Multiplicity = 1
 6                     0.92326  -0.73067   0.00238 
 6                    -0.30982  -1.11768   0.03314 
 8                    -1.1607    0.01579  -0.01931 
 6                    -0.32679   1.13837   0.03041 
 6                     0.91084   0.73168  -0.01908 
 1                     1.7707    1.3396    0.03921 
 1                    -0.81602   1.9975   -0.01547 
 1                    -0.89006  -2.05891  -0.00682 
 1                     1.78427  -1.37189  -0.01179 
 
 NAtoms=      9 NQM=        9 NQMF=       0 NMMI=      0 NMMIF=      0
                NMic=       0 NMicF=      0.
                    Isotopes and Nuclear Properties:
 (Nuclear quadrupole moments (NQMom) in fm**2, nuclear magnetic moments (NMagM)
  in nuclear magnetons)

  Atom         1           2           3           4           5           6           7           8           9
 IAtWgt=          12          12          16          12          12           1           1           1           1
 AtmWgt=  12.0000000  12.0000000  15.9949146  12.0000000  12.0000000   1.0078250   1.0078250   1.0078250   1.0078250
 NucSpn=           0           0           0           0           0           1           1           1           1
 AtZEff=   0.0000000   0.0000000   0.0000000   0.0000000   0.0000000   0.0000000   0.0000000   0.0000000   0.0000000
 NQMom=    0.0000000   0.0000000   0.0000000   0.0000000   0.0000000   0.0000000   0.0000000   0.0000000   0.0000000
 NMagM=    0.0000000   0.0000000   0.0000000   0.0000000   0.0000000   2.7928460   2.7928460   2.7928460   2.7928460
 AtZNuc=   6.0000000   6.0000000   8.0000000   6.0000000   6.0000000   1.0000000   1.0000000   1.0000000   1.0000000
 Leave Link  101 at Tue Dec 15 17:06:57 2015, MaxMem=    33554432 cpu:         0.1
 (Enter /home/Applications/g09/g09/l103.exe)

 GradGradGradGradGradGradGradGradGradGradGradGradGradGradGradGradGradGrad
 Berny optimization.
 Initialization pass.
 Trust Radius=3.00D-01 FncErr=1.00D-07 GrdErr=1.00D-07
 Number of steps in this run=      2 maximum allowed number of steps=      2.
 GradGradGradGradGradGradGradGradGradGradGradGradGradGradGradGradGradGrad

 Leave Link  103 at Tue Dec 15 17:06:57 2015, MaxMem=    33554432 cpu:         0.0
 (Enter /home/Applications/g09/g09/l202.exe)
                          Input orientation:                          
 ---------------------------------------------------------------------
 Center     Atomic      Atomic             Coordinates (Angstroms)
 Number     Number       Type             X           Y           Z
 ---------------------------------------------------------------------
      1          6           0        0.923262   -0.730666    0.002384
      2          6           0       -0.309824   -1.117680    0.033144
      3          8           0       -1.160702    0.015787   -0.019313
      4          6           0       -0.326792    1.138374    0.030407
      5          6           0        0.910840    0.731680   -0.019081
      6          1           0        1.770703    1.339596    0.039209
      7          1           0       -0.816023    1.997503   -0.015466
      8          1           0       -0.890059   -2.058909   -0.006823
      9          1           0        1.784266   -1.371894   -0.011794
 ---------------------------------------------------------------------
                    Distance matrix (angstroms):
                    1          2          3          4          5
     1  C    0.000000
     2  C    1.292759   0.000000
     3  O    2.213723   1.418271   0.000000
     4  C    2.248718   2.256119   1.399314   0.000000
     5  C    1.462556   2.216502   2.191755   1.303680   0.000000
     6  H    2.237297   3.219757   3.216991   2.107143   1.054668
     7  H    3.235481   3.156417   2.011471   0.989724   2.141116
     8  H    2.247765   1.106428   2.092311   3.246733   3.321261
     9  H    1.073640   2.109942   3.255542   3.280212   2.277707
                    6          7          8          9
     6  H    0.000000
     7  H    2.669641   0.000000
     8  H    4.316435   4.057097   0.000000
     9  H    2.712004   4.256096   2.761164   0.000000
 Stoichiometry    C4H4O
 Framework group  C1[X(C4H4O)]
 Deg. of freedom    21
 Full point group                 C1      NOp   1
 Largest Abelian subgroup         C1      NOp   1
 Largest concise Abelian subgroup C1      NOp   1
                         Standard orientation:                         
 ---------------------------------------------------------------------
 Center     Atomic      Atomic             Coordinates (Angstroms)
 Number     Number       Type             X           Y           Z
 ---------------------------------------------------------------------
      1          6           0        0.788970    0.885096   -0.003663
      2          6           0        1.102359   -0.368707    0.027840
      3          8           0       -0.079589   -1.151040   -0.021614
      4          6           0       -1.150744   -0.252078    0.029135
      5          6           0       -0.671583    0.959252   -0.022512
      6          1           0       -1.227418    1.853659    0.035861
      7          1           0       -2.037413   -0.689635   -0.014642
      8          1           0        2.007510   -1.003691   -0.013128
      9          1           0        1.480020    1.706611   -0.019980
 ---------------------------------------------------------------------
 Rotational constants (GHZ):      9.7428206      9.1066010      4.7100700
 Leave Link  202 at Tue Dec 15 17:06:57 2015, MaxMem=    33554432 cpu:         0.0
 (Enter /home/Applications/g09/g09/l301.exe)

 Semi-emprical parameters in input format:
 Method=8 CoreType=1 PeptideFC=0.0106250000 RIJScale=0.5404210000
 ****
 H       
 PQN=1 NValence=1 F0ss=0.4721550000 ZetaOverlap=1.0856700000 U=-0.4186260000
 Beta=-0.2268830000 CoreKO=1.0354420000 KON=0,0,0,1.0458670000 KON=1,0,1,0.9802520000
 KON=0,1,1,1.0589200000 KON=2,1,1,1.0697690000 EISol=-0.4188110042 EHeat=0.0830298228
 Alpha=1.4609850000
 GCore=0.0085280000,1.5127750000,2.2676710000
 GCore=0.0003530000,1.4551640000,3.4779940000
 GCore=-0.0013010000,0.5600570000,3.8358530000
 ****
 C       
 PQN=2,2 NValence=4 F0ss=0.4494440000 F0sp=0.4261420000 F0pp=0.3497590000 F2pp=0.1898720000
 G1sp=0.2701540000
 ZetaOverlap=1.8086650000,1.3781170000
 U=-1.8586070000,-1.4557970000
 Beta=-0.5453250000,-0.3063130000 DDN=0,1,0.7859360000 DDN=1,1,0.7268010000
 CoreKO=1.1356210000 KON=0,0,0,1.1124280000 KON=1,0,1,0.8998210000 KON=0,1,1,1.1012040000
 KON=2,1,1,0.7783930000 EISol=-4.4398989268 EHeat=0.2723305520 Alpha=1.2756240000
 DipHyp=1.5717815688
 GCore=0.0007890000,1.4001430000,2.6678360000
 GCore=0.0035050000,1.4001430000,3.3106540000
 GCore=-0.0015090000,1.3017660000,3.8739390000
 GCore=-0.0001030000,1.4001430000,4.6088130000
 ****
 O       
 PQN=2,2 NValence=6 F0ss=0.5666750000 F0sp=0.5321300000 F0pp=0.4958710000 F2pp=0.2358080000
 G1sp=0.4216980000
 ZetaOverlap=2.6354490000,2.5240390000
 U=-3.5951870000,-2.0345890000
 Beta=-1.1573400000,-1.2994290000 DDN=0,1,0.4953610000 DDN=1,1,0.5082060000
 CoreKO=0.8822960000 KON=0,0,0,0.8891460000 KON=1,0,1,0.5019540000 KON=0,1,1,0.8682050000
 KON=2,1,1,0.5515580000 EISol=-11.6164441184 EHeat=0.0949133088 Alpha=2.3583550000
 DipHyp=0.9906650029
 GCore=0.0204720000,1.2640290000,1.6023330000
 GCore=0.0056550000,1.9602000000,2.7307880000
 ****
 
 Standard basis: VSTO-6G (5D, 7F)
 Ernie: Thresh=  0.10000D-02 Tol=  0.10000D-05 Strict=F.
  NNHCO=     0 NNPyr=     0 NCTC=     0               EPep=         0.000000000
    EC=        68.597141862  ECS=         2.529357270   EG=         0.367765120
   EHC=         0.000000000  EAt=       -31.051283842  AtH=         1.516354808
 EPDDG=         0.000000000  ECC=        71.494264252 EAtT=        32.567638650
 There are    24 symmetry adapted cartesian basis functions of A   symmetry.
 There are    24 symmetry adapted basis functions of A   symmetry.
    24 basis functions,   144 primitive gaussians,    24 cartesian basis functions
    13 alpha electrons       13 beta electrons
       nuclear repulsion energy       104.0619029021 Hartrees.
 IExCor=    0 DFT=F Ex=HF Corr=None ExCW=0 ScaHFX=  1.000000
 ScaDFX=  1.000000  1.000000  1.000000  1.000000 ScalE2=  1.000000  1.000000
 IRadAn=      0 IRanWt=     -1 IRanGd=            0 ICorTp=0 IEmpDi=  4
 Integral buffers will be    131072 words long.
 Regular integral format.
 Two-electron integral symmetry is turned off.
 Leave Link  301 at Tue Dec 15 17:06:57 2015, MaxMem=    33554432 cpu:         0.0
 (Enter /home/Applications/g09/g09/l302.exe)
 Do NDO integrals.
 NPDir=0 NMtPBC=     1 NCelOv=     1 NCel=       1 NClECP=     1 NCelD=      1
         NCelK=      1 NCelE2=     1 NClLst=     1 CellRange=     0.0.
 One-electron integrals computed using PRISM.
 NBasis=    24 RedAO= F EigKep=  0.00D+00  NBF=    24
 NBsUse=    24 1.00D-04 EigRej=  0.00D+00 NBFU=    24
 Leave Link  302 at Tue Dec 15 17:06:57 2015, MaxMem=    33554432 cpu:         0.0
 (Enter /home/Applications/g09/g09/l308.exe)
 Leave Link  308 at Tue Dec 15 17:06:57 2015, MaxMem=    33554432 cpu:         0.0
 (Enter /home/Applications/g09/g09/l303.exe)
 DipDrv:  MaxL=1.
 Leave Link  303 at Tue Dec 15 17:06:57 2015, MaxMem=    33554432 cpu:         0.0
 (Enter /home/Applications/g09/g09/l401.exe)
 Simple Huckel Guess.
 JPrj=0 DoOrth=F DoCkMO=F.
 Leave Link  401 at Tue Dec 15 17:06:57 2015, MaxMem=    33554432 cpu:         0.0
 (Enter /home/Applications/g09/g09/l502.exe)
 Closed shell SCF:
 Using DIIS extrapolation, IDIIS=  1040.
 Overlap will be assumed to be unity.
 Two-electron integral symmetry not used.
 Keep J ints in memory in canonical form, NReq=888082.
 IVT=       79475 IEndB=       79475 NGot=    33554432 MDV=    33473473
 LenX=    33473473 LenY=    33472456
 Requested convergence on RMS density matrix=1.00D-08 within 128 cycles.
 Requested convergence on MAX density matrix=1.00D-06.
 Requested convergence on             energy=1.00D-06.
 No special actions if energy rises.
 FoFCou: FMM=F IPFlag=           0 FMFlag=           0 FMFlg1=           0
         NFxFlg=           0 DoJE=F BraDBF=F KetDBF=F FulRan=T
         wScrn=  0.000000 ICntrl=     600 IOpCl=  2 I1Cent=           0 NGrid=           0
         NMat0=    1 NMatS0=     54 NMatT0=    0 NMatD0=    1 NMtDS0=    0 NMtDT0=    0
 Symmetry not used in FoFCou.

 Cycle   1  Pass 1  IDiag  1:
 E=  4.16921136295288    
 DIIS: error= 1.20D-01 at cycle   1 NSaved=   1.
 NSaved= 1 IEnMin= 1 EnMin=  4.16921136295288     IErMin= 1 ErrMin= 1.20D-01
 ErrMax= 1.20D-01  0.00D+00 EMaxC= 1.00D-01 BMatC= 4.89D-01 BMatP= 4.89D-01
 IDIUse=3 WtCom= 0.00D+00 WtEn= 1.00D+00
 Coeff-Com:  0.100D+01
 Coeff-En:   0.100D+01
 Coeff:      0.100D+01
 GapD=    2.000 DampG=2.000 DampE=0.250 DampFc=0.5000 IDamp=-1.
 Damping current iteration by 5.00D-01
 RMSDP=6.86D-02 MaxDP=7.63D-01              OVMax= 0.00D+00

 Cycle   2  Pass 1  IDiag  1:
 E=  3.10467110223510     Delta-E=       -1.064540260718 Rises=F Damp=T
 DIIS: error= 6.85D-02 at cycle   2 NSaved=   2.
 NSaved= 2 IEnMin= 2 EnMin=  3.10467110223510     IErMin= 2 ErrMin= 6.85D-02
 ErrMax= 6.85D-02  0.00D+00 EMaxC= 1.00D-01 BMatC= 1.57D-01 BMatP= 4.89D-01
 IDIUse=3 WtCom= 3.15D-01 WtEn= 6.85D-01
 Coeff-Com: -0.106D+01 0.206D+01
 Coeff-En:   0.000D+00 0.100D+01
 Coeff:     -0.334D+00 0.133D+01
 RMSDP=3.74D-02 MaxDP=3.77D-01 DE=-1.06D+00 OVMax= 0.00D+00

 Cycle   3  Pass 1  IDiag  1:
 E=  1.83442916118884     Delta-E=       -1.270241941046 Rises=F Damp=F
 DIIS: error= 1.39D-02 at cycle   3 NSaved=   3.
 NSaved= 3 IEnMin= 3 EnMin=  1.83442916118884     IErMin= 3 ErrMin= 1.39D-02
 ErrMax= 1.39D-02  0.00D+00 EMaxC= 1.00D-01 BMatC= 8.77D-03 BMatP= 1.57D-01
 IDIUse=3 WtCom= 8.61D-01 WtEn= 1.39D-01
 Coeff-Com:  0.284D+00-0.619D+00 0.133D+01
 Coeff-En:   0.000D+00 0.000D+00 0.100D+01
 Coeff:      0.245D+00-0.533D+00 0.129D+01
 RMSDP=8.92D-03 MaxDP=4.50D-02 DE=-1.27D+00 OVMax= 0.00D+00

 Cycle   4  Pass 1  IDiag  3:
 E=  1.79917146505588     Delta-E=       -0.035257696133 Rises=F Damp=F
 DIIS: error= 4.06D-03 at cycle   4 NSaved=   4.
 NSaved= 4 IEnMin= 4 EnMin=  1.79917146505588     IErMin= 4 ErrMin= 4.06D-03
 ErrMax= 4.06D-03  0.00D+00 EMaxC= 1.00D-01 BMatC= 8.35D-04 BMatP= 8.77D-03
 IDIUse=3 WtCom= 9.59D-01 WtEn= 4.06D-02
 Coeff-Com: -0.539D-01 0.945D-01-0.413D+00 0.137D+01
 Coeff-En:   0.000D+00 0.000D+00 0.000D+00 0.100D+01
 Coeff:     -0.517D-01 0.907D-01-0.396D+00 0.136D+01
 Gap=     0.386 Goal=   None    Shift=    0.000
 RMSDP=3.59D-03 MaxDP=1.85D-02 DE=-3.53D-02 OVMax= 4.01D-02

 Cycle   5  Pass 1  IDiag  3:
 E=  1.79517594038759     Delta-E=       -0.003995524668 Rises=F Damp=F
 DIIS: error= 1.19D-03 at cycle   5 NSaved=   5.
 NSaved= 5 IEnMin= 5 EnMin=  1.79517594038759     IErMin= 5 ErrMin= 1.19D-03
 ErrMax= 1.19D-03  0.00D+00 EMaxC= 1.00D-01 BMatC= 4.30D-05 BMatP= 8.35D-04
 IDIUse=3 WtCom= 9.88D-01 WtEn= 1.19D-02
 Coeff-Com:  0.137D-01-0.228D-01 0.145D+00-0.644D+00 0.151D+01
 Coeff-En:   0.000D+00 0.000D+00 0.000D+00 0.000D+00 0.100D+01
 Coeff:      0.136D-01-0.225D-01 0.143D+00-0.636D+00 0.150D+01
 Gap=     0.386 Goal=   None    Shift=    0.000
 RMSDP=9.25D-04 MaxDP=4.65D-03 DE=-4.00D-03 OVMax= 7.58D-03

 Cycle   6  Pass 1  IDiag  3:
 E=  1.79494757243954     Delta-E=       -0.000228367948 Rises=F Damp=F
 DIIS: error= 2.17D-04 at cycle   6 NSaved=   6.
 NSaved= 6 IEnMin= 6 EnMin=  1.79494757243954     IErMin= 6 ErrMin= 2.17D-04
 ErrMax= 2.17D-04  0.00D+00 EMaxC= 1.00D-01 BMatC= 1.73D-06 BMatP= 4.30D-05
 IDIUse=3 WtCom= 9.98D-01 WtEn= 2.17D-03
 Coeff-Com: -0.718D-03 0.145D-02-0.390D-01 0.195D+00-0.611D+00 0.145D+01
 Coeff-En:   0.000D+00 0.000D+00 0.000D+00 0.000D+00 0.000D+00 0.100D+01
 Coeff:     -0.716D-03 0.145D-02-0.389D-01 0.194D+00-0.610D+00 0.145D+01
 Gap=     0.387 Goal=   None    Shift=    0.000
 RMSDP=1.83D-04 MaxDP=1.11D-03 DE=-2.28D-04 OVMax= 1.07D-03

 Cycle   7  Pass 1  IDiag  3:
 E=  1.79493931991529     Delta-E=       -0.000008252524 Rises=F Damp=F
 DIIS: error= 2.70D-05 at cycle   7 NSaved=   7.
 NSaved= 7 IEnMin= 7 EnMin=  1.79493931991529     IErMin= 7 ErrMin= 2.70D-05
 ErrMax= 2.70D-05  0.00D+00 EMaxC= 1.00D-01 BMatC= 3.74D-08 BMatP= 1.73D-06
 IDIUse=1 WtCom= 1.00D+00 WtEn= 0.00D+00
 Coeff-Com:  0.155D-04-0.292D-04 0.127D-01-0.681D-01 0.229D+00-0.616D+00
 Coeff-Com:  0.144D+01
 Coeff:      0.155D-04-0.292D-04 0.127D-01-0.681D-01 0.229D+00-0.616D+00
 Coeff:      0.144D+01
 Gap=     0.387 Goal=   None    Shift=    0.000
 RMSDP=2.39D-05 MaxDP=1.46D-04 DE=-8.25D-06 OVMax= 1.63D-04

 Cycle   8  Pass 1  IDiag  3:
 E=  1.79493915012813     Delta-E=       -0.000000169787 Rises=F Damp=F
 DIIS: error= 5.92D-06 at cycle   8 NSaved=   8.
 NSaved= 8 IEnMin= 8 EnMin=  1.79493915012813     IErMin= 8 ErrMin= 5.92D-06
 ErrMax= 5.92D-06  0.00D+00 EMaxC= 1.00D-01 BMatC= 1.22D-09 BMatP= 3.74D-08
 IDIUse=1 WtCom= 1.00D+00 WtEn= 0.00D+00
 Coeff-Com:  0.313D-05-0.336D-04-0.122D-02 0.786D-02-0.312D-01 0.929D-01
 Coeff-Com: -0.331D+00 0.126D+01
 Coeff:      0.313D-05-0.336D-04-0.122D-02 0.786D-02-0.312D-01 0.929D-01
 Coeff:     -0.331D+00 0.126D+01
 Gap=     0.387 Goal=   None    Shift=    0.000
 RMSDP=4.43D-06 MaxDP=2.95D-05 DE=-1.70D-07 OVMax= 3.22D-05

 Cycle   9  Pass 1  IDiag  3:
 E=  1.79493914429594     Delta-E=       -0.000000005832 Rises=F Damp=F
 DIIS: error= 1.56D-06 at cycle   9 NSaved=   9.
 NSaved= 9 IEnMin= 9 EnMin=  1.79493914429594     IErMin= 9 ErrMin= 1.56D-06
 ErrMax= 1.56D-06  0.00D+00 EMaxC= 1.00D-01 BMatC= 7.19D-11 BMatP= 1.22D-09
 IDIUse=1 WtCom= 1.00D+00 WtEn= 0.00D+00
 Coeff-Com:  0.535D-05-0.243D-05 0.181D-03-0.135D-02 0.603D-02-0.183D-01
 Coeff-Com:  0.772D-01-0.462D+00 0.140D+01
 Coeff:      0.535D-05-0.243D-05 0.181D-03-0.135D-02 0.603D-02-0.183D-01
 Coeff:      0.772D-01-0.462D+00 0.140D+01
 Gap=     0.387 Goal=   None    Shift=    0.000
 RMSDP=1.27D-06 MaxDP=1.04D-05 DE=-5.83D-09 OVMax= 1.27D-05

 Cycle  10  Pass 1  IDiag  3:
 E=  1.79493914386869     Delta-E=       -0.000000000427 Rises=F Damp=F
 DIIS: error= 4.30D-07 at cycle  10 NSaved=  10.
 NSaved=10 IEnMin=10 EnMin=  1.79493914386869     IErMin=10 ErrMin= 4.30D-07
 ErrMax= 4.30D-07  0.00D+00 EMaxC= 1.00D-01 BMatC= 6.19D-12 BMatP= 7.19D-11
 IDIUse=1 WtCom= 1.00D+00 WtEn= 0.00D+00
 Coeff-Com:  0.934D-06-0.361D-05-0.147D-04 0.243D-03-0.146D-02 0.473D-02
 Coeff-Com: -0.265D-01 0.203D+00-0.823D+00 0.164D+01
 Coeff:      0.934D-06-0.361D-05-0.147D-04 0.243D-03-0.146D-02 0.473D-02
 Coeff:     -0.265D-01 0.203D+00-0.823D+00 0.164D+01
 Gap=     0.387 Goal=   None    Shift=    0.000
 RMSDP=4.74D-07 MaxDP=4.51D-06 DE=-4.27D-10 OVMax= 5.18D-06

 Cycle  11  Pass 1  IDiag  3:
 E=  1.79493914382478     Delta-E=       -0.000000000044 Rises=F Damp=F
 DIIS: error= 1.16D-07 at cycle  11 NSaved=  11.
 NSaved=11 IEnMin=11 EnMin=  1.79493914382478     IErMin=11 ErrMin= 1.16D-07
 ErrMax= 1.16D-07  0.00D+00 EMaxC= 1.00D-01 BMatC= 3.35D-13 BMatP= 6.19D-12
 IDIUse=1 WtCom= 1.00D+00 WtEn= 0.00D+00
 Coeff-Com: -0.980D-06 0.207D-05 0.266D-05-0.661D-04 0.416D-03-0.132D-02
 Coeff-Com:  0.855D-02-0.713D-01 0.313D+00-0.807D+00 0.156D+01
 Coeff:     -0.980D-06 0.207D-05 0.266D-05-0.661D-04 0.416D-03-0.132D-02
 Coeff:      0.855D-02-0.713D-01 0.313D+00-0.807D+00 0.156D+01
 Gap=     0.387 Goal=   None    Shift=    0.000
 RMSDP=1.09D-07 MaxDP=9.65D-07 DE=-4.39D-11 OVMax= 1.12D-06

 Cycle  12  Pass 1  IDiag  3:
 E=  1.79493914382263     Delta-E=       -0.000000000002 Rises=F Damp=F
 DIIS: error= 1.62D-08 at cycle  12 NSaved=  12.
 NSaved=12 IEnMin=12 EnMin=  1.79493914382263     IErMin=12 ErrMin= 1.62D-08
 ErrMax= 1.62D-08  0.00D+00 EMaxC= 1.00D-01 BMatC= 1.09D-14 BMatP= 3.35D-13
 IDIUse=1 WtCom= 1.00D+00 WtEn= 0.00D+00
 Coeff-Com:  0.879D-07-0.188D-06-0.514D-07 0.120D-04-0.869D-04 0.269D-03
 Coeff-Com: -0.226D-02 0.214D-01-0.964D-01 0.265D+00-0.630D+00 0.144D+01
 Coeff:      0.879D-07-0.188D-06-0.514D-07 0.120D-04-0.869D-04 0.269D-03
 Coeff:     -0.226D-02 0.214D-01-0.964D-01 0.265D+00-0.630D+00 0.144D+01
 Gap=     0.387 Goal=   None    Shift=    0.000
 RMSDP=1.48D-08 MaxDP=1.05D-07 DE=-2.15D-12 OVMax= 1.06D-07

 Cycle  13  Pass 1  IDiag  3:
 E=  1.79493914382259     Delta-E=        0.000000000000 Rises=F Damp=F
 DIIS: error= 3.46D-09 at cycle  13 NSaved=  13.
 NSaved=13 IEnMin=13 EnMin=  1.79493914382259     IErMin=13 ErrMin= 3.46D-09
 ErrMax= 3.46D-09  0.00D+00 EMaxC= 1.00D-01 BMatC= 5.16D-16 BMatP= 1.09D-14
 IDIUse=1 WtCom= 1.00D+00 WtEn= 0.00D+00
 Coeff-Com:  0.117D-07-0.120D-07 0.554D-06-0.666D-05 0.375D-04-0.109D-03
 Coeff-Com:  0.842D-03-0.779D-02 0.347D-01-0.965D-01 0.239D+00-0.682D+00
 Coeff-Com:  0.151D+01
 Coeff:      0.117D-07-0.120D-07 0.554D-06-0.666D-05 0.375D-04-0.109D-03
 Coeff:      0.842D-03-0.779D-02 0.347D-01-0.965D-01 0.239D+00-0.682D+00
 Coeff:      0.151D+01
 Gap=     0.387 Goal=   None    Shift=    0.000
 RMSDP=3.48D-09 MaxDP=2.02D-08 DE=-4.26D-14 OVMax= 3.24D-08

 Cycle  14  Pass 2  IDiag  1:
 SCF Done:  E(RAM1) =   1.79493914382     A.U. after   14 cycles
            NFock= 13  Conv=0.35D-08     -V/T= 1.1140
 KE=-1.575177191631D+01 PE=-1.694207608791D+02 EE= 8.290556903712D+01
 Leave Link  502 at Tue Dec 15 17:06:57 2015, MaxMem=    33554432 cpu:         0.0
 (Enter /home/Applications/g09/g09/l801.exe)
 Range of M.O.s used for correlation:     1    24
 NBasis=    24 NAE=    13 NBE=    13 NFC=     0 NFV=     0
 NROrb=     24 NOA=    13 NOB=    13 NVA=    11 NVB=    11
 Leave Link  801 at Tue Dec 15 17:06:57 2015, MaxMem=    33554432 cpu:         0.0
 (Enter /home/Applications/g09/g09/l914.exe)
 RHF ground state
 MDV=    33554432 DFT=F DoStab=F Mixed=F DoRPA=F DoScal=F NonHer=F
 Making orbital integer symmetry assigments:
 Orbital symmetries:
       Occupied  (A) (A) (A) (A) (A) (A) (A) (A) (A) (A) (A) (A)
                 (A)
       Virtual   (A) (A) (A) (A) (A) (A) (A) (A) (A) (A) (A)
    60 initial guesses have been made.
 Convergence on wavefunction:    0.000001000000000
 Davidson Disk Diagonalization:  ConvIn= 1.00D-06 SkipCon=T Conv= 1.00D-06.
 Max sub-space:   240 roots to seek:    60 dimension of matrix:          286
 Iteration     1 Dimension    60 NMult     0 NNew     60
 CISAX will form    60 AO SS matrices at one time.
 NMat=    60 NSing=    60 JSym2X= 0.
 FoFJK:  IHMeth= 8 ICntrl=       0 DoSepK=F KAlg= 0 I1Cent=   0 FoldK=F
 IRaf=         1 NMat= 120 IRICut=       1 DoRegI=T DoRafI=F ISym2E= 0.
 FoFCou: FMM=F IPFlag=           0 FMFlag=      100000 FMFlg1=           0
         NFxFlg=           0 DoJE=F BraDBF=F KetDBF=F FulRan=T
         wScrn=  0.000000 ICntrl=       0 IOpCl=  0 I1Cent=           0 NGrid=           0
         NMat0=  120 NMatS0=     60 NMatT0=    0 NMatD0=  120 NMtDS0=    0 NMtDT0=    0
 Symmetry not used in FoFCou.
 New state      4 was old state      5
 New state      5 was old state      7
 New state      6 was old state      4
 New state      7 was old state      8
 New state      8 was old state     11
 New state      9 was old state      6
 New state     10 was old state      9
 New state     11 was old state     10
 New state     13 was old state     14
 New state     14 was old state     15
 New state     15 was old state     13
 Excitation Energies [eV] at current iteration:
 Root      1 :     5.105523650017772
 Root      2 :     5.840003606182098
 Root      3 :     6.193744987156959
 Root      4 :     6.846243582338245
 Root      5 :     7.046459076982787
 Root      6 :     7.429960903541907
 Root      7 :     8.106469448714773
 Root      8 :     8.116867844805437
 Root      9 :     8.423244271319376
 Root     10 :     8.818472610609408
 Root     11 :     8.833179627939352
 Root     12 :     9.348535878024979
 Root     13 :     9.835758766303423
 Root     14 :     9.985659918318303
 Root     15 :     9.998309334679927
 Root     16 :    10.028567959900420
 Root     17 :    10.390770259678200
 Root     18 :    10.497460489880240
 Root     19 :    10.662672452290980
 Root     20 :    10.831249145579880
 Root     21 :    10.865137651900530
 Root     22 :    11.080870957422360
 Root     23 :    11.230508012914430
 Root     24 :    11.485512239350320
 Root     25 :    11.654635351487700
 Root     26 :    11.702502496626880
 Root     27 :    11.946899762885260
 Root     28 :    12.124708423289610
 Root     29 :    12.180219947211790
 Root     30 :    12.295687142831450
 Root     31 :    12.673884810324170
 Root     32 :    12.869517907930660
 Root     33 :    13.014073924125030
 Root     34 :    13.051738781269390
 Root     35 :    13.077003200520600
 Root     36 :    13.106055979500310
 Root     37 :    13.179541130451050
 Root     38 :    13.316614792317250
 Root     39 :    13.498733287532950
 Root     40 :    13.706302443190140
 Root     41 :    13.969562519747870
 Root     42 :    14.010420728467380
 Root     43 :    14.158087926604620
 Root     44 :    14.307518900296510
 Root     45 :    14.569591045454720
 Root     46 :    14.850790843382620
 Root     47 :    15.030052466301840
 Root     48 :    15.379326926183300
 Root     49 :    15.385677582189260
 Root     50 :    15.422187147691960
 Root     51 :    15.579141650646170
 Root     52 :    16.001412046744130
 Root     53 :    16.145552618932140
 Root     54 :    16.227702532908820
 Root     55 :    16.334410789828670
 Root     56 :    16.346728599929960
 Root     57 :    16.372033012026930
 Root     58 :    16.714375810251280
 Root     59 :    17.403286140757410
 Root     60 :    17.604706919882080
 Iteration     2 Dimension   120 NMult    60 NNew     60
 CISAX will form    60 AO SS matrices at one time.
 NMat=    60 NSing=    60 JSym2X= 0.
 Root      1 not converged, maximum delta is    0.023483124037430
 Root      2 not converged, maximum delta is    0.017541962455000
 Root      3 not converged, maximum delta is    0.020435613804011
 Root      4 not converged, maximum delta is    0.023010173958959
 Root      5 not converged, maximum delta is    0.027603443427677
 Root      6 not converged, maximum delta is    0.025276789241639
 Root      7 not converged, maximum delta is    0.034086941753694
 Root      8 not converged, maximum delta is    0.032115975273265
 Root      9 not converged, maximum delta is    0.034765644449576
 Root     10 not converged, maximum delta is    0.332136521190958
 Root     11 not converged, maximum delta is    0.288948848180813
 Root     12 not converged, maximum delta is    0.067963901928163
 Root     13 not converged, maximum delta is    0.084967423672043
 New state     14 was old state     16
 Root     14 not converged, maximum delta is    0.419404274380940
 Root     15 not converged, maximum delta is    0.322599749723577
 Excitation Energies [eV] at current iteration:
 Root      1 :     5.030977095082774   Change is   -0.074546554934999
 Root      2 :     5.820306059938866   Change is   -0.019697546243232
 Root      3 :     6.163928675468117   Change is   -0.029816311688842
 Root      4 :     6.815224107607781   Change is   -0.031019474730464
 Root      5 :     7.009345258825237   Change is   -0.037113818157551
 Root      6 :     7.398782862353477   Change is   -0.031178041188430
 Root      7 :     8.094237525908166   Change is   -0.012231922806606
 Root      8 :     8.100681635492725   Change is   -0.016186209312714
 Root      9 :     8.357781985748112   Change is   -0.065462285571265
 Root     10 :     8.749587131942564   Change is   -0.068885478666845
 Root     11 :     8.776112503193524   Change is   -0.057067124745827
 Root     12 :     9.121296777743297   Change is   -0.227239100281683
 Root     13 :     9.692887133585128   Change is   -0.142871632718294
 Root     14 :     9.909699438975563   Change is   -0.118868520924855
 Root     15 :     9.933242250033841   Change is   -0.065067084646086
 Root     16 :     9.960626003071260   Change is   -0.025033915247043
 Root     17 :    10.213810216549990   Change is   -0.283650273330249
 Root     18 :    10.323242988326570   Change is   -0.339429463964409
 Root     19 :    10.352710052438800   Change is   -0.038060207239397
 Root     20 :    10.514127355844420   Change is   -0.317121789735451
 Root     21 :    10.757581219837780   Change is   -0.323289737584576
 Root     22 :    10.780780252998580   Change is   -0.084357398901946
 Root     23 :    11.080952748528960   Change is   -0.149555264385467
 Root     24 :    11.353305791259810   Change is   -0.132206448090510
 Root     25 :    11.550581549427480   Change is   -0.104053802060218
 Root     26 :    11.577814126699000   Change is   -0.124688369927886
 Root     27 :    11.856748002491280   Change is   -0.090151760393975
 Root     28 :    11.874962783056210   Change is   -0.249745640233405
 Root     29 :    11.942661650130490   Change is   -0.237558297081301
 Root     30 :    12.100207039317110   Change is   -0.195480103514342
 Root     31 :    12.352263015033220   Change is   -0.321621795290956
 Root     32 :    12.706071764411590   Change is   -0.163446143519070
 Root     33 :    12.768205101163620   Change is   -0.283533680105773
 Root     34 :    12.824702103138410   Change is   -0.189371820986618
 Root     35 :    12.912248817566590   Change is   -0.193807161933718
 Root     36 :    12.934887238068000   Change is   -0.142115962452598
 Root     37 :    13.046746690316270   Change is   -0.132794440134779
 Root     38 :    13.129911534155590   Change is   -0.186703258161660
 Root     39 :    13.266668244321420   Change is   -0.232065043211532
 Root     40 :    13.570965604983700   Change is   -0.135336838206443
 Root     41 :    13.620764006579340   Change is   -0.389656721888035
 Root     42 :    13.767045717057560   Change is   -0.202516802690305
 Root     43 :    14.008051004217170   Change is   -0.150036922387455
 Root     44 :    14.263487158194430   Change is   -0.044031742102074
 Root     45 :    14.417513416574220   Change is   -0.152077628880502
 Root     46 :    14.694692569228540   Change is   -0.156098274154071
 Root     47 :    14.863712062648270   Change is   -0.166340403653567
 Root     48 :    15.096749039958020   Change is   -0.325438107733943
 Root     49 :    15.149742909587860   Change is   -0.235934672601394
 Root     50 :    15.214438282663400   Change is   -0.164888643519900
 Root     51 :    15.360186113137010   Change is   -0.218955537509163
 Root     52 :    15.551103371563380   Change is   -1.163272438687905
 Root     53 :    15.909730400499480   Change is   -0.091681646244645
 Root     54 :    16.010828062786050   Change is   -0.134724556146089
 Root     55 :    16.080482719147000   Change is   -0.147219813761821
 Root     56 :    16.135985729686190   Change is   -0.198425060142476
 Root     57 :    16.209957267432700   Change is   -0.136771332497258
 Root     58 :    16.228420114295560   Change is   -0.143612897731374
 Root     59 :    16.333475506249320   Change is   -1.069810634508085
 Root     60 :    16.620170801382120
 Iteration     3 Dimension   135 NMult   120 NNew     15
 CISAX will form    15 AO SS matrices at one time.
 NMat=    15 NSing=    15 JSym2X= 0.
 Root      1 not converged, maximum delta is    0.002166688570304
 Root      2 not converged, maximum delta is    0.000046647738442
 Root      3 not converged, maximum delta is    0.000105065201252
 Root      4 not converged, maximum delta is    0.000128399996329
 Root      5 not converged, maximum delta is    0.000069221910029
 Root      6 not converged, maximum delta is    0.000063788143435
 Root      7 not converged, maximum delta is    0.000123833614235
 Root      8 not converged, maximum delta is    0.000100369054652
 Root      9 not converged, maximum delta is    0.000076720426096
 Root     10 not converged, maximum delta is    0.001428219462765
 Root     11 not converged, maximum delta is    0.001207836725628
 Root     12 not converged, maximum delta is    0.001824219747555
 Root     13 not converged, maximum delta is    0.001823704663631
 Root     14 not converged, maximum delta is    0.002602734188843
 Root     15 not converged, maximum delta is    0.002711523472568
 Excitation Energies [eV] at current iteration:
 Root      1 :     5.030358792961569   Change is   -0.000618302121204
 Root      2 :     5.820305219233799   Change is   -0.000000840705067
 Root      3 :     6.163925275743504   Change is   -0.000003399724613
 Root      4 :     6.815218854528675   Change is   -0.000005253079106
 Root      5 :     7.009343500704927   Change is   -0.000001758120309
 Root      6 :     7.398781182423064   Change is   -0.000001679930413
 Root      7 :     8.094234695488439   Change is   -0.000002830419728
 Root      8 :     8.100678006305898   Change is   -0.000003629186825
 Root      9 :     8.357780553734749   Change is   -0.000001432013363
 Root     10 :     8.749315141867573   Change is   -0.000271990074992
 Root     11 :     8.776090968531202   Change is   -0.000021534662321
 Root     12 :     9.120134906831906   Change is   -0.001161870911391
 Root     13 :     9.692258623092666   Change is   -0.000628510492462
 Root     14 :     9.908991934009800   Change is   -0.000707504965764
 Root     15 :     9.932680539427404   Change is   -0.000561710606438
 Iteration     4 Dimension   143 NMult   135 NNew      8
 CISAX will form     8 AO SS matrices at one time.
 NMat=     8 NSing=     8 JSym2X= 0.
 Root      1 not converged, maximum delta is    0.000075962518808
 Root      2 not converged, maximum delta is    0.000002131596365
 Root      3 not converged, maximum delta is    0.000005393025503
 Root      4 not converged, maximum delta is    0.000008409252821
 Root      5 not converged, maximum delta is    0.000002947786086
 Root      6 not converged, maximum delta is    0.000004531916475
 Root      7 not converged, maximum delta is    0.000008971112516
 Root      8 not converged, maximum delta is    0.000005098600650
 Root      9 not converged, maximum delta is    0.000004362861981
 Root     10 not converged, maximum delta is    0.000028794845828
 Root     11 not converged, maximum delta is    0.000011343636956
 Root     12 not converged, maximum delta is    0.000076271712174
 Root     13 not converged, maximum delta is    0.000110554169281
 Root     14 not converged, maximum delta is    0.000094804152789
 Root     15 not converged, maximum delta is    0.000080370877353
 Excitation Energies [eV] at current iteration:
 Root      1 :     5.030357392755747   Change is   -0.000001400205823
 Root      2 :     5.820305218265515   Change is   -0.000000000968283
 Root      3 :     6.163925270187967   Change is   -0.000000005555537
 Root      4 :     6.815218844269548   Change is   -0.000000010259126
 Root      5 :     7.009343496815178   Change is   -0.000000003889749
 Root      6 :     7.398781177428909   Change is   -0.000000004994156
 Root      7 :     8.094234685575872   Change is   -0.000000009912567
 Root      8 :     8.100678000456037   Change is   -0.000000005849862
 Root      9 :     8.357780548328350   Change is   -0.000000005406399
 Root     10 :     8.749314829123195   Change is   -0.000000312744377
 Root     11 :     8.776090937522634   Change is   -0.000000031008570
 Root     12 :     9.120133113626956   Change is   -0.000001793204950
 Root     13 :     9.692256200497599   Change is   -0.000002422595066
 Root     14 :     9.908989783642296   Change is   -0.000002150367504
 Root     15 :     9.932678959099340   Change is   -0.000001580328063
 Convergence achieved on expansion vectors.
 ***********************************************************************
 Excited states from <AA,BB:AA,BB> singles matrix:
 ***********************************************************************
 
 1PDM for each excited state written to RWF  633
 Ground to excited state transition densities written to RWF  633
 Ground to excited state transition electric dipole moments (Au):
       state          X           Y           Z        Dip. S.      Osc.
         1        -1.6541      0.1263     -0.0433      2.7540      0.3394
         2         0.0097      0.0159      0.0397      0.0019      0.0003
         3         0.0538      0.0206      0.1288      0.0199      0.0030
         4        -0.0363      0.0150     -0.0394      0.0031      0.0005
         5        -0.0418      0.0000      0.1253      0.0174      0.0030
         6         0.0290     -0.0169      0.3273      0.1082      0.0196
         7         0.0074     -0.0195     -0.0159      0.0007      0.0001
         8         0.0151     -0.0399     -0.0479      0.0041      0.0008
         9        -0.0235     -0.0050     -0.0400      0.0022      0.0004
        10        -0.2278     -0.3268      0.2478      0.2201      0.0472
        11         0.0645      0.1439      0.6033      0.3888      0.0836
        12         0.5836     -0.3530      0.0717      0.4703      0.1051
        13         0.3638     -0.6241     -0.0578      0.5252      0.1247
        14        -0.5975     -0.4462      0.0457      0.5582      0.1355
        15         0.3673     -0.4618      0.0129      0.3483      0.0848
 Ground to excited state transition velocity dipole moments (Au):
       state          X           Y           Z        Dip. S.      Osc.
         1         0.1654     -0.0144     -0.0009      0.0276      0.0994
         2        -0.0005     -0.0041     -0.1204      0.0145      0.0452
         3        -0.0071     -0.0093     -0.1542      0.0239      0.0704
         4         0.0040     -0.0028      0.0160      0.0003      0.0007
         5         0.0032     -0.0024     -0.0394      0.0016      0.0041
         6        -0.0055     -0.0024     -0.0930      0.0087      0.0213
         7        -0.0002      0.0033     -0.0155      0.0003      0.0006
         8        -0.0050      0.0033     -0.0125      0.0002      0.0004
         9         0.0127     -0.0031      0.0116      0.0003      0.0007
        10         0.0466      0.1627     -0.0079      0.0287      0.0595
        11        -0.0074     -0.0591      0.0107      0.0037      0.0076
        12        -0.1017      0.0632     -0.0076      0.0144      0.0286
        13        -0.0531      0.0547     -0.0047      0.0058      0.0109
        14         0.1111      0.0815     -0.0012      0.0190      0.0348
        15        -0.0524      0.1880      0.0051      0.0381      0.0696
 Ground to excited state transition magnetic dipole moments (Au):
       state          X           Y           Z
         1         0.0140      0.0465     -0.5207
         2         0.0255      0.2493      0.0034
         3        -0.1026     -0.1974      0.0222
         4         0.0216     -0.4903     -0.0306
         5        -0.3028     -0.8873     -0.0165
         6        -0.6831      0.3204      0.0119
         7         0.2222     -0.1283     -0.0061
         8         0.6988     -0.0380      0.0040
         9         0.0643      0.2248     -0.0617
        10        -0.0584      0.0196     -0.0147
        11         0.0395      0.0476     -0.0039
        12        -0.0042      0.0215      0.2030
        13        -0.0187      0.0146     -0.1204
        14        -0.0311     -0.1252     -0.0207
        15        -0.0064      0.0976      0.0309
 Ground to excited state transition velocity quadrupole moments (Au):
       state          XX          YY          ZZ          XY          XZ          YZ
         1         0.0434     -0.0341      0.0018      0.2611      0.0019      0.0015
         2         0.0014      0.0026      0.0028     -0.0077     -0.1766     -0.0716
         3         0.0122     -0.0136     -0.0024     -0.0033      0.1329     -0.1273
         4        -0.0133     -0.0178     -0.0085     -0.0047     -0.3498      0.0502
         5        -0.0047     -0.0067      0.0027      0.0156      0.2068     -0.0702
         6         0.0234     -0.0036     -0.0082     -0.0154     -0.1667     -0.1353
         7        -0.0146      0.0149      0.0003      0.0038     -0.0568     -0.0390
         8         0.0051      0.0269      0.0102     -0.0099     -0.0113     -0.1886
         9        -0.0027     -0.0106      0.0093      0.0170     -0.3374      0.0302
        10        -0.1546      0.3545     -0.0168      0.0754      0.0032      0.0299
        11         0.0175     -0.1027      0.0009     -0.0078     -0.0281      0.1000
        12        -0.2284      0.0474     -0.0495     -0.0544     -0.0014      0.0013
        13        -0.5163     -0.0538     -0.1024     -0.0671     -0.0041      0.0095
        14        -0.3259     -0.2527      0.0022      0.1785      0.0892     -0.0237
        15         0.0868     -0.1329      0.0959     -0.1248     -0.0587     -0.0236
 <0|del|b> * <b|rxdel|0> + <0|del|b> * <b|delr+rdel|0>
 Rotatory Strengths (R) in cgs (10**-40 erg-esu-cm/Gauss)
       state          XX          YY          ZZ    R(velocity)    E-M Angle
         1        -0.8000      6.2180      2.6174      2.6785       88.61
         2        -2.0073     -2.1577     -0.5668     -1.5773       92.72
         3         0.2097     -3.5937      0.6589     -0.9083       91.45
         4        -0.2372     -0.1809      3.1825      0.9214       83.17
         5         3.6879      0.0992      1.2407      1.6759       87.18
         6        -1.1230      2.5562      3.4357      1.6230       88.47
         7        -0.2344      0.1432     -0.7724     -0.2879       95.12
         8        -0.0172     -3.2603     -5.5058     -2.9278      112.36
         9        -2.6041      0.3233      0.8994     -0.4604       98.17
        10         2.4042     -0.6799     -0.4599      0.4215       86.93
        11        -5.0385     -1.0881     -0.7708     -2.2991      147.04
        12         0.3371     -1.7431      1.9285      0.1742       89.42
        13         1.8803      0.7298      2.0547      1.5550       75.48
        14       -17.1439     -5.6881     -3.6471     -8.8264      139.22
        15        27.9938      2.3017      6.2155     12.1703       19.81
 1/2[<0|r|b>*<b|rxdel|0> + (<0|rxdel|b>*<b|r|0>)*]
 Rotatory Strengths (R) in cgs (10**-40 erg-esu-cm/Gauss)
       state          XX          YY          ZZ     R(length)
         1        16.4205     -4.1546    -15.9274     -1.2205
         2        -0.1746     -2.7975     -0.0945     -1.0222
         3         3.9047      2.8719     -2.0222      1.5848
         4         0.5552      5.2074     -0.8514      1.6370
         5        -8.9391     -0.0168      1.4641     -2.4973
         6        14.0092      3.8349     -2.7606      5.0278
         7        -1.1592     -1.7688     -0.0687     -0.9989
         8        -7.4843     -1.0729      0.1345     -2.8076
         9         1.0686      0.7968     -1.7440      0.0405
        10        -9.4018      4.5214      2.5710     -0.7698
        11        -1.8020     -4.8409      1.6840     -1.6530
        12         1.7512      5.3571    -10.2853     -1.0590
        13         4.8032      6.4227     -4.9249      2.1003
        14       -13.1372    -39.5073      0.6700    -17.3249
        15         1.6630     31.8843     -0.2828     11.0882
  1/2[<0|del|b>*<b|r|0> + (<0|r|b>*<b|del|0>)*] (Au)
       state          X           Y           Z        Dip. S.   Osc.(frdel)
         1        -0.2735     -0.0018      0.0000      0.2753      0.1835
         2         0.0000     -0.0001     -0.0048      0.0048      0.0032
         3        -0.0004     -0.0002     -0.0199      0.0204      0.0136
         4        -0.0001      0.0000     -0.0006      0.0008      0.0005
         5        -0.0001      0.0000     -0.0049      0.0051      0.0034
         6        -0.0002      0.0000     -0.0304      0.0306      0.0204
         7         0.0000     -0.0001      0.0002     -0.0002     -0.0001
         8        -0.0001     -0.0001      0.0006     -0.0004     -0.0003
         9        -0.0003      0.0000     -0.0005      0.0007      0.0005
        10        -0.0106     -0.0532     -0.0020      0.0657      0.0438
        11        -0.0005     -0.0085      0.0064      0.0025      0.0017
        12        -0.0594     -0.0223     -0.0005      0.0822      0.0548
        13        -0.0193     -0.0341      0.0003      0.0532      0.0354
        14        -0.0664     -0.0364     -0.0001      0.1028      0.0685
        15        -0.0193     -0.0868      0.0001      0.1060      0.0707

 Excitation energies and oscillator strengths:
 
 Excited State   1:      Singlet-A      5.0304 eV  246.47 nm  f=0.3394  <S**2>=0.000
      13 -> 14         0.69498
 This state for optimization and/or second-order correction.
 Total Energy, E(CIS) =   1.97980138451    
 Copying the excited state density for this state as the 1-particle RhoCI density.
 
 Excited State   2:      Singlet-A      5.8203 eV  213.02 nm  f=0.0003  <S**2>=0.000
      11 -> 15        -0.10514
      13 -> 15         0.66377
      13 -> 17         0.12762
      13 -> 18        -0.11806
 
 Excited State   3:      Singlet-A      6.1639 eV  201.14 nm  f=0.0030  <S**2>=0.000
      13 -> 16         0.64707
      13 -> 17         0.15551
      13 -> 18         0.12251
      13 -> 19        -0.12954
 
 Excited State   4:      Singlet-A      6.8152 eV  181.92 nm  f=0.0005  <S**2>=0.000
      12 -> 14         0.61783
      13 -> 17        -0.10499
      13 -> 19        -0.28465
 
 Excited State   5:      Singlet-A      7.0093 eV  176.88 nm  f=0.0030  <S**2>=0.000
      12 -> 14         0.32774
      13 -> 15        -0.12507
      13 -> 17         0.25841
      13 -> 18        -0.23527
      13 -> 19         0.48497
 
 Excited State   6:      Singlet-A      7.3988 eV  167.57 nm  f=0.0196  <S**2>=0.000
      13 -> 16        -0.17456
      13 -> 17         0.60605
      13 -> 19        -0.26288
 
 Excited State   7:      Singlet-A      8.0942 eV  153.18 nm  f=0.0001  <S**2>=0.000
      10 -> 14         0.15253
      13 -> 16         0.12771
      13 -> 18        -0.38947
      13 -> 19        -0.11612
      13 -> 20         0.50335
      13 -> 21         0.15177
 
 Excited State   8:      Singlet-A      8.1007 eV  153.05 nm  f=0.0008  <S**2>=0.000
      10 -> 14         0.62760
      11 -> 14         0.23271
      13 -> 20        -0.16063
 
 Excited State   9:      Singlet-A      8.3578 eV  148.35 nm  f=0.0004  <S**2>=0.000
      13 -> 18         0.49468
      13 -> 19         0.26449
      13 -> 20         0.39669
      13 -> 21         0.14422
 
 Excited State  10:      Singlet-A      8.7493 eV  141.71 nm  f=0.0472  <S**2>=0.000
       8 -> 15         0.10197
      10 -> 14        -0.23943
      11 -> 14         0.52824
      12 -> 15        -0.23676
      13 -> 21         0.19809
      13 -> 22        -0.15400
 
 Excited State  11:      Singlet-A      8.7761 eV  141.27 nm  f=0.0836  <S**2>=0.000
      11 -> 14        -0.20723
      13 -> 20        -0.17438
      13 -> 21         0.63183
 
 Excited State  12:      Singlet-A      9.1201 eV  135.95 nm  f=0.1051  <S**2>=0.000
       8 -> 15        -0.12359
      10 -> 17        -0.17888
      11 -> 14         0.17232
      12 -> 15         0.40563
      12 -> 16        -0.27693
      12 -> 18        -0.24130
      12 -> 19         0.25325
 
 Excited State  13:      Singlet-A      9.6923 eV  127.92 nm  f=0.1247  <S**2>=0.000
       8 -> 15        -0.12267
      10 -> 15         0.18833
      10 -> 17         0.17493
      11 -> 14         0.16976
      12 -> 15         0.42618
      12 -> 16         0.21381
      12 -> 18         0.19378
      12 -> 19        -0.23237
      13 -> 22        -0.10350
 
 Excited State  14:      Singlet-A      9.9090 eV  125.12 nm  f=0.1355  <S**2>=0.000
      10 -> 16        -0.17674
      10 -> 17        -0.13184
      11 -> 14         0.15069
      12 -> 16         0.45670
      12 -> 17         0.18759
      12 -> 19         0.14627
      12 -> 20        -0.14822
      13 -> 22         0.29030
 
 Excited State  15:      Singlet-A      9.9327 eV  124.82 nm  f=0.0848  <S**2>=0.000
      10 -> 16         0.15806
      10 -> 17         0.10395
      11 -> 14         0.12794
      12 -> 16        -0.21509
      13 -> 22         0.59066
 SavETr:  write IOETrn=   770 NScale= 10 NData=  16 NLR=1 NState=   15 LETran=     280.
 The selected state is a singlet
 CISAX will form     1 AO SS matrices at one time.
 NMat=     1 NSing=     1 JSym2X= 0.
 Leave Link  914 at Tue Dec 15 17:06:57 2015, MaxMem=    33554432 cpu:         0.1
 (Enter /home/Applications/g09/g09/l1002.exe)
 Minotr:  Closed shell wavefunction.
          Computing CIS/TD-HF/TD-KS derivatives.
          Using Z-Vector for PSCF gradient.
          Skipping F1 and S1 gradient terms here.
          IDoAtm=111111111
          Direct CPHF calculation.
          Differentiating once with respect to electric field.
                with respect to dipole field.
          Differentiating once with respect to nuclear coordinates.
          Electric field/nuclear overlap derivatives assumed to be zero.
          Requested convergence is 1.0D-10 RMS, and 1.0D-09 maximum.
          NewPWx=T KeepS1=F KeepF1=F KeepIn=T MapXYZ=F SortEE=F KeepMc=T.
          MDV=      33495423 using IRadAn=       0.
 Keep J ints in memory in canonical form, NReq=871704.
 FoFCou: FMM=F IPFlag=           0 FMFlag=           0 FMFlg1=           0
         NFxFlg=           0 DoJE=F BraDBF=F KetDBF=F FulRan=T
         wScrn=  0.000000 ICntrl=     600 IOpCl=  2 I1Cent=           0 NGrid=           0
         NMat0=    1 NMatS0=     54 NMatT0=    0 NMatD0=    1 NMtDS0=    0 NMtDT0=    0
 Symmetry not used in FoFCou.
          Solving linear equations separately, MaxMat=       0.
          There are     1 degrees of freedom in the 1st order CPHF.  IDoFFX=0 NUNeed=     1.
 LinEq1:  Iter=  0 NonCon=     1 RMS=7.10D-03 Max=4.51D-02 NDo=     1
 AX will form     1 AO Fock derivatives at one time.
 LinEq1:  Iter=  1 NonCon=     1 RMS=6.34D-04 Max=2.09D-03 NDo=     1
 LinEq1:  Iter=  2 NonCon=     1 RMS=1.05D-04 Max=9.31D-04 NDo=     1
 LinEq1:  Iter=  3 NonCon=     1 RMS=1.48D-05 Max=7.04D-05 NDo=     1
 LinEq1:  Iter=  4 NonCon=     1 RMS=2.55D-06 Max=1.14D-05 NDo=     1
 LinEq1:  Iter=  5 NonCon=     1 RMS=3.10D-07 Max=1.28D-06 NDo=     1
 LinEq1:  Iter=  6 NonCon=     1 RMS=4.43D-08 Max=1.51D-07 NDo=     1
 LinEq1:  Iter=  7 NonCon=     1 RMS=5.26D-09 Max=2.39D-08 NDo=     1
 LinEq1:  Iter=  8 NonCon=     1 RMS=6.28D-10 Max=2.76D-09 NDo=     1
 LinEq1:  Iter=  9 NonCon=     0 RMS=8.27D-11 Max=3.58D-10 NDo=     1
 Linear equations converged to 1.000D-10 1.000D-09 after     9 iterations.
 End of Minotr F.D. properties file   721 does not exist.
 End of Minotr F.D. properties file   722 does not exist.
 End of Minotr F.D. properties file   788 does not exist.
 Leave Link 1002 at Tue Dec 15 17:06:57 2015, MaxMem=    33554432 cpu:         0.0
 (Enter /home/Applications/g09/g09/l601.exe)
 Copying SCF densities to generalized density rwf, IOpCl= 0 IROHF=0.

 **********************************************************************

            Population analysis using the SCF density.

 **********************************************************************

 Orbital symmetries:
       Occupied  (A) (A) (A) (A) (A) (A) (A) (A) (A) (A) (A) (A)
                 (A)
       Virtual   (A) (A) (A) (A) (A) (A) (A) (A) (A) (A) (A)
 The electronic state is 1-A.
 Alpha  occ. eigenvalues --   -1.90804  -1.22855  -1.01581  -0.82257  -0.81317
 Alpha  occ. eigenvalues --   -0.69030  -0.63001  -0.54429  -0.52013  -0.43088
 Alpha  occ. eigenvalues --   -0.42888  -0.39173  -0.25634
 Alpha virt. eigenvalues --    0.13048   0.17877   0.20157   0.26036   0.28796
 Alpha virt. eigenvalues --    0.29125   0.29593   0.30276   0.33165   0.42382
 Alpha virt. eigenvalues --    0.46724
     Molecular Orbital Coefficients:
                           1         2         3         4         5
                           O         O         O         O         O
     Eigenvalues --    -1.90804  -1.22855  -1.01581  -0.82257  -0.81317
   1 1   C  1S          0.09390   0.48215  -0.27935  -0.18383  -0.29697
   2        1PX        -0.06004  -0.14714  -0.17463  -0.26889   0.05155
   3        1PY        -0.10062  -0.09945   0.13813   0.10397  -0.29287
   4        1PZ        -0.00072   0.00071   0.00089  -0.00175   0.00344
   5 2   C  1S          0.23100   0.26394  -0.50279  -0.06743   0.45429
   6        1PX        -0.21811  -0.11144  -0.01840  -0.18139   0.01214
   7        1PY        -0.09583   0.26506   0.00789  -0.34408  -0.37637
   8        1PZ        -0.00937  -0.00561   0.01713  -0.00358  -0.01119
   9 3   O  1S          0.84602  -0.31478  -0.01917   0.11856  -0.23340
  10        1PX        -0.00008   0.00809  -0.21657   0.24555   0.14745
  11        1PY         0.05161   0.15794   0.01699  -0.06881   0.11375
  12        1PZ         0.00170   0.00263  -0.00004  -0.00282   0.00698
  13 4   C  1S          0.24257   0.26303   0.54001  -0.30478   0.26991
  14        1PX         0.20961   0.13706  -0.04971  -0.00969  -0.14669
  15        1PY        -0.12538   0.24881  -0.02260   0.51322   0.08180
  16        1PZ        -0.01044  -0.00660  -0.02080   0.01491  -0.00366
  17 5   C  1S          0.09789   0.48440   0.25736   0.35513  -0.06339
  18        1PX         0.04619   0.13329  -0.21629  -0.10154  -0.24949
  19        1PY        -0.11074  -0.11269  -0.12513   0.16740  -0.22363
  20        1PZ         0.00087   0.00840   0.00393   0.00959   0.00262
  21 6   H  1S          0.00926   0.14695   0.11684   0.25066  -0.05498
  22 7   H  1S          0.06006   0.04382   0.26741  -0.21777   0.18229
  23 8   H  1S          0.04987   0.03103  -0.21735  -0.02965   0.28860
  24 9   H  1S          0.00786   0.14122  -0.12342  -0.12599  -0.22128
                           6         7         8         9        10
                           O         O         O         O         O
     Eigenvalues --    -0.69030  -0.63001  -0.54429  -0.52013  -0.43088
   1 1   C  1S         -0.18159   0.01252  -0.11608  -0.05943   0.10645
   2        1PX        -0.21142   0.01684   0.02506   0.26536   0.15918
   3        1PY        -0.19940   0.01656   0.07283  -0.32608   0.43288
   4        1PZ         0.02613   0.39569   0.00446   0.02718  -0.08695
   5 2   C  1S         -0.09021   0.02288  -0.05121  -0.08238  -0.11033
   6        1PX        -0.41015   0.01617   0.59107   0.13480  -0.06287
   7        1PY         0.01676  -0.00128  -0.10034   0.48081  -0.30293
   8        1PZ         0.04001   0.54788   0.02029   0.01563  -0.20140
   9 3   O  1S         -0.20059   0.01285  -0.00425   0.21348  -0.00800
  10        1PX        -0.00521  -0.00243  -0.18202  -0.00677   0.10415
  11        1PY         0.23694  -0.02073   0.01201  -0.10632   0.00907
  12        1PZ         0.02792   0.23883   0.00082  -0.01856   0.00791
  13 4   C  1S         -0.05807   0.02210   0.07540  -0.07106   0.11675
  14        1PX         0.46157  -0.02032   0.58412  -0.06048   0.01155
  15        1PY        -0.05807  -0.01022   0.01766   0.50645   0.29102
  16        1PZ         0.03689   0.56515  -0.02042  -0.00775   0.22236
  17 5   C  1S         -0.17153   0.00173   0.12959  -0.06125  -0.10773
  18        1PX         0.18718  -0.01694  -0.03258  -0.29736   0.07456
  19        1PY        -0.23997   0.03254  -0.04850  -0.31961  -0.41427
  20        1PZ         0.02049   0.40052  -0.00025   0.01591   0.07483
  21 6   H  1S         -0.25434   0.03339   0.05095  -0.11060  -0.34449
  22 7   H  1S         -0.26547   0.01757  -0.31156  -0.10883  -0.00810
  23 8   H  1S         -0.25308   0.01429   0.34236  -0.11633   0.00185
  24 9   H  1S         -0.25226   0.01798  -0.01094  -0.08881   0.38451
                          11        12        13        14        15
                           O         O         O         V         V
     Eigenvalues --    -0.42888  -0.39173  -0.25634   0.13048   0.17877
   1 1   C  1S          0.04324  -0.07060  -0.00079  -0.01186  -0.06563
   2        1PX         0.04337   0.48373  -0.01997  -0.00332  -0.09893
   3        1PY         0.15179   0.11260   0.02455   0.02599   0.14697
   4        1PZ         0.23748   0.00171   0.56508   0.67474  -0.02299
   5 2   C  1S         -0.01242   0.10904  -0.00440   0.00076  -0.24179
   6        1PX        -0.03876  -0.31508  -0.00059  -0.00959  -0.39366
   7        1PY        -0.11766  -0.00177  -0.00475   0.01637   0.31725
   8        1PZ         0.63467  -0.01578  -0.37698  -0.24237   0.01556
   9 3   O  1S         -0.00460  -0.09423  -0.00467  -0.00032   0.00799
  10        1PX         0.03770   0.01182   0.00122   0.00285  -0.01410
  11        1PY         0.00165   0.17767   0.01072  -0.00027   0.11994
  12        1PZ        -0.00359   0.00605  -0.22886  -0.00479   0.00357
  13 4   C  1S          0.01041   0.08881  -0.00322   0.00064  -0.02966
  14        1PX        -0.01642   0.27992  -0.00018  -0.00400  -0.02303
  15        1PY         0.09652  -0.06891  -0.00087  -0.01452   0.04584
  16        1PZ        -0.62693  -0.03067  -0.35609   0.22941  -0.00294
  17 5   C  1S         -0.03151  -0.06775  -0.02403   0.03278  -0.11542
  18        1PX         0.03506  -0.47863   0.02258  -0.01773  -0.10272
  19        1PY        -0.13358   0.22175   0.00527  -0.00681   0.03217
  20        1PZ        -0.20553  -0.00006   0.59746  -0.65536   0.00731
  21 6   H  1S         -0.12191   0.30695   0.00038  -0.02277  -0.00767
  22 7   H  1S          0.00728  -0.14541   0.00654  -0.01141   0.01923
  23 8   H  1S         -0.00250  -0.17692   0.00873   0.01792   0.77839
  24 9   H  1S          0.13069   0.27361  -0.00361   0.00224   0.00120
                          16        17        18        19        20
                           V         V         V         V         V
     Eigenvalues --     0.20157   0.26036   0.28796   0.29125   0.29593
   1 1   C  1S         -0.11687   0.00845   0.14069   0.58102   0.12557
   2        1PX         0.11749  -0.03664   0.53057  -0.30619   0.05960
   3        1PY         0.02511   0.44498  -0.06286  -0.11105   0.47811
   4        1PZ         0.00720  -0.01900   0.01624   0.01552  -0.01361
   5 2   C  1S         -0.00076   0.30352  -0.25010  -0.19516   0.20719
   6        1PX         0.05922   0.03464  -0.08409   0.07411  -0.01535
   7        1PY         0.03681   0.20344  -0.14912  -0.23101   0.09639
   8        1PZ        -0.00171   0.00248   0.00152  -0.00481  -0.00753
   9 3   O  1S          0.01300   0.03371  -0.00381  -0.00803  -0.01283
  10        1PX         0.03430  -0.00057   0.09677   0.01764  -0.07648
  11        1PY         0.12658  -0.00333  -0.01670  -0.01226  -0.02929
  12        1PZ         0.00134  -0.00230  -0.00200   0.00945   0.02713
  13 4   C  1S         -0.19013   0.35307   0.22204   0.08056  -0.33837
  14        1PX         0.41054  -0.02552  -0.06943   0.11666   0.04216
  15        1PY         0.30321   0.22773   0.10577   0.12721  -0.20236
  16        1PZ         0.01226  -0.00514  -0.00204   0.00095  -0.00027
  17 5   C  1S         -0.10205  -0.14389  -0.07082  -0.49688   0.08519
  18        1PX         0.17722  -0.00735   0.48064  -0.34924  -0.17094
  19        1PY         0.21017   0.41360  -0.02289   0.03346  -0.47588
  20        1PZ        -0.02025  -0.00550  -0.02106  -0.02924   0.01198
  21 6   H  1S         -0.01177  -0.31864   0.34217   0.16750   0.23225
  22 7   H  1S          0.75084  -0.17065  -0.12113   0.05363   0.13864
  23 8   H  1S         -0.03549  -0.09792   0.09775  -0.01643  -0.04247
  24 9   H  1S         -0.03571  -0.39376  -0.38646  -0.14207  -0.44329
                          21        22        23        24
                           V         V         V         V
     Eigenvalues --     0.30276   0.33165   0.42382   0.46724
   1 1   C  1S         -0.29911  -0.04223   0.08234  -0.03177
   2        1PX        -0.28647  -0.03100   0.04423  -0.05406
   3        1PY         0.13890   0.00082   0.02396   0.05737
   4        1PZ        -0.00489   0.04166   0.00252  -0.00446
   5 2   C  1S          0.21017   0.01429  -0.13139  -0.12310
   6        1PX         0.11701   0.01320   0.23438   0.15654
   7        1PY         0.19160   0.03117  -0.02758   0.21516
   8        1PZ         0.02384  -0.22700   0.00005   0.01091
   9 3   O  1S          0.04299   0.00560   0.13328  -0.00473
  10        1PX        -0.00611  -0.00004   0.06952   0.89643
  11        1PY         0.15517  -0.03557   0.89040  -0.06912
  12        1PZ        -0.09326   0.93662   0.04951  -0.00218
  13 4   C  1S          0.11734   0.01752  -0.12468   0.12960
  14        1PX        -0.09831  -0.01202  -0.23797   0.14049
  15        1PY         0.15322   0.03320  -0.01583  -0.23127
  16        1PZ         0.02849  -0.23233  -0.00059  -0.01032
  17 5   C  1S         -0.42003  -0.04492   0.08832   0.02747
  18        1PX         0.25982   0.03999  -0.05006  -0.05857
  19        1PY        -0.17655  -0.00755   0.03578  -0.05106
  20        1PZ        -0.03500   0.03487   0.00611   0.00436
  21 6   H  1S          0.52999   0.04647  -0.07757   0.00592
  22 7   H  1S         -0.08413  -0.00986  -0.05557   0.02993
  23 8   H  1S         -0.08693  -0.00564  -0.04565  -0.02013
  24 9   H  1S          0.24449   0.03711  -0.06798  -0.00350
     Density Matrix:
                           1         2         3         4         5
   1 1   C  1S          1.01926
   2        1PX         0.02186   1.01670
   3        1PY         0.12778   0.08139   1.02210
   4        1PZ        -0.00430  -0.01020   0.00842   1.08261
   5 2   C  1S          0.34885   0.21539  -0.50995   0.01965   1.25811
   6        1PX        -0.05479   0.11117   0.04126  -0.00442  -0.16749
   7        1PY         0.46886   0.21183  -0.51588   0.01567  -0.21045
   8        1PZ        -0.00132  -0.00086   0.00473   0.34705   0.00756
   9 3   O  1S          0.02108   0.01432  -0.04077   0.00115  -0.00068
  10        1PX         0.01958  -0.00637  -0.01249  -0.00319   0.32210
  11        1PY         0.01048   0.00791  -0.09324   0.00344   0.21197
  12        1PZ        -0.00150   0.00490  -0.00067  -0.07218   0.01948
  13 4   C  1S         -0.02495   0.01209   0.03186  -0.00352   0.00308
  14        1PX        -0.04506   0.01634   0.00856  -0.00027   0.01204
  15        1PY         0.02831   0.01043  -0.01088   0.00984  -0.05564
  16        1PZ         0.00441   0.00132  -0.01321  -0.29052  -0.00721
  17 5   C  1S          0.27227  -0.49675   0.07404  -0.03407  -0.02553
  18        1PX         0.50450  -0.61670   0.11196   0.00588  -0.00790
  19        1PY         0.01787  -0.02156   0.12506   0.00837   0.03488
  20        1PZ        -0.00104  -0.01349   0.02610   0.88349  -0.00268
  21 6   H  1S         -0.01403   0.00359   0.00148   0.01020   0.08700
  22 7   H  1S          0.07748  -0.08101  -0.00417   0.00556   0.04535
  23 8   H  1S          0.05197  -0.00174  -0.06289   0.00424   0.51560
  24 9   H  1S          0.54405   0.50372   0.63118  -0.01292   0.05192
                           6         7         8         9        10
   6        1PX         1.46826
   7        1PY         0.14367   1.37342
   8        1PZ         0.00534  -0.00281   1.77741
   9 3   O  1S         -0.06864  -0.02954  -0.00020   1.95744
  10        1PX        -0.31558  -0.32126  -0.01863  -0.01109   0.34925
  11        1PY        -0.35335  -0.06744  -0.02605  -0.25700  -0.00412
  12        1PZ        -0.02360  -0.02173   0.42780  -0.01479   0.00019
  13 4   C  1S         -0.02032  -0.05089  -0.00662   0.00009  -0.29855
  14        1PX        -0.00185  -0.01520  -0.00154   0.06719  -0.23305
  15        1PY         0.01994   0.02360   0.00211  -0.03784   0.34363
  16        1PZ         0.00347   0.00340   0.00477   0.00042   0.01701
  17 5   C  1S          0.04564   0.02792   0.01559   0.02122  -0.01899
  18        1PX         0.00560  -0.00897  -0.00511  -0.01882  -0.00668
  19        1PY        -0.01103  -0.01151  -0.00631  -0.04047   0.00187
  20        1PZ         0.00017   0.00814  -0.30059   0.00108   0.00318
  21 6   H  1S         -0.03391   0.05798  -0.00949   0.00779  -0.02960
  22 7   H  1S         -0.04962  -0.01885  -0.00085   0.01760  -0.05530
  23 8   H  1S          0.68994  -0.38246  -0.01423   0.01401   0.04072
  24 9   H  1S         -0.05028  -0.03168   0.00129   0.00750   0.03274
                          11        12        13        14        15
  11        1PY         0.29071
  12        1PZ         0.00765   0.22143
  13 4   C  1S          0.25195   0.02205   1.24322
  14        1PX         0.37729   0.02249   0.14107   1.44774
  15        1PY        -0.14041  -0.02429  -0.22832  -0.14490   1.41452
  16        1PZ        -0.02812   0.44269   0.01237  -0.00647   0.00382
  17 5   C  1S          0.01670   0.00241   0.34012   0.12096   0.46202
  18        1PX        -0.01954  -0.00389  -0.26602   0.05656  -0.28817
  19        1PY        -0.10251   0.00358  -0.46365  -0.12441  -0.48314
  20        1PZ         0.00533  -0.07891   0.02701   0.00997   0.02245
  21 6   H  1S          0.00960   0.00352   0.05147   0.04846  -0.03390
  22 7   H  1S         -0.06196  -0.00365   0.54462  -0.71708  -0.27308
  23 8   H  1S         -0.07291  -0.00397   0.04673   0.04783  -0.02214
  24 9   H  1S          0.01111   0.00629   0.08434   0.04376   0.05829
                          16        17        18        19        20
  16        1PZ         1.78457
  17 5   C  1S         -0.01026   1.01666
  18        1PX         0.00815  -0.00444   1.00085
  19        1PY         0.00754   0.12838  -0.08941   1.04091
  20        1PZ         0.31944  -0.02273   0.00580   0.00424   1.13215
  21 6   H  1S          0.00004   0.54375  -0.42160   0.68822   0.01968
  22 7   H  1S         -0.01457   0.05846  -0.02134  -0.07584   0.00324
  23 8   H  1S         -0.00150   0.08347   0.09042  -0.01834   0.00881
  24 9   H  1S         -0.00259  -0.01994  -0.00933   0.00198  -0.00143
                          21        22        23        24
  21 6   H  1S          0.81915
  22 7   H  1S         -0.00965   0.71737
  23 8   H  1S         -0.00631   0.00896   0.72247
  24 9   H  1S         -0.00680  -0.00171  -0.01179   0.82368
    Full Mulliken population analysis:
                           1         2         3         4         5
   1 1   C  1S          1.01926
   2        1PX         0.00000   1.01670
   3        1PY         0.00000   0.00000   1.02210
   4        1PZ         0.00000   0.00000   0.00000   1.08261
   5 2   C  1S          0.00000   0.00000   0.00000   0.00000   1.25811
   6        1PX         0.00000   0.00000   0.00000   0.00000   0.00000
   7        1PY         0.00000   0.00000   0.00000   0.00000   0.00000
   8        1PZ         0.00000   0.00000   0.00000   0.00000   0.00000
   9 3   O  1S          0.00000   0.00000   0.00000   0.00000   0.00000
  10        1PX         0.00000   0.00000   0.00000   0.00000   0.00000
  11        1PY         0.00000   0.00000   0.00000   0.00000   0.00000
  12        1PZ         0.00000   0.00000   0.00000   0.00000   0.00000
  13 4   C  1S          0.00000   0.00000   0.00000   0.00000   0.00000
  14        1PX         0.00000   0.00000   0.00000   0.00000   0.00000
  15        1PY         0.00000   0.00000   0.00000   0.00000   0.00000
  16        1PZ         0.00000   0.00000   0.00000   0.00000   0.00000
  17 5   C  1S          0.00000   0.00000   0.00000   0.00000   0.00000
  18        1PX         0.00000   0.00000   0.00000   0.00000   0.00000
  19        1PY         0.00000   0.00000   0.00000   0.00000   0.00000
  20        1PZ         0.00000   0.00000   0.00000   0.00000   0.00000
  21 6   H  1S          0.00000   0.00000   0.00000   0.00000   0.00000
  22 7   H  1S          0.00000   0.00000   0.00000   0.00000   0.00000
  23 8   H  1S          0.00000   0.00000   0.00000   0.00000   0.00000
  24 9   H  1S          0.00000   0.00000   0.00000   0.00000   0.00000
                           6         7         8         9        10
   6        1PX         1.46826
   7        1PY         0.00000   1.37342
   8        1PZ         0.00000   0.00000   1.77741
   9 3   O  1S          0.00000   0.00000   0.00000   1.95744
  10        1PX         0.00000   0.00000   0.00000   0.00000   0.34925
  11        1PY         0.00000   0.00000   0.00000   0.00000   0.00000
  12        1PZ         0.00000   0.00000   0.00000   0.00000   0.00000
  13 4   C  1S          0.00000   0.00000   0.00000   0.00000   0.00000
  14        1PX         0.00000   0.00000   0.00000   0.00000   0.00000
  15        1PY         0.00000   0.00000   0.00000   0.00000   0.00000
  16        1PZ         0.00000   0.00000   0.00000   0.00000   0.00000
  17 5   C  1S          0.00000   0.00000   0.00000   0.00000   0.00000
  18        1PX         0.00000   0.00000   0.00000   0.00000   0.00000
  19        1PY         0.00000   0.00000   0.00000   0.00000   0.00000
  20        1PZ         0.00000   0.00000   0.00000   0.00000   0.00000
  21 6   H  1S          0.00000   0.00000   0.00000   0.00000   0.00000
  22 7   H  1S          0.00000   0.00000   0.00000   0.00000   0.00000
  23 8   H  1S          0.00000   0.00000   0.00000   0.00000   0.00000
  24 9   H  1S          0.00000   0.00000   0.00000   0.00000   0.00000
                          11        12        13        14        15
  11        1PY         0.29071
  12        1PZ         0.00000   0.22143
  13 4   C  1S          0.00000   0.00000   1.24322
  14        1PX         0.00000   0.00000   0.00000   1.44774
  15        1PY         0.00000   0.00000   0.00000   0.00000   1.41452
  16        1PZ         0.00000   0.00000   0.00000   0.00000   0.00000
  17 5   C  1S          0.00000   0.00000   0.00000   0.00000   0.00000
  18        1PX         0.00000   0.00000   0.00000   0.00000   0.00000
  19        1PY         0.00000   0.00000   0.00000   0.00000   0.00000
  20        1PZ         0.00000   0.00000   0.00000   0.00000   0.00000
  21 6   H  1S          0.00000   0.00000   0.00000   0.00000   0.00000
  22 7   H  1S          0.00000   0.00000   0.00000   0.00000   0.00000
  23 8   H  1S          0.00000   0.00000   0.00000   0.00000   0.00000
  24 9   H  1S          0.00000   0.00000   0.00000   0.00000   0.00000
                          16        17        18        19        20
  16        1PZ         1.78457
  17 5   C  1S          0.00000   1.01666
  18        1PX         0.00000   0.00000   1.00085
  19        1PY         0.00000   0.00000   0.00000   1.04091
  20        1PZ         0.00000   0.00000   0.00000   0.00000   1.13215
  21 6   H  1S          0.00000   0.00000   0.00000   0.00000   0.00000
  22 7   H  1S          0.00000   0.00000   0.00000   0.00000   0.00000
  23 8   H  1S          0.00000   0.00000   0.00000   0.00000   0.00000
  24 9   H  1S          0.00000   0.00000   0.00000   0.00000   0.00000
                          21        22        23        24
  21 6   H  1S          0.81915
  22 7   H  1S          0.00000   0.71737
  23 8   H  1S          0.00000   0.00000   0.72247
  24 9   H  1S          0.00000   0.00000   0.00000   0.82368
     Gross orbital populations:
                           1
   1 1   C  1S          1.01926
   2        1PX         1.01670
   3        1PY         1.02210
   4        1PZ         1.08261
   5 2   C  1S          1.25811
   6        1PX         1.46826
   7        1PY         1.37342
   8        1PZ         1.77741
   9 3   O  1S          1.95744
  10        1PX         0.34925
  11        1PY         0.29071
  12        1PZ         0.22143
  13 4   C  1S          1.24322
  14        1PX         1.44774
  15        1PY         1.41452
  16        1PZ         1.78457
  17 5   C  1S          1.01666
  18        1PX         1.00085
  19        1PY         1.04091
  20        1PZ         1.13215
  21 6   H  1S          0.81915
  22 7   H  1S          0.71737
  23 8   H  1S          0.72247
  24 9   H  1S          0.82368
          Condensed to atoms (all electrons):
               1          2          3          4          5          6
     1  C    4.140672   0.000000   0.000000   0.000000   0.000000   0.000000
     2  C    0.000000   5.877200   0.000000   0.000000   0.000000   0.000000
     3  O    0.000000   0.000000   2.818839   0.000000   0.000000   0.000000
     4  C    0.000000   0.000000   0.000000   5.890041   0.000000   0.000000
     5  C    0.000000   0.000000   0.000000   0.000000   4.190575   0.000000
     6  H    0.000000   0.000000   0.000000   0.000000   0.000000   0.819147
     7  H    0.000000   0.000000   0.000000   0.000000   0.000000   0.000000
     8  H    0.000000   0.000000   0.000000   0.000000   0.000000   0.000000
     9  H    0.000000   0.000000   0.000000   0.000000   0.000000   0.000000
               7          8          9
     1  C    0.000000   0.000000   0.000000
     2  C    0.000000   0.000000   0.000000
     3  O    0.000000   0.000000   0.000000
     4  C    0.000000   0.000000   0.000000
     5  C    0.000000   0.000000   0.000000
     6  H    0.000000   0.000000   0.000000
     7  H    0.717370   0.000000   0.000000
     8  H    0.000000   0.722473   0.000000
     9  H    0.000000   0.000000   0.823683
 Mulliken charges:
               1
     1  C   -0.140672
     2  C   -1.877200
     3  O    3.181161
     4  C   -1.890041
     5  C   -0.190575
     6  H    0.180853
     7  H    0.282630
     8  H    0.277527
     9  H    0.176317
 Sum of Mulliken charges =   0.00000
 Mulliken charges with hydrogens summed into heavy atoms:
               1
     1  C    0.035645
     2  C   -1.599674
     3  O    3.181161
     4  C   -1.607410
     5  C   -0.009721
 Charge=              0.0000 electrons
 Dipole moment (field-independent basis, Debye):
    X=             -0.4660    Y=            -11.2928    Z=             -0.7802  Tot=             11.3293
 N-N= 1.040619029021D+02 E-N=-1.694207608688D+02  KE=-1.575177191631D+01
 Orbital energies and kinetic energies (alpha):
                                 1                 2
   1         O                -1.908040         -1.351884
   2         O                -1.228546         -1.100480
   3         O                -1.015811         -0.943389
   4         O                -0.822569         -0.655602
   5         O                -0.813168         -0.690865
   6         O                -0.690300         -0.576539
   7         O                -0.630007         -0.515479
   8         O                -0.544293         -0.389019
   9         O                -0.520130         -0.337425
  10         O                -0.430883         -0.410752
  11         O                -0.428881         -0.334317
  12         O                -0.391731         -0.332778
  13         O                -0.256337         -0.237357
  14         V                 0.130483         -0.160327
  15         V                 0.178766         -0.208095
  16         V                 0.201570         -0.182481
  17         V                 0.260358         -0.150719
  18         V                 0.287955         -0.134995
  19         V                 0.291254         -0.139896
  20         V                 0.295927         -0.119757
  21         V                 0.302764         -0.145339
  22         V                 0.331652          0.475071
  23         V                 0.423818          0.503259
  24         V                 0.467240          0.573503
 Total kinetic energy from orbitals=-1.575177191631D+01
 Leave Link  601 at Tue Dec 15 17:06:57 2015, MaxMem=    33554432 cpu:         0.0
 (Enter /home/Applications/g09/g09/l701.exe)
 Compute integral first derivatives.
 ... and contract with generalized density number  6.
 Leave Link  701 at Tue Dec 15 17:06:57 2015, MaxMem=    33554432 cpu:         0.0
 (Enter /home/Applications/g09/g09/l702.exe)
 L702 exits ... SP integral derivatives will be done elsewhere.
 Leave Link  702 at Tue Dec 15 17:06:57 2015, MaxMem=    33554432 cpu:         0.0
 (Enter /home/Applications/g09/g09/l703.exe)
 Compute integral first derivatives, UseDBF=F ICtDFT=           0.
 Integral derivatives from FoFJK, PRISM(SPDF).
 Calling FoFJK, ICntrl=  10005127 FMM=F ISym2X=0 I1Cent= 0 IOpClX= 0 NMat=1 NMatS=1 NMatT=0.
 FoFJK:  IHMeth= 8 ICntrl=10005127 DoSepK=F KAlg= 0 I1Cent=   0 FoldK=F
 IRaf=         0 NMat=   1 IRICut=       1 DoRegI=T DoRafI=F ISym2E= 0.
 FoFCou: FMM=F IPFlag=           0 FMFlag=      100000 FMFlg1=         800
         NFxFlg=           0 DoJE=F BraDBF=F KetDBF=F FulRan=T
         wScrn=  0.000000 ICntrl=10005127 IOpCl=  0 I1Cent=           0 NGrid=           0
         NMat0=    1 NMatS0=      1 NMatT0=    0 NMatD0=    1 NMtDS0=    0 NMtDT0=    0
 Symmetry not used in FoFCou.
 Leave Link  703 at Tue Dec 15 17:06:57 2015, MaxMem=    33554432 cpu:         0.0
 (Enter /home/Applications/g09/g09/l716.exe)
 Dipole        =-2.16763023D-01-4.81536302D+00-2.75453239D-01
 ***** Axes restored to original set *****
 -------------------------------------------------------------------
 Center     Atomic                   Forces (Hartrees/Bohr)
 Number     Number              X              Y              Z
 -------------------------------------------------------------------
      1        6           0.261071623   -0.000704902   -0.007632874
      2        6          -0.427297962   -0.057172373   -0.003218177
      3        8           0.178840207   -0.013913922    0.017884435
      4        6          -0.358678110   -0.031251056   -0.003138262
      5        6           0.249062691   -0.009196388   -0.005931722
      6        1           0.078653836    0.051944047    0.002109490
      7        1          -0.048940239    0.156825553   -0.001457623
      8        1           0.002469806   -0.056221790    0.002169771
      9        1           0.064818148   -0.040309170   -0.000785037
 -------------------------------------------------------------------
 Cartesian Forces:  Max     0.427297962 RMS     0.139210016
 Z-matrix is all fixed cartesians, so copy forces.
 Force constants in Cartesian coordinates: 
                1             2             3             4             5 
      1  0.105848D+01
      2  0.158153D-01  0.783731D+00
      3 -0.171989D-01 -0.865632D-02  0.230043D+00
      4 -0.646475D+00 -0.154522D+00  0.158178D-01  0.103460D+01
      5 -0.129766D+00 -0.248829D+00  0.800507D-02  0.106668D+00  0.808707D+00
      6  0.115980D-01  0.582309D-02 -0.135184D+00  0.345325D-02 -0.109621D-01
      7 -0.918045D-02  0.290890D-01 -0.192602D-02 -0.245063D+00  0.126697D+00
      8 -0.685121D-02  0.218020D-01 -0.640056D-03  0.169892D+00 -0.306113D+00
      9  0.274108D-03 -0.951494D-03  0.406878D-02 -0.134216D-01  0.117351D-01
     10  0.113715D-01  0.874095D-04 -0.101260D-02  0.224982D-01  0.169661D-01
     11  0.347613D-01  0.242568D-03 -0.358645D-02 -0.167842D-01 -0.126588D-01
     12 -0.133534D-02 -0.135613D-03 -0.208835D-02  0.151640D-02  0.118463D-02
     13 -0.163328D+00  0.143974D-01  0.566989D-03  0.110961D-01 -0.352743D-01
     14 -0.918019D-02 -0.366310D+00  0.897234D-02  0.735029D-04 -0.264919D-03
     15  0.479422D-03  0.361076D-02 -0.757240D-01 -0.548657D-03  0.235464D-02
     16  0.166333D-01  0.148351D-03  0.480893D-03 -0.517092D-05 -0.378575D-05
     17 -0.236619D-01 -0.231428D-03 -0.207313D-02  0.000000D+00  0.000000D+00
     18  0.140817D-02  0.225198D-03  0.145271D-01  0.665491D-04  0.487222D-04
     19  0.321146D-04  0.107634D-04  0.714691D-03  0.173408D-04  0.000000D+00
     20  0.425155D-04  0.142493D-04  0.946158D-03 -0.256386D-05  0.000000D+00
     21  0.453750D-03  0.152077D-03  0.100979D-01 -0.232955D-03  0.290834D-05
     22  0.795871D-02 -0.254222D-01 -0.811517D-03 -0.170932D+00 -0.103624D+00
     23 -0.494201D-02  0.156412D-01 -0.131813D-02 -0.975861D-01 -0.265526D+00
     24  0.841728D-03  0.721766D-03  0.428237D-01 -0.842850D-02 -0.954103D-02
     25 -0.275495D+00  0.120396D+00  0.336867D-02 -0.573506D-02  0.183369D-01
     26  0.123783D+00 -0.206061D+00 -0.164948D-02 -0.774002D-02  0.246842D-01
     27  0.347904D-02 -0.789463D-03 -0.885643D-01  0.177773D-02 -0.282790D-02
                6             7             8             9            10 
      6  0.236199D+00
      7 -0.109766D-01  0.480490D+00
      8  0.116534D-01  0.129592D-01  0.608583D+00
      9 -0.438576D-01  0.234911D-01  0.421704D-03  0.518550D-01
     10  0.155872D-02 -0.258305D+00 -0.180969D+00 -0.148813D-01  0.106677D+01
     11 -0.131318D-02 -0.140424D+00 -0.327254D+00 -0.134044D-01 -0.147903D+00
     12 -0.132723D-02 -0.115921D-01 -0.118546D-01 -0.438047D-01  0.193801D-02
     13  0.803053D-03 -0.966416D-02  0.711675D-02  0.115768D-02 -0.614748D+00
     14  0.186760D-03 -0.291753D-01  0.215491D-01  0.261152D-02  0.148552D+00
     15 -0.200895D-02 -0.195198D-02  0.720445D-03  0.426992D-02  0.233094D-01
     16 -0.254920D-03  0.000000D+00 -0.284974D-05  0.479143D-04 -0.592930D-02
     17  0.459915D-04 -0.176125D-04  0.512435D-04 -0.861586D-03  0.811567D-02
     18  0.328078D-02  0.169235D-03 -0.492389D-03  0.827882D-02  0.282620D-02
     19 -0.285954D-03  0.223952D-01 -0.167201D-01  0.189461D-02 -0.221677D+00
     20  0.422786D-04  0.128347D-01 -0.959508D-02  0.137379D-02  0.155148D+00
     21  0.384149D-02  0.153201D-02 -0.138267D-02  0.552306D-02 -0.137110D-01
     22 -0.670195D-02  0.193252D-01  0.145649D-01  0.124844D-02  0.115085D-04
     23 -0.577007D-02 -0.119635D-01 -0.902678D-02 -0.992072D-03  0.000000D+00
     24 -0.966279D-01  0.118336D-02  0.113078D-02  0.523873D-02 -0.177297D-03
     25  0.806452D-03  0.159433D-05  0.994630D-05  0.189054D-03  0.413210D-05
     26  0.293843D-03  0.000000D+00  0.355137D-05  0.675027D-04  0.223482D-05
     27  0.356847D-01  0.710749D-04  0.443403D-03  0.842798D-02  0.149860D-03
               11            12            13            14            15 
     11  0.965813D+00
     12  0.477269D-02  0.246217D+00
     13  0.126648D+00  0.232791D-01  0.104869D+01
     14 -0.248547D+00 -0.739939D-02 -0.990260D-02  0.786209D+00
     15 -0.109649D-01 -0.132991D+00 -0.603587D-02  0.123700D-01  0.227020D+00
     16 -0.178003D-01 -0.200111D-02 -0.298355D+00 -0.128929D+00 -0.144853D-01
     17  0.247724D-01 -0.617571D-03 -0.131147D+00 -0.208770D+00 -0.864302D-02
     18  0.422480D-02  0.359601D-01 -0.191182D-01 -0.129088D-01 -0.885528D-01
     19  0.161501D+00 -0.117072D-01  0.929107D-02  0.284125D-01 -0.113702D-02
     20 -0.402369D+00  0.140073D-01  0.531065D-02  0.159563D-01  0.168355D-02
     21  0.202190D-01 -0.108225D+00  0.371802D-03 -0.418083D-02  0.436565D-01
     22  0.000000D+00 -0.189777D-03  0.926147D-05  0.678055D-05  0.456578D-03
     23  0.000000D+00 -0.715539D-05 -0.139966D-04 -0.102473D-04 -0.690015D-03
     24  0.221347D-05  0.292367D-02  0.195166D-03  0.142886D-03  0.962142D-02
     25  0.138489D-05  0.919574D-04  0.170086D-01  0.143209D-03 -0.866024D-04
     26  0.000000D+00  0.497346D-04  0.228651D-01  0.187749D-03 -0.441499D-03
     27  0.502265D-04  0.333506D-02 -0.121980D-02  0.205536D-03  0.147085D-01
               16            17            18            19            20 
     16  0.287652D+00
     17  0.146591D+00  0.184018D+00
     18  0.159391D-01  0.105094D-01  0.476412D-01
     19 -0.671601D-05  0.120766D-03 -0.116042D-02  0.189948D+00
     20 -0.889113D-05  0.159879D-03 -0.153625D-02 -0.173325D+00  0.395834D+00
     21 -0.948913D-04  0.170632D-02 -0.163957D-01  0.116813D-01 -0.165168D-01
     22  0.000000D+00  0.000000D+00  0.000000D+00  0.000000D+00  0.000000D+00
     23  0.000000D+00  0.000000D+00  0.000000D+00  0.000000D+00  0.000000D+00
     24  0.000000D+00  0.000000D+00  0.000000D+00  0.000000D+00  0.000000D+00
     25  0.101540D-04 -0.183193D-05 -0.130680D-03  0.000000D+00  0.000000D+00
     26  0.549171D-05  0.000000D+00 -0.706777D-04  0.000000D+00  0.000000D+00
     27  0.368258D-03 -0.664394D-04 -0.473943D-02  0.000000D+00  0.000000D+00
               21            22            23            24            25 
     21  0.615019D-01
     22  0.000000D+00  0.143644D+00
     23  0.000000D+00  0.114480D+00  0.258913D+00
     24  0.000000D+00  0.673276D-02  0.766736D-02  0.514992D-01
     25  0.000000D+00 -0.164769D-04  0.249011D-04 -0.347215D-03  0.264222D+00
     26  0.000000D+00 -0.588314D-05  0.889104D-05 -0.123975D-03 -0.138910D+00
     27  0.000000D+00 -0.734534D-03  0.111008D-02 -0.154787D-01 -0.389164D-02
               26            27 
     26  0.181177D+00
     27  0.187455D-02  0.466263D-01
 Leave Link  716 at Tue Dec 15 17:06:58 2015, MaxMem=    33554432 cpu:         0.0
 (Enter /home/Applications/g09/g09/l103.exe)

 GradGradGradGradGradGradGradGradGradGradGradGradGradGradGradGradGradGrad
 Berny optimization.
 Search for a local minimum.
 Step number   1 out of a maximum of    2
 All quantities printed in internal units (Hartrees-Bohrs-Radians)
 Second derivative matrix not updated -- first step.
 ITU=  0
     Eigenvalues ---    0.02045   0.03115   0.07201   0.07426   0.08662
     Eigenvalues ---    0.09246   0.13260   0.15544   0.16576   0.24654
     Eigenvalues ---    0.27368   0.38962   0.44269   0.48017   0.67128
     Eigenvalues ---    0.86316   0.99762   1.29099   1.38721   1.82560
     Eigenvalues ---    1.88116
 Quadratic step=1.389D+00 exceeds max=3.000D-01 adjusted using Lamda=-1.235D+00.
 Angle between NR and scaled steps=  35.90 degrees.
 Angle between quadratic step and forces=  17.15 degrees.
 Linear search not attempted -- first point.
 TrRot= -0.001883 -0.004031  0.000215 -0.091139  0.000168  0.091072
 Variable       Old X    -DE/DX   Delta X   Delta X   Delta X     New X
                                 (Linear)    (Quad)   (Total)
    X1        1.74471   0.26107   0.00000   0.08597   0.08399   1.82871
    Y1       -1.38076  -0.00070   0.00000  -0.01779  -0.02194  -1.40270
    Z1        0.00451  -0.00763   0.00000  -0.00303  -0.00314   0.00136
    X2       -0.58548  -0.42730   0.00000  -0.15695  -0.15896  -0.74444
    Y2       -2.11211  -0.05717   0.00000  -0.02322  -0.02720  -2.13931
    Z2        0.06263  -0.00322   0.00000  -0.00251  -0.00221   0.06043
    X3       -2.19341   0.17884   0.00000   0.06638   0.06449  -2.12892
    Y3        0.02983  -0.01391   0.00000  -0.00709  -0.01098   0.01885
    Z3       -0.03650   0.01788   0.00000   0.00841   0.00898  -0.02751
    X4       -0.61755  -0.35868   0.00000  -0.13438  -0.13612  -0.75366
    Y4        2.15122  -0.03125   0.00000  -0.00107  -0.00505   2.14617
    Z4        0.05746  -0.00314   0.00000  -0.00421  -0.00384   0.05362
    X5        1.72124   0.24906   0.00000   0.09220   0.09040   1.81164
    Y5        1.38267  -0.00920   0.00000   0.01585   0.01170   1.39437
    Z5       -0.03606  -0.00593   0.00000  -0.00110  -0.00116  -0.03722
    X6        3.34614   0.07865   0.00000   0.06590   0.06420   3.41034
    Y6        2.53147   0.05194   0.00000   0.04537   0.04112   2.57258
    Z6        0.07409   0.00211   0.00000   0.00253   0.00221   0.07631
    X7       -1.54206  -0.04894   0.00000  -0.04384  -0.04547  -1.58753
    Y7        3.77473   0.15683   0.00000   0.10480   0.10088   3.87561
    Z7       -0.02923  -0.00146   0.00000  -0.00158  -0.00104  -0.03027
    X8       -1.68197   0.00247   0.00000  -0.01567  -0.01782  -1.69979
    Y8       -3.89077  -0.05622   0.00000  -0.04797  -0.05189  -3.94266
    Z8       -0.01289   0.00217   0.00000   0.00037   0.00081  -0.01208
    X9        3.37177   0.06482   0.00000   0.05734   0.05528   3.42705
    Y9       -2.59250  -0.04031   0.00000  -0.03237  -0.03662  -2.62913
    Z9       -0.02229  -0.00079   0.00000  -0.00021  -0.00061  -0.02290
         Item               Value     Threshold  Converged?
 Maximum Force            0.427298     0.000450     NO 
 RMS     Force            0.139210     0.000300     NO 
 Maximum Displacement     0.158962     0.001800     NO 
 RMS     Displacement     0.057821     0.001200     NO 
 Predicted change in Energy=-1.597756D-01
 GradGradGradGradGradGradGradGradGradGradGradGradGradGradGradGradGradGrad

 Leave Link  103 at Tue Dec 15 17:06:58 2015, MaxMem=    33554432 cpu:         0.0
 (Enter /home/Applications/g09/g09/l9999.exe)
 1\1\GINC-DUSTIN-DESKTOP\Force\RAM1-FC\STO-3G\C4H4O1\DUSTIN\15-Dec-2015
 \0\\#P AM1(Input,print) CIS(Singlets,NStates=15) pop(full) force\\AM1-
 Reparam Input\\0,1\C,0.923262,-0.730666,0.002384\C,-0.309824,-1.11768,
 0.033144\O,-1.160702,0.015787,-0.019313\C,-0.326792,1.138374,0.030407\
 C,0.91084,0.73168,-0.019081\H,1.770703,1.339596,0.039209\H,-0.816023,1
 .997503,-0.015466\H,-0.890059,-2.058909,-0.006823\H,1.784266,-1.371894
 ,-0.011794\\Version=ES64L-G09RevD.01\State=1-A\HF=1.7949391\RMSD=3.482
 e-09\RMSF=1.392e-01\Dipole=-4.8194268,-0.0692004,-0.2809235\PG=C01 [X(
 C4H4O1)]\\@


 IF AT FIRST YOU DON'T SUCCEED, TRY LOOKING IN 
 THE WASTEBASKET FOR THE DIRECTIONS.
 Job cpu time:       0 days  0 hours  0 minutes  0.7 seconds.
 File lengths (MBytes):  RWF=      7 Int=      0 D2E=      0 Chk=      2 Scr=      1
 Normal termination of Gaussian 09 at Tue Dec 15 17:06:58 2015.
