 Entering Gaussian System, Link 0=g09
 Input=FuranDFT_43.com
 Output=FuranDFT_43.log
 Initial command:
 /home/Applications/g09/g09/l1.exe "/home/Applications/g09/scratch/Gau-5868.inp" -scrdir="/home/Applications/g09/scratch/"
 Entering Link 1 = /home/Applications/g09/g09/l1.exe PID=      5870.
  
 Copyright (c) 1988,1990,1992,1993,1995,1998,2003,2009,2013,
            Gaussian, Inc.  All Rights Reserved.
  
 This is part of the Gaussian(R) 09 program.  It is based on
 the Gaussian(R) 03 system (copyright 2003, Gaussian, Inc.),
 the Gaussian(R) 98 system (copyright 1998, Gaussian, Inc.),
 the Gaussian(R) 94 system (copyright 1995, Gaussian, Inc.),
 the Gaussian 92(TM) system (copyright 1992, Gaussian, Inc.),
 the Gaussian 90(TM) system (copyright 1990, Gaussian, Inc.),
 the Gaussian 88(TM) system (copyright 1988, Gaussian, Inc.),
 the Gaussian 86(TM) system (copyright 1986, Carnegie Mellon
 University), and the Gaussian 82(TM) system (copyright 1983,
 Carnegie Mellon University). Gaussian is a federally registered
 trademark of Gaussian, Inc.
  
 This software contains proprietary and confidential information,
 including trade secrets, belonging to Gaussian, Inc.
  
 This software is provided under written license and may be
 used, copied, transmitted, or stored only in accord with that
 written license.
  
 The following legend is applicable only to US Government
 contracts under FAR:
  
                    RESTRICTED RIGHTS LEGEND
  
 Use, reproduction and disclosure by the US Government is
 subject to restrictions as set forth in subparagraphs (a)
 and (c) of the Commercial Computer Software - Restricted
 Rights clause in FAR 52.227-19.
  
 Gaussian, Inc.
 340 Quinnipiac St., Bldg. 40, Wallingford CT 06492
  
  
 ---------------------------------------------------------------
 Warning -- This program may not be used in any manner that
 competes with the business of Gaussian, Inc. or will provide
 assistance to any competitor of Gaussian, Inc.  The licensee
 of this program is prohibited from giving any competitor of
 Gaussian, Inc. access to this program.  By using this program,
 the user acknowledges that Gaussian, Inc. is engaged in the
 business of creating and licensing software in the field of
 computational chemistry and represents and warrants to the
 licensee that it is not a competitor of Gaussian, Inc. and that
 it will not use this program in any manner prohibited above.
 ---------------------------------------------------------------
  

 Cite this work as:
 Gaussian 09, Revision D.01,
 M. J. Frisch, G. W. Trucks, H. B. Schlegel, G. E. Scuseria, 
 M. A. Robb, J. R. Cheeseman, G. Scalmani, V. Barone, B. Mennucci, 
 G. A. Petersson, H. Nakatsuji, M. Caricato, X. Li, H. P. Hratchian, 
 A. F. Izmaylov, J. Bloino, G. Zheng, J. L. Sonnenberg, M. Hada, 
 M. Ehara, K. Toyota, R. Fukuda, J. Hasegawa, M. Ishida, T. Nakajima, 
 Y. Honda, O. Kitao, H. Nakai, T. Vreven, J. A. Montgomery, Jr., 
 J. E. Peralta, F. Ogliaro, M. Bearpark, J. J. Heyd, E. Brothers, 
 K. N. Kudin, V. N. Staroverov, T. Keith, R. Kobayashi, J. Normand, 
 K. Raghavachari, A. Rendell, J. C. Burant, S. S. Iyengar, J. Tomasi, 
 M. Cossi, N. Rega, J. M. Millam, M. Klene, J. E. Knox, J. B. Cross, 
 V. Bakken, C. Adamo, J. Jaramillo, R. Gomperts, R. E. Stratmann, 
 O. Yazyev, A. J. Austin, R. Cammi, C. Pomelli, J. W. Ochterski, 
 R. L. Martin, K. Morokuma, V. G. Zakrzewski, G. A. Voth, 
 P. Salvador, J. J. Dannenberg, S. Dapprich, A. D. Daniels, 
 O. Farkas, J. B. Foresman, J. V. Ortiz, J. Cioslowski, 
 and D. J. Fox, Gaussian, Inc., Wallingford CT, 2013.
 
 ******************************************
 Gaussian 09:  ES64L-G09RevD.01 24-Apr-2013
                15-Dec-2015 
 ******************************************
 -------------------------------------------------------
 #P B3LYP/3-21G CIS(Singlets,NStates=15) pop(full) force
 -------------------------------------------------------
 1/10=7,30=1,38=1/1,3;
 2/12=2,17=6,18=5,40=1/2;
 3/5=5,11=9,16=1,25=1,30=1,71=1,74=-5/1,2,8,3;
 4//1;
 5/5=2,38=5/2;
 8/6=1,10=1,108=15/1;
 9/15=2,41=15,42=1,48=1/14;
 10/5=4/2;
 6/7=3,18=1/1;
 7/12=6,13=5,29=1/1,2,3,16;
 1/10=7,30=1/3;
 99//99;
 Leave Link    1 at Tue Dec 15 16:18:53 2015, MaxMem=           0 cpu:         0.0
 (Enter /home/Applications/g09/g09/l101.exe)
 --------
 FuranDFT
 --------
 Symbolic Z-matrix:
 Charge =  0 Multiplicity = 1
 6                     0.96545  -0.69164   0.01898 
 6                    -0.3718   -1.12657   0.01927 
 8                    -1.13023   0.03669   0.00689 
 6                    -0.29797   1.10673   0.00309 
 6                     0.94164   0.76177  -0.01812 
 1                     1.76698   1.37378  -0.04022 
 1                    -0.79493   2.00962  -0.02552 
 1                    -0.81291  -2.01008   0.04441 
 1                     1.80119  -1.40022   0.04508 
 
 NAtoms=      9 NQM=        9 NQMF=       0 NMMI=      0 NMMIF=      0
                NMic=       0 NMicF=      0.
                    Isotopes and Nuclear Properties:
 (Nuclear quadrupole moments (NQMom) in fm**2, nuclear magnetic moments (NMagM)
  in nuclear magnetons)

  Atom         1           2           3           4           5           6           7           8           9
 IAtWgt=          12          12          16          12          12           1           1           1           1
 AtmWgt=  12.0000000  12.0000000  15.9949146  12.0000000  12.0000000   1.0078250   1.0078250   1.0078250   1.0078250
 NucSpn=           0           0           0           0           0           1           1           1           1
 AtZEff=   0.0000000   0.0000000   0.0000000   0.0000000   0.0000000   0.0000000   0.0000000   0.0000000   0.0000000
 NQMom=    0.0000000   0.0000000   0.0000000   0.0000000   0.0000000   0.0000000   0.0000000   0.0000000   0.0000000
 NMagM=    0.0000000   0.0000000   0.0000000   0.0000000   0.0000000   2.7928460   2.7928460   2.7928460   2.7928460
 AtZNuc=   6.0000000   6.0000000   8.0000000   6.0000000   6.0000000   1.0000000   1.0000000   1.0000000   1.0000000
 Leave Link  101 at Tue Dec 15 16:18:53 2015, MaxMem=    33554432 cpu:         0.0
 (Enter /home/Applications/g09/g09/l103.exe)

 GradGradGradGradGradGradGradGradGradGradGradGradGradGradGradGradGradGrad
 Berny optimization.
 Initialization pass.
 Trust Radius=3.00D-01 FncErr=1.00D-07 GrdErr=1.00D-07
 Number of steps in this run=      2 maximum allowed number of steps=      2.
 GradGradGradGradGradGradGradGradGradGradGradGradGradGradGradGradGradGrad

 Leave Link  103 at Tue Dec 15 16:18:53 2015, MaxMem=    33554432 cpu:         0.0
 (Enter /home/Applications/g09/g09/l202.exe)
                          Input orientation:                          
 ---------------------------------------------------------------------
 Center     Atomic      Atomic             Coordinates (Angstroms)
 Number     Number       Type             X           Y           Z
 ---------------------------------------------------------------------
      1          6           0        0.965454   -0.691642    0.018978
      2          6           0       -0.371797   -1.126569    0.019270
      3          8           0       -1.130230    0.036691    0.006891
      4          6           0       -0.297972    1.106729    0.003092
      5          6           0        0.941641    0.761768   -0.018118
      6          1           0        1.766977    1.373778   -0.040216
      7          1           0       -0.794934    2.009617   -0.025516
      8          1           0       -0.812912   -2.010075    0.044408
      9          1           0        1.801185   -1.400221    0.045079
 ---------------------------------------------------------------------
                    Distance matrix (angstroms):
                    1          2          3          4          5
     1  C    0.000000
     2  C    1.406201   0.000000
     3  O    2.218672   1.388722   0.000000
     4  C    2.197871   2.234576   1.355599   0.000000
     5  C    1.454078   2.300507   2.195225   1.286891   0.000000
     6  H    2.216281   3.290840   3.191211   2.082596   1.027728
     7  H    3.224554   3.164919   2.001477   1.031017   2.138428
     8  H    2.213933   0.987824   2.071557   3.159325   3.281079
     9  H    1.095998   2.190297   3.264869   3.270019   2.327446
                    6          7          8          9
     6  H    0.000000
     7  H    2.639677   0.000000
     8  H    4.255990   4.020340   0.000000
     9  H    2.775521   4.286235   2.684292   0.000000
 Stoichiometry    C4H4O
 Framework group  C1[X(C4H4O)]
 Deg. of freedom    21
 Full point group                 C1      NOp   1
 Largest Abelian subgroup         C1      NOp   1
 Largest concise Abelian subgroup C1      NOp   1
                         Standard orientation:                         
 ---------------------------------------------------------------------
 Center     Atomic      Atomic             Coordinates (Angstroms)
 Number     Number       Type             X           Y           Z
 ---------------------------------------------------------------------
      1          6           0        0.569653    1.043992    0.004934
      2          6           0        1.183941   -0.220889   -0.006324
      3          8           0        0.135734   -1.131821   -0.002770
      4          6           0       -1.038320   -0.454336    0.013365
      5          6           0       -0.867145    0.820923   -0.009065
      6          1           0       -1.586914    1.554453   -0.018553
      7          1           0       -1.864804   -1.070508   -0.002558
      8          1           0        2.119918   -0.536569    0.003201
      9          1           0        1.157157    1.969053    0.022617
 ---------------------------------------------------------------------
 Rotational constants (GHZ):      9.6647206      9.1782159      4.7080163
 Leave Link  202 at Tue Dec 15 16:18:53 2015, MaxMem=    33554432 cpu:         0.0
 (Enter /home/Applications/g09/g09/l301.exe)
 Standard basis: 3-21G (6D, 7F)
 Ernie: Thresh=  0.10000D-02 Tol=  0.10000D-05 Strict=F.
 There are    53 symmetry adapted cartesian basis functions of A   symmetry.
 There are    53 symmetry adapted basis functions of A   symmetry.
    53 basis functions,    87 primitive gaussians,    53 cartesian basis functions
    18 alpha electrons       18 beta electrons
       nuclear repulsion energy       161.5893410507 Hartrees.
 IExCor=  402 DFT=T Ex+Corr=B3LYP ExCW=0 ScaHFX=  0.200000
 ScaDFX=  0.800000  0.720000  1.000000  0.810000 ScalE2=  1.000000  1.000000
 IRadAn=      0 IRanWt=     -1 IRanGd=            0 ICorTp=0 IEmpDi=  4
 NAtoms=    9 NActive=    9 NUniq=    9 SFac= 1.00D+00 NAtFMM=   60 NAOKFM=F Big=F
 Integral buffers will be    131072 words long.
 Regular integral format.
 Two-electron integral symmetry is turned on.
 Leave Link  301 at Tue Dec 15 16:18:53 2015, MaxMem=    33554432 cpu:         0.0
 (Enter /home/Applications/g09/g09/l302.exe)
 NPDir=0 NMtPBC=     1 NCelOv=     1 NCel=       1 NClECP=     1 NCelD=      1
         NCelK=      1 NCelE2=     1 NClLst=     1 CellRange=     0.0.
 One-electron integrals computed using PRISM.
 NBasis=    53 RedAO= T EigKep=  3.07D-03  NBF=    53
 NBsUse=    53 1.00D-06 EigRej= -1.00D+00 NBFU=    53
 Precomputing XC quadrature grid using
 IXCGrd= 4 IRadAn=           0 IRanWt=          -1 IRanGd=           0 AccXCQ= 0.00D+00.
 Generated NRdTot=       0 NPtTot=           0 NUsed=           0 NTot=          32
 NSgBfM=    53    53    53    53    53 MxSgAt=     9 MxSgA2=     9.
 Leave Link  302 at Tue Dec 15 16:18:53 2015, MaxMem=    33554432 cpu:         0.1
 (Enter /home/Applications/g09/g09/l308.exe)
 Leave Link  308 at Tue Dec 15 16:18:53 2015, MaxMem=    33554432 cpu:         0.0
 (Enter /home/Applications/g09/g09/l303.exe)
 DipDrv:  MaxL=1.
 Leave Link  303 at Tue Dec 15 16:18:53 2015, MaxMem=    33554432 cpu:         0.0
 (Enter /home/Applications/g09/g09/l401.exe)
 ExpMin= 1.83D-01 ExpMax= 3.22D+02 ExpMxC= 3.22D+02 IAcc=1 IRadAn=         1 AccDes= 0.00D+00
 Harris functional with IExCor=  402 and IRadAn=       1 diagonalized for initial guess.
 HarFok:  IExCor=  402 AccDes= 0.00D+00 IRadAn=         1 IDoV= 1 UseB2=F ITyADJ=14
 ICtDFT=  3500011 ScaDFX=  1.000000  1.000000  1.000000  1.000000
 FoFCou: FMM=F IPFlag=           0 FMFlag=      100000 FMFlg1=           0
         NFxFlg=           0 DoJE=T BraDBF=F KetDBF=T FulRan=T
         wScrn=  0.000000 ICntrl=     500 IOpCl=  0 I1Cent=   200000004 NGrid=           0
         NMat0=    1 NMatS0=      1 NMatT0=    0 NMatD0=    1 NMtDS0=    0 NMtDT0=    0
 Petite list used in FoFCou.
 Harris En= -228.730670355477    
 JPrj=0 DoOrth=F DoCkMO=F.
 Leave Link  401 at Tue Dec 15 16:18:54 2015, MaxMem=    33554432 cpu:         0.2
 (Enter /home/Applications/g09/g09/l502.exe)
 Closed shell SCF:
 Using DIIS extrapolation, IDIIS=  1040.
 Integral symmetry usage will be decided dynamically.
 Keep R1 ints in memory in canonical form, NReq=1925595.
 IVT=       27707 IEndB=       27707 NGot=    33554432 MDV=    32502130
 LenX=    32502130 LenY=    32498880
 Requested convergence on RMS density matrix=1.00D-08 within 128 cycles.
 Requested convergence on MAX density matrix=1.00D-06.
 Requested convergence on             energy=1.00D-06.
 No special actions if energy rises.
 FoFCou: FMM=F IPFlag=           0 FMFlag=           0 FMFlg1=           0
         NFxFlg=           0 DoJE=F BraDBF=F KetDBF=F FulRan=T
         wScrn=  0.000000 ICntrl=     600 IOpCl=  0 I1Cent=           0 NGrid=           0
         NMat0=    1 NMatS0=   1431 NMatT0=    0 NMatD0=    1 NMtDS0=    0 NMtDT0=    0
 Symmetry not used in FoFCou.
 Integral accuracy reduced to 1.0D-05 until final iterations.

 Cycle   1  Pass 0  IDiag  1:
 E= -228.650747064674    
 DIIS: error= 3.59D-02 at cycle   1 NSaved=   1.
 NSaved= 1 IEnMin= 1 EnMin= -228.650747064674     IErMin= 1 ErrMin= 3.59D-02
 ErrMax= 3.59D-02  0.00D+00 EMaxC= 1.00D-01 BMatC= 7.75D-02 BMatP= 7.75D-02
 IDIUse=3 WtCom= 6.41D-01 WtEn= 3.59D-01
 Coeff-Com:  0.100D+01
 Coeff-En:   0.100D+01
 Coeff:      0.100D+01
 Gap=     0.236 Goal=   None    Shift=    0.000
 GapD=    0.236 DampG=1.000 DampE=0.500 DampFc=0.5000 IDamp=-1.
 Damping current iteration by 5.00D-01
 RMSDP=1.15D-02 MaxDP=1.22D-01              OVMax= 1.78D-01

 Cycle   2  Pass 0  IDiag  1:
 E= -228.683766192653     Delta-E=       -0.033019127980 Rises=F Damp=T
 DIIS: error= 1.37D-02 at cycle   2 NSaved=   2.
 NSaved= 2 IEnMin= 2 EnMin= -228.683766192653     IErMin= 2 ErrMin= 1.37D-02
 ErrMax= 1.37D-02  0.00D+00 EMaxC= 1.00D-01 BMatC= 8.74D-03 BMatP= 7.75D-02
 IDIUse=3 WtCom= 8.63D-01 WtEn= 1.37D-01
 Coeff-Com:  0.867D-01 0.913D+00
 Coeff-En:   0.152D+00 0.848D+00
 Coeff:      0.956D-01 0.904D+00
 Gap=     0.252 Goal=   None    Shift=    0.000
 RMSDP=4.50D-03 MaxDP=4.51D-02 DE=-3.30D-02 OVMax= 1.51D-01

 Cycle   3  Pass 0  IDiag  1:
 E= -228.719783690819     Delta-E=       -0.036017498166 Rises=F Damp=F
 DIIS: error= 2.20D-02 at cycle   3 NSaved=   3.
 NSaved= 3 IEnMin= 3 EnMin= -228.719783690819     IErMin= 2 ErrMin= 1.37D-02
 ErrMax= 2.20D-02  0.00D+00 EMaxC= 1.00D-01 BMatC= 1.30D-02 BMatP= 8.74D-03
 IDIUse=2 WtCom= 0.00D+00 WtEn= 1.00D+00
 Coeff-En:   0.000D+00 0.000D+00 0.100D+01
 Coeff:      0.000D+00 0.000D+00 0.100D+01
 Gap=     0.240 Goal=   None    Shift=    0.000
 RMSDP=6.41D-03 MaxDP=5.36D-02 DE=-3.60D-02 OVMax= 1.26D-01

 Cycle   4  Pass 0  IDiag  1:
 E= -228.682209421578     Delta-E=        0.037574269241 Rises=F Damp=F
 DIIS: error= 4.60D-02 at cycle   4 NSaved=   4.
 NSaved= 4 IEnMin= 3 EnMin= -228.719783690819     IErMin= 2 ErrMin= 1.37D-02
 ErrMax= 4.60D-02  0.00D+00 EMaxC= 1.00D-01 BMatC= 5.34D-02 BMatP= 8.74D-03
 IDIUse=2 WtCom= 0.00D+00 WtEn= 1.00D+00
 Coeff-En:   0.000D+00 0.000D+00 0.754D+00 0.246D+00
 Coeff:      0.000D+00 0.000D+00 0.754D+00 0.246D+00
 Gap=     0.251 Goal=   None    Shift=    0.000
 RMSDP=3.21D-03 MaxDP=2.54D-02 DE= 3.76D-02 OVMax= 6.72D-02

 Cycle   5  Pass 0  IDiag  1:
 E= -228.728942334396     Delta-E=       -0.046732912818 Rises=F Damp=F
 DIIS: error= 1.13D-02 at cycle   5 NSaved=   5.
 NSaved= 5 IEnMin= 5 EnMin= -228.728942334396     IErMin= 5 ErrMin= 1.13D-02
 ErrMax= 1.13D-02  0.00D+00 EMaxC= 1.00D-01 BMatC= 3.20D-03 BMatP= 8.74D-03
 IDIUse=3 WtCom= 8.87D-01 WtEn= 1.13D-01
 Coeff-Com: -0.754D-02 0.283D-01 0.229D+00-0.109D+00 0.859D+00
 Coeff-En:   0.000D+00 0.000D+00 0.243D+00 0.000D+00 0.757D+00
 Coeff:     -0.669D-02 0.251D-01 0.231D+00-0.972D-01 0.848D+00
 Gap=     0.256 Goal=   None    Shift=    0.000
 RMSDP=1.14D-03 MaxDP=9.36D-03 DE=-4.67D-02 OVMax= 2.31D-02

 Cycle   6  Pass 0  IDiag  1:
 E= -228.731901673401     Delta-E=       -0.002959339004 Rises=F Damp=F
 DIIS: error= 7.74D-04 at cycle   6 NSaved=   6.
 NSaved= 6 IEnMin= 6 EnMin= -228.731901673401     IErMin= 6 ErrMin= 7.74D-04
 ErrMax= 7.74D-04  0.00D+00 EMaxC= 1.00D-01 BMatC= 1.57D-05 BMatP= 3.20D-03
 IDIUse=3 WtCom= 9.92D-01 WtEn= 7.74D-03
 Coeff-Com: -0.509D-02 0.137D-01 0.862D-01-0.560D-01 0.412D+00 0.549D+00
 Coeff-En:   0.000D+00 0.000D+00 0.000D+00 0.000D+00 0.000D+00 0.100D+01
 Coeff:     -0.505D-02 0.136D-01 0.856D-01-0.556D-01 0.409D+00 0.553D+00
 Gap=     0.256 Goal=   None    Shift=    0.000
 RMSDP=7.73D-05 MaxDP=6.64D-04 DE=-2.96D-03 OVMax= 1.70D-03

 Cycle   7  Pass 0  IDiag  1:
 E= -228.731915323274     Delta-E=       -0.000013649874 Rises=F Damp=F
 DIIS: error= 1.31D-04 at cycle   7 NSaved=   7.
 NSaved= 7 IEnMin= 7 EnMin= -228.731915323274     IErMin= 7 ErrMin= 1.31D-04
 ErrMax= 1.31D-04  0.00D+00 EMaxC= 1.00D-01 BMatC= 5.90D-07 BMatP= 1.57D-05
 IDIUse=3 WtCom= 9.99D-01 WtEn= 1.31D-03
 Coeff-Com: -0.214D-02 0.470D-02 0.209D-01-0.208D-01 0.139D+00 0.335D+00
 Coeff-Com:  0.523D+00
 Coeff-En:   0.000D+00 0.000D+00 0.000D+00 0.000D+00 0.000D+00 0.000D+00
 Coeff-En:   0.100D+01
 Coeff:     -0.214D-02 0.469D-02 0.209D-01-0.208D-01 0.139D+00 0.335D+00
 Coeff:      0.524D+00
 Gap=     0.256 Goal=   None    Shift=    0.000
 RMSDP=1.37D-05 MaxDP=1.76D-04 DE=-1.36D-05 OVMax= 3.59D-04

 Cycle   8  Pass 0  IDiag  1:
 E= -228.731915851803     Delta-E=       -0.000000528528 Rises=F Damp=F
 DIIS: error= 1.51D-05 at cycle   8 NSaved=   8.
 NSaved= 8 IEnMin= 8 EnMin= -228.731915851803     IErMin= 8 ErrMin= 1.51D-05
 ErrMax= 1.51D-05  0.00D+00 EMaxC= 1.00D-01 BMatC= 1.69D-08 BMatP= 5.90D-07
 IDIUse=1 WtCom= 1.00D+00 WtEn= 0.00D+00
 Coeff-Com: -0.276D-03 0.284D-03 0.422D-02-0.353D-02 0.289D-01 0.113D+00
 Coeff-Com:  0.222D+00 0.635D+00
 Coeff:     -0.276D-03 0.284D-03 0.422D-02-0.353D-02 0.289D-01 0.113D+00
 Coeff:      0.222D+00 0.635D+00
 Gap=     0.256 Goal=   None    Shift=    0.000
 RMSDP=2.49D-06 MaxDP=3.61D-05 DE=-5.29D-07 OVMax= 4.31D-05

 Initial convergence to 1.0D-05 achieved.  Increase integral accuracy.
 Cycle   9  Pass 1  IDiag  1:
 E= -228.731954363323     Delta-E=       -0.000038511520 Rises=F Damp=F
 DIIS: error= 1.19D-05 at cycle   1 NSaved=   1.
 NSaved= 1 IEnMin= 1 EnMin= -228.731954363323     IErMin= 1 ErrMin= 1.19D-05
 ErrMax= 1.19D-05  0.00D+00 EMaxC= 1.00D-01 BMatC= 8.38D-09 BMatP= 8.38D-09
 IDIUse=1 WtCom= 1.00D+00 WtEn= 0.00D+00
 Coeff-Com:  0.100D+01
 Coeff:      0.100D+01
 Gap=     0.256 Goal=   None    Shift=    0.000
 RMSDP=2.49D-06 MaxDP=3.61D-05 DE=-3.85D-05 OVMax= 4.11D-05

 Cycle  10  Pass 1  IDiag  1:
 E= -228.731954375530     Delta-E=       -0.000000012207 Rises=F Damp=F
 DIIS: error= 2.50D-06 at cycle   2 NSaved=   2.
 NSaved= 2 IEnMin= 2 EnMin= -228.731954375530     IErMin= 2 ErrMin= 2.50D-06
 ErrMax= 2.50D-06  0.00D+00 EMaxC= 1.00D-01 BMatC= 4.65D-10 BMatP= 8.38D-09
 IDIUse=1 WtCom= 1.00D+00 WtEn= 0.00D+00
 Coeff-Com:  0.348D-01 0.965D+00
 Coeff:      0.348D-01 0.965D+00
 Gap=     0.256 Goal=   None    Shift=    0.000
 RMSDP=1.04D-06 MaxDP=1.13D-05 DE=-1.22D-08 OVMax= 2.50D-05

 Cycle  11  Pass 1  IDiag  1:
 E= -228.731954374996     Delta-E=        0.000000000535 Rises=F Damp=F
 DIIS: error= 5.21D-06 at cycle   3 NSaved=   3.
 NSaved= 3 IEnMin= 2 EnMin= -228.731954375530     IErMin= 2 ErrMin= 2.50D-06
 ErrMax= 5.21D-06  0.00D+00 EMaxC= 1.00D-01 BMatC= 1.03D-09 BMatP= 4.65D-10
 IDIUse=1 WtCom= 1.00D+00 WtEn= 0.00D+00
 Coeff-Com: -0.237D-01 0.616D+00 0.407D+00
 Coeff:     -0.237D-01 0.616D+00 0.407D+00
 Gap=     0.256 Goal=   None    Shift=    0.000
 RMSDP=6.48D-07 MaxDP=6.54D-06 DE= 5.35D-10 OVMax= 1.71D-05

 Cycle  12  Pass 1  IDiag  1:
 E= -228.731954375996     Delta-E=       -0.000000001000 Rises=F Damp=F
 DIIS: error= 9.64D-07 at cycle   4 NSaved=   4.
 NSaved= 4 IEnMin= 4 EnMin= -228.731954375996     IErMin= 4 ErrMin= 9.64D-07
 ErrMax= 9.64D-07  0.00D+00 EMaxC= 1.00D-01 BMatC= 3.75D-11 BMatP= 4.65D-10
 IDIUse=1 WtCom= 1.00D+00 WtEn= 0.00D+00
 Coeff-Com: -0.160D-01 0.289D+00 0.232D+00 0.495D+00
 Coeff:     -0.160D-01 0.289D+00 0.232D+00 0.495D+00
 Gap=     0.256 Goal=   None    Shift=    0.000
 RMSDP=1.40D-07 MaxDP=2.10D-06 DE=-1.00D-09 OVMax= 2.35D-06

 Cycle  13  Pass 1  IDiag  1:
 E= -228.731954376029     Delta-E=       -0.000000000034 Rises=F Damp=F
 DIIS: error= 2.09D-07 at cycle   5 NSaved=   5.
 NSaved= 5 IEnMin= 5 EnMin= -228.731954376029     IErMin= 5 ErrMin= 2.09D-07
 ErrMax= 2.09D-07  0.00D+00 EMaxC= 1.00D-01 BMatC= 2.02D-12 BMatP= 3.75D-11
 IDIUse=1 WtCom= 1.00D+00 WtEn= 0.00D+00
 Coeff-Com: -0.621D-02 0.962D-01 0.850D-01 0.252D+00 0.573D+00
 Coeff:     -0.621D-02 0.962D-01 0.850D-01 0.252D+00 0.573D+00
 Gap=     0.256 Goal=   None    Shift=    0.000
 RMSDP=3.26D-08 MaxDP=4.06D-07 DE=-3.37D-11 OVMax= 8.11D-07

 Cycle  14  Pass 1  IDiag  1:
 E= -228.731954376032     Delta-E=       -0.000000000003 Rises=F Damp=F
 DIIS: error= 7.26D-08 at cycle   6 NSaved=   6.
 NSaved= 6 IEnMin= 6 EnMin= -228.731954376032     IErMin= 6 ErrMin= 7.26D-08
 ErrMax= 7.26D-08  0.00D+00 EMaxC= 1.00D-01 BMatC= 3.11D-13 BMatP= 2.02D-12
 IDIUse=1 WtCom= 1.00D+00 WtEn= 0.00D+00
 Coeff-Com: -0.517D-03-0.723D-03 0.479D-02 0.507D-01 0.316D+00 0.630D+00
 Coeff:     -0.517D-03-0.723D-03 0.479D-02 0.507D-01 0.316D+00 0.630D+00
 Gap=     0.256 Goal=   None    Shift=    0.000
 RMSDP=1.12D-08 MaxDP=1.00D-07 DE=-2.61D-12 OVMax= 2.69D-07

 Cycle  15  Pass 1  IDiag  1:
 E= -228.731954376031     Delta-E=        0.000000000001 Rises=F Damp=F
 DIIS: error= 2.26D-08 at cycle   7 NSaved=   7.
 NSaved= 7 IEnMin= 6 EnMin= -228.731954376032     IErMin= 7 ErrMin= 2.26D-08
 ErrMax= 2.26D-08  0.00D+00 EMaxC= 1.00D-01 BMatC= 2.17D-14 BMatP= 3.11D-13
 IDIUse=1 WtCom= 1.00D+00 WtEn= 0.00D+00
 Coeff-Com:  0.134D-03-0.502D-02-0.118D-02 0.126D-01 0.138D+00 0.326D+00
 Coeff-Com:  0.529D+00
 Coeff:      0.134D-03-0.502D-02-0.118D-02 0.126D-01 0.138D+00 0.326D+00
 Coeff:      0.529D+00
 Gap=     0.256 Goal=   None    Shift=    0.000
 RMSDP=3.55D-09 MaxDP=3.56D-08 DE= 7.96D-13 OVMax= 6.52D-08

 SCF Done:  E(RB3LYP) =  -228.731954376     A.U. after   15 cycles
            NFock= 15  Conv=0.35D-08     -V/T= 2.0069
 KE= 2.271618694604D+02 PE=-8.559847422101D+02 EE= 2.385015773230D+02
 Leave Link  502 at Tue Dec 15 16:18:58 2015, MaxMem=    33554432 cpu:         4.1
 (Enter /home/Applications/g09/g09/l801.exe)
 DoSCS=F DFT=T ScalE2(SS,OS)=  1.000000  1.000000
 ExpMin= 1.83D-01 ExpMax= 3.22D+02 ExpMxC= 3.22D+02 IAcc=3 IRadAn=         5 AccDes= 0.00D+00
 HarFok:  IExCor=  205 AccDes= 0.00D+00 IRadAn=         5 IDoV=-2 UseB2=F ITyADJ=14
 ICtDFT= 12500011 ScaDFX=  1.000000  1.000000  1.000000  1.000000
 Largest valence mixing into a core orbital is  1.75D-04
 Largest core mixing into a valence orbital is  4.79D-05
 Range of M.O.s used for correlation:     6    53
 NBasis=    53 NAE=    18 NBE=    18 NFC=     5 NFV=     0
 NROrb=     48 NOA=    13 NOB=    13 NVA=    35 NVB=    35
 Leave Link  801 at Tue Dec 15 16:18:58 2015, MaxMem=    33554432 cpu:         0.2
 (Enter /home/Applications/g09/g09/l914.exe)
 RHF ground state
 MDV=    33554432 DFT=T DoStab=F Mixed=T DoRPA=F DoScal=F NonHer=F
 Keep R1, R2, and R3 ints in memory in canonical form, NReq=5596273.
 FoFCou: FMM=F IPFlag=           0 FMFlag=           0 FMFlg1=           0
         NFxFlg=           0 DoJE=F BraDBF=F KetDBF=F FulRan=T
         wScrn=  0.000000 ICntrl=     600 IOpCl=  0 I1Cent=           0 NGrid=           0
         NMat0=    1 NMatS0=   1431 NMatT0=    0 NMatD0=    1 NMtDS0=    0 NMtDT0=    0
 Symmetry not used in FoFCou.
 Making orbital integer symmetry assigments:
 Orbital symmetries:
       Occupied  (A) (A) (A) (A) (A) (A) (A) (A) (A) (A) (A) (A)
                 (A) (A) (A) (A) (A) (A)
       Virtual   (A) (A) (A) (A) (A) (A) (A) (A) (A) (A) (A) (A)
                 (A) (A) (A) (A) (A) (A) (A) (A) (A) (A) (A) (A)
                 (A) (A) (A) (A) (A) (A) (A) (A) (A) (A) (A)
    60 initial guesses have been made.
 Convergence on wavefunction:    0.000001000000000
 Davidson Disk Diagonalization:  ConvIn= 1.00D-06 SkipCon=T Conv= 1.00D-06.
 Max sub-space:   240 roots to seek:    60 dimension of matrix:          910
 Iteration     1 Dimension    60 NMult     0 NNew     60
 CISAX will form    60 AO SS matrices at one time.
 NMat=    60 NSing=    60 JSym2X= 0.
 New state      1 was old state      2
 New state      2 was old state      1
 New state      3 was old state      5
 New state      4 was old state      6
 New state      5 was old state      7
 New state      6 was old state      4
 New state      7 was old state      8
 New state      8 was old state     10
 New state     10 was old state     12
 New state     12 was old state     13
 New state     13 was old state     14
 New state     14 was old state      3
 Excitation Energies [eV] at current iteration:
 Root      1 :     7.451169109584584
 Root      2 :     8.165876635019856
 Root      3 :     8.518824708132987
 Root      4 :     8.905142168989139
 Root      5 :     9.633704770975765
 Root      6 :     9.815656036827042
 Root      7 :     9.972510431780115
 Root      8 :    10.024327386160420
 Root      9 :    10.266963944050590
 Root     10 :    10.290125329810010
 Root     11 :    10.524040330739060
 Root     12 :    10.656190475398460
 Root     13 :    10.741817051088300
 Root     14 :    11.099634982062880
 Root     15 :    11.291354566758510
 Root     16 :    11.329232018850000
 Root     17 :    11.365584279647720
 Root     18 :    11.477464301002160
 Root     19 :    11.611603612405590
 Root     20 :    11.733727832555700
 Root     21 :    11.922741130365810
 Root     22 :    12.102158783008080
 Root     23 :    12.221088948249460
 Root     24 :    12.482104185282480
 Root     25 :    12.740186763040520
 Root     26 :    13.374027907885130
 Root     27 :    13.607686242134110
 Root     28 :    13.733108432608350
 Root     29 :    13.797638846636770
 Root     30 :    13.949759217549590
 Root     31 :    14.126133931268180
 Root     32 :    14.224435594867040
 Root     33 :    14.412128556064840
 Root     34 :    14.460243277785370
 Root     35 :    14.571702013650230
 Root     36 :    14.638687107733430
 Root     37 :    14.717421427441470
 Root     38 :    14.741072069078040
 Root     39 :    14.925947285361080
 Root     40 :    15.092862926999030
 Root     41 :    15.111556147395290
 Root     42 :    15.333283655957750
 Root     43 :    15.345290939155500
 Root     44 :    15.577305270921280
 Root     45 :    15.633693746080120
 Root     46 :    15.684864439972380
 Root     47 :    15.805648391632070
 Root     48 :    15.876362164771940
 Root     49 :    16.008527608752280
 Root     50 :    16.120418896678220
 Root     51 :    16.208870781155650
 Root     52 :    16.239908515357540
 Root     53 :    16.267816499882900
 Root     54 :    16.425588682459270
 Root     55 :    16.700461516102770
 Root     56 :    16.748732692473260
 Root     57 :    17.095587571528320
 Root     58 :    17.540721296198370
 Root     59 :    17.950064658754460
 Root     60 :    18.499131148752180
 Iteration     2 Dimension   120 NMult    60 NNew     60
 CISAX will form    60 AO SS matrices at one time.
 NMat=    60 NSing=    60 JSym2X= 0.
 Root      1 not converged, maximum delta is    0.044129601986533
 Root      2 not converged, maximum delta is    0.056816308143840
 Root      3 not converged, maximum delta is    0.013393598321830
 Root      4 not converged, maximum delta is    0.036484933862994
 New state      5 was old state      6
 Root      5 not converged, maximum delta is    0.151141435657088
 New state      6 was old state      5
 Root      6 not converged, maximum delta is    0.129025745628404
 Root      7 not converged, maximum delta is    0.258592661313121
 Root      8 not converged, maximum delta is    0.037881468567432
 New state      9 was old state     14
 Root      9 not converged, maximum delta is    0.160107189355696
 New state     10 was old state      9
 Root     10 not converged, maximum delta is    0.046929470401569
 New state     11 was old state     10
 Root     11 not converged, maximum delta is    0.062025109952726
 New state     12 was old state     11
 Root     12 not converged, maximum delta is    0.024260223895753
 New state     13 was old state     12
 Root     13 not converged, maximum delta is    0.046411428481906
 New state     14 was old state     13
 Root     14 not converged, maximum delta is    0.035814769289675
 Root     15 not converged, maximum delta is    0.089720723899654
 Excitation Energies [eV] at current iteration:
 Root      1 :     7.292853453459426   Change is   -0.158315656125158
 Root      2 :     7.412523924025491   Change is   -0.753352710994366
 Root      3 :     8.496080972967595   Change is   -0.022743735165393
 Root      4 :     8.892503455274159   Change is   -0.012638713714979
 Root      5 :     9.230175292103386   Change is   -0.585480744723656
 Root      6 :     9.614466579273305   Change is   -0.019238191702459
 Root      7 :     9.939748116204935   Change is   -0.032762315575180
 Root      8 :    10.011552133044640   Change is   -0.012775253115788
 Root      9 :    10.065863869583360   Change is   -1.033771112479516
 Root     10 :    10.240899397691770   Change is   -0.026064546358824
 Root     11 :    10.278976294108570   Change is   -0.011149035701439
 Root     12 :    10.507310775335080   Change is   -0.016729555403976
 Root     13 :    10.645209319568350   Change is   -0.010981155830111
 Root     14 :    10.731881680512980   Change is   -0.009935370575320
 Root     15 :    11.268900713592720   Change is   -0.022453853165787
 Root     16 :    11.310991909218290   Change is   -0.018240109631704
 Root     17 :    11.349278638422000   Change is   -0.016305641225721
 Root     18 :    11.443671625697330   Change is   -0.033792675304836
 Root     19 :    11.574839246075310   Change is   -0.036764366330285
 Root     20 :    11.693354367963700   Change is   -0.040373464592007
 Root     21 :    11.769994511924130   Change is   -0.152746618441684
 Root     22 :    12.080656308974400   Change is   -0.021502474033685
 Root     23 :    12.180917063349500   Change is   -0.040171884899961
 Root     24 :    12.447604348806130   Change is   -0.034499836476352
 Root     25 :    12.640727419641210   Change is   -0.099459343399317
 Root     26 :    12.811059229415040   Change is   -0.562968678470089
 Root     27 :    13.400180089948800   Change is   -0.824255504918236
 Root     28 :    13.546866500338520   Change is   -0.250772346298252
 Root     29 :    13.593600900894020   Change is   -0.014085341240097
 Root     30 :    13.721241968869960   Change is   -0.011866463738389
 Root     31 :    13.878460423137190   Change is   -0.071298794412406
 Root     32 :    14.073148232418020   Change is   -0.052985698850159
 Root     33 :    14.279922004307200   Change is   -0.132206551757637
 Root     34 :    14.342060962334020   Change is   -0.118182315451344
 Root     35 :    14.466946107619580   Change is   -0.171741000113853
 Root     36 :    14.542854141583460   Change is   -0.028847872066774
 Root     37 :    14.650038337263480   Change is   -0.067383090177992
 Root     38 :    14.691194616563590   Change is   -0.049877452514456
 Root     39 :    14.782715025483980   Change is   -0.143232259877102
 Root     40 :    14.980646309120400   Change is   -0.130909838274890
 Root     41 :    15.072532211387160   Change is   -0.020330715611869
 Root     42 :    15.137808424905140   Change is   -0.195475231052611
 Root     43 :    15.310243433999400   Change is   -0.035047505156107
 Root     44 :    15.470824954509830   Change is   -0.106480316411457
 Root     45 :    15.555081691975000   Change is   -0.250566699657074
 Root     46 :    15.610122547574810   Change is   -0.023571198505310
 Root     47 :    15.623077994754760   Change is   -0.061786445217627
 Root     48 :    15.826737130555630   Change is   -0.049625034216312
 Root     49 :    15.845601744061290   Change is   -0.162925864690986
 Root     50 :    15.923155390985970   Change is   -0.285715390169681
 Root     51 :    15.930316234813710   Change is   -0.190102661864510
 Root     52 :    16.103559654148710   Change is   -0.136348861208835
 Root     53 :    16.239499127877990   Change is   -0.028317372004910
 Root     54 :    16.332617511051250   Change is   -0.762970060477070
 Root     55 :    16.380325100599160   Change is   -0.045263581860113
 Root     56 :    16.519204704904810   Change is   -0.181256811197957
 Root     57 :    16.557636317131810   Change is   -0.983084979066565
 Root     58 :    16.760926558850900   Change is   -1.189138099903565
 Root     59 :    16.905835696478320   Change is    0.157103004005058
 Root     60 :    17.160943878509410   Change is   -1.338187270242773
 Iteration     3 Dimension   135 NMult   120 NNew     15
 CISAX will form    15 AO SS matrices at one time.
 NMat=    15 NSing=    15 JSym2X= 0.
 Root      1 not converged, maximum delta is    0.001496878707106
 Root      2 not converged, maximum delta is    0.002847097654829
 Root      3 not converged, maximum delta is    0.000137117950037
 Root      4 not converged, maximum delta is    0.000447904974964
 Root      5 not converged, maximum delta is    0.002455461860217
 Root      6 not converged, maximum delta is    0.000283244465037
 Root      7 not converged, maximum delta is    0.005284635483041
 Root      8 not converged, maximum delta is    0.002009618946789
 Root      9 not converged, maximum delta is    0.006312075624526
 Root     10 not converged, maximum delta is    0.000506676096176
 Root     11 not converged, maximum delta is    0.001099718627459
 Root     12 not converged, maximum delta is    0.000459881614074
 Root     13 not converged, maximum delta is    0.000193214019921
 Root     14 not converged, maximum delta is    0.000134194329515
 Root     15 not converged, maximum delta is    0.000344629619933
 Excitation Energies [eV] at current iteration:
 Root      1 :     7.291817666165319   Change is   -0.001035787294107
 Root      2 :     7.410423211649014   Change is   -0.002100712376478
 Root      3 :     8.496066819921479   Change is   -0.000014153046115
 Root      4 :     8.892454860257109   Change is   -0.000048595017052
 Root      5 :     9.227642555614723   Change is   -0.002532736488661
 Root      6 :     9.614428344413549   Change is   -0.000038234859755
 Root      7 :     9.939302317552441   Change is   -0.000445798652494
 Root      8 :    10.011521273087250   Change is   -0.000030859957387
 Root      9 :    10.061755417594110   Change is   -0.004108451989255
 Root     10 :    10.240843400916320   Change is   -0.000055996775451
 Root     11 :    10.278894092174510   Change is   -0.000082201934059
 Root     12 :    10.507267643884740   Change is   -0.000043131450341
 Root     13 :    10.645186208179170   Change is   -0.000023111389183
 Root     14 :    10.731866020766660   Change is   -0.000015659746318
 Root     15 :    11.268869708768950   Change is   -0.000031004823774
 Iteration     4 Dimension   150 NMult   135 NNew     15
 CISAX will form    15 AO SS matrices at one time.
 NMat=    15 NSing=    15 JSym2X= 0.
 Root      1 not converged, maximum delta is    0.000043340115784
 Root      2 not converged, maximum delta is    0.000072758407012
 Root      3 not converged, maximum delta is    0.000002915160518
 Root      4 not converged, maximum delta is    0.000009976852192
 Root      5 not converged, maximum delta is    0.000076951957511
 Root      6 not converged, maximum delta is    0.000005517917464
 Root      7 not converged, maximum delta is    0.000042370029422
 Root      8 not converged, maximum delta is    0.000007069678595
 Root      9 not converged, maximum delta is    0.000128416132741
 Root     10 not converged, maximum delta is    0.000006328031092
 Root     11 not converged, maximum delta is    0.000019395643285
 Root     12 not converged, maximum delta is    0.000005075224597
 Root     13 not converged, maximum delta is    0.000007267415291
 Root     14 not converged, maximum delta is    0.000006699117478
 Root     15 not converged, maximum delta is    0.000006687558719
 Excitation Energies [eV] at current iteration:
 Root      1 :     7.291816259473577   Change is   -0.000001406691743
 Root      2 :     7.410420425094497   Change is   -0.000002786554517
 Root      3 :     8.496066815101271   Change is   -0.000000004820209
 Root      4 :     8.892454778064890   Change is   -0.000000082192218
 Root      5 :     9.227637948929040   Change is   -0.000004606685685
 Root      6 :     9.614428305428939   Change is   -0.000000038984610
 Root      7 :     9.939301458014734   Change is   -0.000000859537707
 Root      8 :    10.011521240071390   Change is   -0.000000033015859
 Root      9 :    10.061747657323620   Change is   -0.000007760270490
 Root     10 :    10.240843365508010   Change is   -0.000000035408309
 Root     11 :    10.278893961956840   Change is   -0.000000130217670
 Root     12 :    10.507267617618750   Change is   -0.000000026265992
 Root     13 :    10.645186180772910   Change is   -0.000000027406260
 Root     14 :    10.731866004449970   Change is   -0.000000016316696
 Root     15 :    11.268869688381140   Change is   -0.000000020387806
 Iteration     5 Dimension   165 NMult   150 NNew     15
 CISAX will form    15 AO SS matrices at one time.
 NMat=    15 NSing=    15 JSym2X= 0.
 Root      1 not converged, maximum delta is    0.000001500648052
 Root      2 not converged, maximum delta is    0.000002785231479
 Root      3 has converged.
 Root      4 has converged.
 Root      5 not converged, maximum delta is    0.000003519982658
 Root      6 has converged.
 Root      7 not converged, maximum delta is    0.000001820500717
 Root      8 has converged.
 Root      9 not converged, maximum delta is    0.000005436594115
 Root     10 not converged, maximum delta is    0.000001015081999
 Root     11 has converged.
 Root     12 has converged.
 Root     13 has converged.
 Root     14 has converged.
 Root     15 has converged.
 Excitation Energies [eV] at current iteration:
 Root      1 :     7.291816258212902   Change is   -0.000000001260675
 Root      2 :     7.410420422209814   Change is   -0.000000002884683
 Root      3 :     8.496066815099157   Change is   -0.000000000002115
 Root      4 :     8.892454777980966   Change is   -0.000000000083925
 Root      5 :     9.227637943951718   Change is   -0.000000004977321
 Root      6 :     9.614428305395380   Change is   -0.000000000033560
 Root      7 :     9.939301456955702   Change is   -0.000000001059032
 Root      8 :    10.011521240037490   Change is   -0.000000000033898
 Root      9 :    10.061747647405550   Change is   -0.000000009918064
 Root     10 :    10.240843365480120   Change is   -0.000000000027892
 Root     11 :    10.278893961789490   Change is   -0.000000000167352
 Root     12 :    10.507267617594070   Change is   -0.000000000024684
 Root     13 :    10.645186180737660   Change is   -0.000000000035245
 Root     14 :    10.731866004428070   Change is   -0.000000000021900
 Root     15 :    11.268869688369050   Change is   -0.000000000012092
 Iteration     6 Dimension   170 NMult   165 NNew      5
 CISAX will form     5 AO SS matrices at one time.
 NMat=     5 NSing=     5 JSym2X= 0.
 Root      1 has converged.
 Root      2 has converged.
 Root      3 has converged.
 Root      4 has converged.
 Root      5 has converged.
 Root      6 has converged.
 Root      7 has converged.
 Root      8 has converged.
 Root      9 has converged.
 Root     10 has converged.
 Root     11 has converged.
 Root     12 has converged.
 Root     13 has converged.
 Root     14 has converged.
 Root     15 has converged.
 Excitation Energies [eV] at current iteration:
 Root      1 :     7.291816258212276   Change is   -0.000000000000625
 Root      2 :     7.410420422207865   Change is   -0.000000000001949
 Root      3 :     8.496066815099146   Change is   -0.000000000000011
 Root      4 :     8.892454777980905   Change is   -0.000000000000059
 Root      5 :     9.227637943947473   Change is   -0.000000000004246
 Root      6 :     9.614428305395382   Change is    0.000000000000002
 Root      7 :     9.939301456954722   Change is   -0.000000000000982
 Root      8 :    10.011521240037480   Change is   -0.000000000000017
 Root      9 :    10.061747647395900   Change is   -0.000000000009655
 Root     10 :    10.240843365480100   Change is   -0.000000000000012
 Root     11 :    10.278893961789360   Change is   -0.000000000000131
 Root     12 :    10.507267617594060   Change is   -0.000000000000009
 Root     13 :    10.645186180737630   Change is   -0.000000000000032
 Root     14 :    10.731866004428040   Change is   -0.000000000000027
 Root     15 :    11.268869688369050   Change is   -0.000000000000006
 Convergence achieved on expansion vectors.
 ***********************************************************************
 Excited states from <AA,BB:AA,BB> singles matrix:
 ***********************************************************************
 
 1PDM for each excited state written to RWF  633
 Ground to excited state transition densities written to RWF  633
 Ground to excited state transition electric dipole moments (Au):
       state          X           Y           Z        Dip. S.      Osc.
         1        -0.1297     -0.1290     -0.0009      0.0335      0.0060
         2        -1.0781      0.1405      0.0319      1.1830      0.2148
         3        -0.0003      0.0053     -0.1080      0.0117      0.0024
         4        -0.0606     -0.1210      0.0006      0.0183      0.0040
         5        -0.6829     -0.8192     -0.0054      1.1375      0.2572
         6        -0.0671      0.0194      0.0925      0.0134      0.0032
         7         0.0958     -0.4104      0.0219      0.1781      0.0434
         8         0.0366     -0.0698      0.0587      0.0097      0.0024
         9        -0.4534      1.1787     -0.0214      1.5954      0.3933
        10        -0.0629      0.0232     -0.1194      0.0188      0.0047
        11        -0.0445      0.1504      0.0832      0.0315      0.0079
        12        -0.0249      0.0435      0.0415      0.0042      0.0011
        13         0.0362     -0.0579     -0.0354      0.0059      0.0015
        14        -0.0119      0.0257      0.0872      0.0084      0.0022
        15        -0.0011      0.0043      0.1483      0.0220      0.0061
 Ground to excited state transition velocity dipole moments (Au):
       state          X           Y           Z        Dip. S.      Osc.
         1         0.0062     -0.0532     -0.0003      0.0029      0.0071
         2        -0.0046      0.0174      0.0006      0.0003      0.0008
         3         0.0005     -0.0002      0.0643      0.0041      0.0088
         4         0.0055     -0.0009      0.0080      0.0001      0.0002
         5         0.0769      0.0211     -0.0043      0.0064      0.0125
         6         0.0055     -0.0030      0.0034      0.0001      0.0001
         7        -0.0032      0.0128     -0.0152      0.0004      0.0007
         8        -0.0051      0.0017     -0.0266      0.0007      0.0013
         9         0.0349     -0.0375     -0.0076      0.0027      0.0048
        10         0.0110      0.0005      0.0511      0.0027      0.0048
        11         0.0041     -0.0088     -0.0557      0.0032      0.0056
        12         0.0026     -0.0034      0.0356      0.0013      0.0022
        13        -0.0045      0.0046     -0.0508      0.0026      0.0045
        14         0.0005      0.0027     -0.0067      0.0001      0.0001
        15         0.0037      0.0002      0.0027      0.0000      0.0000
 Ground to excited state transition magnetic dipole moments (Au):
       state          X           Y           Z
         1        -0.0045      0.0257     -0.0324
         2        -0.0002     -0.0026     -0.4901
         3        -1.5684     -0.1209     -0.0209
         4         0.1089     -0.4993      0.0094
         5        -0.0202      0.0696      0.1553
         6        -0.0489      0.1350      0.0354
         7        -0.2280     -0.1319     -0.0934
         8         0.2867      0.3051     -0.0228
         9        -0.0694     -0.0659      0.3241
        10         0.0727      0.0096      0.0061
        11         0.1052     -0.1616      0.0385
        12         0.0625      0.0348      0.0235
        13         0.0622      0.0717     -0.0448
        14        -0.2188      0.0773      0.0148
        15        -0.1894      0.4224      0.0183
 Ground to excited state transition velocity quadrupole moments (Au):
       state          XX          YY          ZZ          XY          XZ          YZ
         1        -0.0473     -0.0207      0.0314     -0.0044     -0.0002      0.0007
         2         0.0426     -0.0880      0.0014     -0.2092      0.0002     -0.0006
         3         0.0025      0.0024     -0.0011     -0.0048      0.0038     -0.1823
         4        -0.0140      0.0139      0.0055      0.0147      0.0188      0.0246
         5        -0.1734      0.1849      0.0170      0.2205     -0.0175      0.0012
         6         0.0011      0.0096     -0.0009      0.0378      0.1972      0.0848
         7        -0.0690      0.0596      0.0177     -0.0439     -0.0263     -0.0742
         8        -0.0119      0.0084      0.0020     -0.0137     -0.0395      0.0624
         9         0.1860     -0.1501     -0.0547      0.2551     -0.0249     -0.0163
        10         0.0031     -0.0026     -0.0013      0.0178      0.0850     -0.1224
        11         0.0289     -0.0115     -0.0088      0.0265     -0.0083     -0.0204
        12        -0.0011     -0.0068     -0.0002      0.0078     -0.0165      0.0780
        13        -0.0085      0.0015      0.0040     -0.0238     -0.0148      0.0647
        14         0.0201     -0.0129     -0.0081      0.0122     -0.0704     -0.0253
        15        -0.0103     -0.0007      0.0012     -0.0058     -0.0392      0.0042
 <0|del|b> * <b|rxdel|0> + <0|del|b> * <b|delr+rdel|0>
 Rotatory Strengths (R) in cgs (10**-40 erg-esu-cm/Gauss)
       state          XX          YY          ZZ    R(velocity)    E-M Angle
         1        -1.8041     -0.0194     -1.8355     -1.2197      128.43
         2        -0.6168     -0.2176     -0.0567     -0.2970       92.23
         3        -1.8448     -2.1745     -0.7624     -1.5939       91.20
         4         0.6970      0.7438      0.9507      0.7972       77.19
         5         0.2539     -1.2345     -0.5694     -0.5167       93.12
         6         0.4369      0.1899     -1.7429     -0.3720      121.87
         7         0.7085      1.6633     -1.4903      0.2938       85.36
         8         1.4990     -1.4858     -0.6672     -0.2180       91.71
         9        -2.7582     -3.3620      1.4843     -1.5453       97.96
        10         1.1093     -1.0775      2.0629      0.6983       73.15
        11        -2.1338     -0.3011      1.8731     -0.1872       91.55
        12         0.8615      0.8424     -0.0930      0.5370       71.02
        13         3.5109      0.4507      0.2480      1.4032       64.32
        14         0.1954     -0.1185     -0.0647      0.0041       90.00
        15         0.1157     -0.5335     -0.5442     -0.3207      105.24
 1/2[<0|r|b>*<b|rxdel|0> + (<0|rxdel|b>*<b|r|0>)*]
 Rotatory Strengths (R) in cgs (10**-40 erg-esu-cm/Gauss)
       state          XX          YY          ZZ     R(length)
         1        -0.4113      2.3483     -0.0201      0.6390
         2        -0.1320      0.2600     11.0401      3.7227
         3        -0.3381      0.4543     -1.5986     -0.4941
         4         4.6643    -42.7339     -0.0041    -12.6912
         5        -9.7651     40.3275      0.5944     10.3856
         6        -2.3224     -1.8494     -2.3166     -2.1628
         7        15.4509    -38.2829      1.4467     -7.1285
         8        -7.4274     15.0687      0.9467      2.8627
         9       -22.2511     54.9507      4.9001     12.5332
        10         3.2333     -0.1578      0.5111      1.1955
        11         3.3130     17.1786     -2.2633      6.0761
        12         1.1006     -1.0720     -0.6903     -0.2206
        13        -1.5936      2.9357     -1.1236      0.0728
        14        -1.8446     -1.4022     -0.9117     -1.3862
        15        -0.1416     -1.2946     -1.9170     -1.1177
  1/2[<0|del|b>*<b|r|0> + (<0|r|b>*<b|del|0>)*] (Au)
       state          X           Y           Z        Dip. S.   Osc.(frdel)
         1        -0.0008      0.0069      0.0000     -0.0061     -0.0040
         2         0.0050      0.0024      0.0000     -0.0074     -0.0050
         3         0.0000      0.0000     -0.0069      0.0069      0.0046
         4        -0.0003      0.0001      0.0000      0.0002      0.0001
         5        -0.0525     -0.0173      0.0000      0.0698      0.0465
         6        -0.0004     -0.0001      0.0003      0.0001      0.0001
         7        -0.0003     -0.0053     -0.0003      0.0059      0.0039
         8        -0.0002     -0.0001     -0.0016      0.0019      0.0012
         9        -0.0158     -0.0442      0.0002      0.0599      0.0399
        10        -0.0007      0.0000     -0.0061      0.0068      0.0045
        11        -0.0002     -0.0013     -0.0046      0.0061      0.0041
        12        -0.0001     -0.0001      0.0015     -0.0013     -0.0008
        13        -0.0002     -0.0003      0.0018     -0.0014     -0.0009
        14         0.0000      0.0001     -0.0006      0.0005      0.0003
        15         0.0000      0.0000      0.0004     -0.0004     -0.0003

 Excitation energies and oscillator strengths:
 
 Excited State   1:      Singlet-A      7.2918 eV  170.03 nm  f=0.0060  <S**2>=0.000
      17 -> 19         0.54024
      18 -> 20         0.44330
 This state for optimization and/or second-order correction.
 Total Energy, E(CIS) =  -228.463985048    
 Copying the excited state density for this state as the 1-particle RhoCI density.
 
 Excited State   2:      Singlet-A      7.4104 eV  167.31 nm  f=0.2148  <S**2>=0.000
      18 -> 19         0.67312
 
 Excited State   3:      Singlet-A      8.4961 eV  145.93 nm  f=0.0024  <S**2>=0.000
      16 -> 19         0.70211
 
 Excited State   4:      Singlet-A      8.8925 eV  139.43 nm  f=0.0040  <S**2>=0.000
      18 -> 21         0.68547
      18 -> 22        -0.11184
 
 Excited State   5:      Singlet-A      9.2276 eV  134.36 nm  f=0.2572  <S**2>=0.000
      17 -> 19         0.29492
      17 -> 20         0.46703
      18 -> 20        -0.38002
 
 Excited State   6:      Singlet-A      9.6144 eV  128.96 nm  f=0.0032  <S**2>=0.000
      18 -> 21         0.11217
      18 -> 22         0.67301
 
 Excited State   7:      Singlet-A      9.9393 eV  124.74 nm  f=0.0434  <S**2>=0.000
      17 -> 20        -0.13969
      17 -> 21         0.62857
      18 -> 20        -0.11595
      18 -> 23        -0.14316
      18 -> 24        -0.15548
 
 Excited State   8:      Singlet-A     10.0115 eV  123.84 nm  f=0.0024  <S**2>=0.000
      15 -> 19         0.63661
      17 -> 21        -0.12297
      18 -> 23        -0.23055
 
 Excited State   9:      Singlet-A     10.0617 eV  123.22 nm  f=0.3933  <S**2>=0.000
      17 -> 19        -0.25959
      17 -> 20         0.46113
      17 -> 21         0.18695
      18 -> 20         0.31114
 
 Excited State  10:      Singlet-A     10.2408 eV  121.07 nm  f=0.0047  <S**2>=0.000
      14 -> 19        -0.14577
      15 -> 19         0.21647
      16 -> 20        -0.18536
      17 -> 21         0.18773
      18 -> 23         0.50690
      18 -> 24         0.28942
 
 Excited State  11:      Singlet-A     10.2789 eV  120.62 nm  f=0.0079  <S**2>=0.000
      14 -> 19         0.35819
      15 -> 19         0.18698
      16 -> 20         0.52421
      18 -> 23         0.19924
 
 Excited State  12:      Singlet-A     10.5073 eV  118.00 nm  f=0.0011  <S**2>=0.000
      16 -> 20         0.13129
      17 -> 22        -0.11323
      18 -> 23        -0.30918
      18 -> 24         0.59482
 
 Excited State  13:      Singlet-A     10.6452 eV  116.47 nm  f=0.0015  <S**2>=0.000
      16 -> 20        -0.14756
      17 -> 22         0.65406
      18 -> 24         0.14091
 
 Excited State  14:      Singlet-A     10.7319 eV  115.53 nm  f=0.0022  <S**2>=0.000
      14 -> 19         0.56487
      16 -> 20        -0.36753
      17 -> 22        -0.15819
 
 Excited State  15:      Singlet-A     11.2689 eV  110.02 nm  f=0.0061  <S**2>=0.000
      18 -> 23         0.11095
      18 -> 25         0.67585
 SavETr:  write IOETrn=   770 NScale= 10 NData=  16 NLR=1 NState=   15 LETran=     280.
 The selected state is a singlet
 CISAX will form     1 AO SS matrices at one time.
 NMat=     1 NSing=     1 JSym2X= 0.
 CISAX will form     1 AO SS matrices at one time.
 NMat=     1 NSing=     1 JSym2X= 0.
 Leave Link  914 at Tue Dec 15 16:19:32 2015, MaxMem=    33554432 cpu:        33.7
 (Enter /home/Applications/g09/g09/l1002.exe)
 Minotr:  Closed shell wavefunction.
          Computing CIS/TD-HF/TD-KS derivatives.
          Using Z-Vector for PSCF gradient.
          Skipping F1 and S1 gradient terms here.
          IDoAtm=111111111
          Frozen-core window.
          Direct CPHF calculation.
          Differentiating once with respect to electric field.
                with respect to dipole field.
          Differentiating once with respect to nuclear coordinates.
          Requested convergence is 1.0D-10 RMS, and 1.0D-09 maximum.
          NewPWx=F KeepS1=T KeepF1=T KeepIn=T MapXYZ=F SortEE=F KeepMc=T.
          MDV=      33554290 using IRadAn=       0.
 Using stored XC quadrature information.
 Keep R1 ints in memory in canonical form, NReq=1898913.
 FoFCou: FMM=F IPFlag=           0 FMFlag=           0 FMFlg1=           0
         NFxFlg=           0 DoJE=F BraDBF=F KetDBF=F FulRan=T
         wScrn=  0.000000 ICntrl=     600 IOpCl=  0 I1Cent=           0 NGrid=           0
         NMat0=    1 NMatS0=   1431 NMatT0=    0 NMatD0=    1 NMtDS0=    0 NMtDT0=    0
 Symmetry not used in FoFCou.
          Solving linear equations separately, MaxMat=       0.
          There are     1 degrees of freedom in the 1st order CPHF.  IDoFFX=0 NUNeed=     1.
 LinEq1:  Iter=  0 NonCon=     1 RMS=1.45D-02 Max=2.30D-01 NDo=     1
 AX will form     1 AO Fock derivatives at one time.
 LinEq1:  Iter=  1 NonCon=     1 RMS=7.36D-03 Max=8.07D-02 NDo=     1
 LinEq1:  Iter=  2 NonCon=     1 RMS=5.09D-03 Max=4.68D-02 NDo=     1
 LinEq1:  Iter=  3 NonCon=     1 RMS=2.09D-03 Max=1.88D-02 NDo=     1
 LinEq1:  Iter=  4 NonCon=     1 RMS=1.54D-03 Max=1.34D-02 NDo=     1
 LinEq1:  Iter=  5 NonCon=     1 RMS=4.97D-04 Max=3.69D-03 NDo=     1
 LinEq1:  Iter=  6 NonCon=     1 RMS=1.48D-04 Max=1.00D-03 NDo=     1
 LinEq1:  Iter=  7 NonCon=     1 RMS=6.76D-05 Max=7.96D-04 NDo=     1
 LinEq1:  Iter=  8 NonCon=     1 RMS=3.20D-05 Max=4.09D-04 NDo=     1
 LinEq1:  Iter=  9 NonCon=     1 RMS=4.68D-06 Max=4.66D-05 NDo=     1
 LinEq1:  Iter= 10 NonCon=     1 RMS=5.08D-07 Max=3.35D-06 NDo=     1
 LinEq1:  Iter= 11 NonCon=     1 RMS=6.66D-08 Max=4.30D-07 NDo=     1
 LinEq1:  Iter= 12 NonCon=     1 RMS=6.48D-09 Max=6.12D-08 NDo=     1
 LinEq1:  Iter= 13 NonCon=     1 RMS=8.96D-10 Max=5.82D-09 NDo=     1
 LinEq1:  Iter= 14 NonCon=     1 RMS=1.25D-10 Max=6.65D-10 NDo=     1
 LinEq1:  Iter= 15 NonCon=     0 RMS=1.14D-11 Max=6.89D-11 NDo=     1
 Linear equations converged to 1.000D-10 1.000D-09 after    15 iterations.
 End of Minotr F.D. properties file   721 does not exist.
 End of Minotr F.D. properties file   722 does not exist.
 End of Minotr F.D. properties file   788 does not exist.
 Leave Link 1002 at Tue Dec 15 16:19:43 2015, MaxMem=    33554432 cpu:        10.9
 (Enter /home/Applications/g09/g09/l601.exe)
 Copying SCF densities to generalized density rwf, IOpCl= 0 IROHF=0.

 **********************************************************************

            Population analysis using the SCF density.

 **********************************************************************

 Orbital symmetries:
       Occupied  (A) (A) (A) (A) (A) (A) (A) (A) (A) (A) (A) (A)
                 (A) (A) (A) (A) (A) (A)
       Virtual   (A) (A) (A) (A) (A) (A) (A) (A) (A) (A) (A) (A)
                 (A) (A) (A) (A) (A) (A) (A) (A) (A) (A) (A) (A)
                 (A) (A) (A) (A) (A) (A) (A) (A) (A) (A) (A)
 The electronic state is 1-A.
 Alpha  occ. eigenvalues --  -19.10376 -10.17121 -10.16461 -10.13072 -10.11501
 Alpha  occ. eigenvalues --   -1.11631  -0.80338  -0.75460  -0.60416  -0.58618
 Alpha  occ. eigenvalues --   -0.54227  -0.46363  -0.44291  -0.42126  -0.40260
 Alpha  occ. eigenvalues --   -0.35106  -0.27428  -0.23507
 Alpha virt. eigenvalues --    0.02121   0.08409   0.14065   0.16168   0.18733
 Alpha virt. eigenvalues --    0.19237   0.22064   0.22816   0.35430   0.41984
 Alpha virt. eigenvalues --    0.48006   0.67197   0.69915   0.70725   0.75608
 Alpha virt. eigenvalues --    0.76906   0.78780   0.79279   0.82478   0.84075
 Alpha virt. eigenvalues --    0.92899   0.99236   1.05288   1.06718   1.17512
 Alpha virt. eigenvalues --    1.26462   1.32911   1.39335   1.50668   1.56906
 Alpha virt. eigenvalues --    1.63755   1.75088   1.98581   2.14826   3.17885
     Molecular Orbital Coefficients:
                           1         2         3         4         5
                           O         O         O         O         O
     Eigenvalues --   -19.10376 -10.17121 -10.16461 -10.13072 -10.11501
   1 1   C  1S          0.00015  -0.01408  -0.00193   0.98535   0.03566
   2        2S          0.00059  -0.00515  -0.00066   0.10956   0.00035
   3        2PX        -0.00125  -0.00138   0.00007  -0.00094   0.00065
   4        2PY         0.00079   0.00171   0.00071  -0.00173   0.00062
   5        2PZ         0.00001   0.00002  -0.00001  -0.00003   0.00002
   6        3S         -0.00523   0.03374  -0.01253  -0.09864   0.03323
   7        3PX         0.00265   0.00536  -0.00036   0.01394  -0.01884
   8        3PY         0.00664  -0.01708   0.00792   0.02718  -0.01294
   9        3PZ        -0.00001  -0.00016   0.00015   0.00044  -0.00021
  10 2   C  1S         -0.00048   0.98477   0.03469   0.01375   0.00108
  11        2S         -0.00089   0.10663   0.00071  -0.00246  -0.00027
  12        2PX        -0.00149  -0.00162   0.00134   0.00107   0.00029
  13        2PY        -0.00188  -0.00082  -0.00048  -0.00134  -0.00110
  14        2PZ         0.00002   0.00007   0.00000  -0.00001   0.00003
  15        3S          0.01493  -0.07236   0.00875   0.03404  -0.00750
  16        3PX        -0.01584   0.01146  -0.01726  -0.01899   0.00510
  17        3PY        -0.00080  -0.01334   0.00811   0.01556  -0.00058
  18        3PZ         0.00000  -0.00031   0.00007   0.00009  -0.00016
  19 3   O  1S          0.98278   0.00019   0.00028   0.00007   0.00008
  20        2S          0.10778   0.00147   0.00191   0.00026   0.00031
  21        2PX        -0.00061   0.00063  -0.00063   0.00008   0.00000
  22        2PY         0.00418   0.00086   0.00055  -0.00012  -0.00008
  23        2PZ         0.00004   0.00000   0.00002  -0.00002   0.00003
  24        3S         -0.06078   0.00059  -0.00047  -0.00360  -0.00403
  25        3PX         0.00239  -0.00007   0.00176  -0.00224   0.00262
  26        3PY        -0.01359  -0.00340  -0.00314  -0.00166  -0.00173
  27        3PZ        -0.00011  -0.00003  -0.00010   0.00006  -0.00011
  28 4   C  1S         -0.00044  -0.03572   0.98470   0.00107   0.00616
  29        2S         -0.00061  -0.00714   0.10711  -0.00068  -0.00505
  30        2PX         0.00212  -0.00130   0.00229   0.00000  -0.00080
  31        2PY        -0.00136  -0.00063   0.00030  -0.00092  -0.00324
  32        2PZ        -0.00004  -0.00002  -0.00014  -0.00002   0.00004
  33        3S          0.01941   0.02124  -0.07888  -0.00915   0.04962
  34        3PX         0.01661   0.01599  -0.00570  -0.00296   0.01574
  35        3PY         0.00185   0.01601  -0.01915  -0.00109   0.02602
  36        3PZ        -0.00021  -0.00012   0.00062   0.00021  -0.00037
  37 5   C  1S          0.00012  -0.00024  -0.00662  -0.03624   0.98533
  38        2S          0.00049   0.00024  -0.00602  -0.00779   0.11093
  39        2PX         0.00093  -0.00030   0.00079  -0.00102   0.00115
  40        2PY         0.00100   0.00050   0.00379   0.00033  -0.00170
  41        2PZ        -0.00001   0.00001  -0.00006  -0.00001   0.00008
  42        3S         -0.00646  -0.02149   0.04004   0.03753  -0.11086
  43        3PX        -0.00740  -0.00498  -0.00114   0.02197  -0.02237
  44        3PY         0.00696   0.01271  -0.02134  -0.00696   0.02875
  45        3PZ        -0.00003  -0.00034   0.00030   0.00020  -0.00080
  46 6   H  1S         -0.00107  -0.00049  -0.00119  -0.00013  -0.00454
  47        2S         -0.00365  -0.00232   0.00233   0.00475   0.00417
  48 7   H  1S          0.00009   0.00162  -0.00409   0.00010  -0.00027
  49        2S          0.00422   0.00828   0.01004   0.00070   0.00694
  50 8   H  1S          0.00049  -0.00516   0.00130  -0.00018  -0.00027
  51        2S          0.00532   0.01056   0.00955   0.00681  -0.00071
  52 9   H  1S         -0.00077  -0.00107  -0.00028  -0.00346  -0.00003
  53        2S         -0.00205   0.00178  -0.00049   0.00471   0.00520
                           6         7         8         9        10
                           O         O         O         O         O
     Eigenvalues --    -1.11631  -0.80338  -0.75460  -0.60416  -0.58618
   1 1   C  1S         -0.02722  -0.11682  -0.10112  -0.12275   0.01245
   2        2S          0.02632   0.12445   0.10803   0.12566  -0.01272
   3        2PX        -0.00551  -0.06255   0.05071   0.06116   0.14657
   4        2PY        -0.03319  -0.04407  -0.06521   0.01136  -0.02998
   5        2PZ        -0.00020  -0.00067  -0.00051   0.00035   0.00081
   6        3S          0.05016   0.23408   0.20660   0.40395  -0.02763
   7        3PX        -0.01503  -0.00858  -0.01803   0.01201   0.06316
   8        3PY        -0.03778  -0.03148  -0.00646  -0.03464  -0.00351
   9        3PZ        -0.00031  -0.00055  -0.00022  -0.00010   0.00039
  10 2   C  1S         -0.07009  -0.01789  -0.15680   0.04460  -0.09863
  11        2S          0.07862   0.02380   0.16919  -0.04512   0.10939
  12        2PX        -0.07492  -0.01190  -0.02086  -0.04523   0.19213
  13        2PY        -0.03596   0.09929   0.01635   0.20267   0.04340
  14        2PZ         0.00042   0.00033   0.00141   0.00057   0.00182
  15        3S          0.06636   0.00371   0.36614  -0.17391   0.29168
  16        3PX         0.04327  -0.00678  -0.03174  -0.00271   0.10141
  17        3PY        -0.01203   0.02161   0.03732   0.06365   0.01835
  18        3PZ         0.00029   0.00022   0.00115  -0.00008   0.00126
  19 3   O  1S         -0.20988   0.09006   0.01778   0.00018   0.04092
  20        2S          0.19046  -0.08697  -0.01742   0.00137  -0.04057
  21        2PX        -0.01815  -0.03311   0.19607  -0.23644  -0.07944
  22        2PY         0.10826   0.01837   0.02817  -0.00299  -0.04728
  23        2PZ         0.00084  -0.00025  -0.00103   0.00278   0.00076
  24        3S          0.66968  -0.32345  -0.06612   0.00182  -0.17980
  25        3PX        -0.02109  -0.02700   0.16312  -0.20659  -0.07089
  26        3PY         0.13940   0.00086   0.02255  -0.00497  -0.04788
  27        3PZ         0.00111  -0.00008  -0.00114   0.00237   0.00076
  28 4   C  1S         -0.08090  -0.09075   0.12798   0.00562  -0.10378
  29        2S          0.09051   0.10469  -0.13678  -0.01114   0.11372
  30        2PX         0.08948  -0.00454  -0.01736   0.09732  -0.13386
  31        2PY        -0.02047   0.14918   0.02793  -0.19139  -0.09642
  32        2PZ        -0.00154  -0.00207   0.00292   0.00103  -0.00206
  33        3S          0.06024   0.15177  -0.32724   0.03565   0.34100
  34        3PX        -0.04380   0.00405  -0.01497   0.06036  -0.07581
  35        3PY        -0.02044   0.04469  -0.03366  -0.03532  -0.03167
  36        3PZ        -0.00007  -0.00117   0.00191   0.00015  -0.00202
  37 5   C  1S         -0.03081  -0.16697   0.03373   0.08751   0.05855
  38        2S          0.03127   0.17875  -0.03859  -0.08931  -0.05682
  39        2PX         0.01494   0.04217   0.06234   0.14350  -0.08131
  40        2PY        -0.03634  -0.07762   0.07050   0.04864  -0.08245
  41        2PZ         0.00042   0.00251  -0.00061  -0.00069  -0.00041
  42        3S          0.05718   0.33653  -0.03954  -0.30935  -0.19851
  43        3PX         0.03563   0.02935  -0.00291   0.03913  -0.04642
  44        3PY        -0.03743  -0.03014  -0.02099   0.04590  -0.00177
  45        3PZ         0.00066   0.00156   0.00029  -0.00116  -0.00055
  46 6   H  1S          0.00905   0.07413  -0.01962  -0.10176  -0.05107
  47        2S          0.01717   0.01409  -0.00029  -0.05233  -0.03520
  48 7   H  1S          0.01736   0.03284  -0.08515   0.01058   0.17263
  49        2S         -0.02595   0.00493  -0.03134   0.02240   0.07929
  50 8   H  1S          0.01482   0.00181   0.10509  -0.09144   0.18248
  51        2S         -0.03045   0.00130   0.03724  -0.05048   0.07983
  52 9   H  1S          0.00675   0.04296   0.05047   0.11139   0.01411
  53        2S          0.01150   0.01009   0.01477   0.06453   0.00482
                          11        12        13        14        15
                           O         O         O         O         O
     Eigenvalues --    -0.54227  -0.46363  -0.44291  -0.42126  -0.40260
   1 1   C  1S         -0.04942   0.03537  -0.00192  -0.02398   0.02446
   2        2S          0.04731  -0.03899   0.00133   0.02073  -0.02668
   3        2PX        -0.00349  -0.07912   0.00426   0.01727   0.33462
   4        2PY         0.19321   0.01726   0.00582   0.26833   0.04220
   5        2PZ         0.00109   0.00374   0.10916   0.00364   0.00359
   6        3S          0.19310  -0.11459   0.01409   0.11291  -0.09320
   7        3PX         0.02706  -0.03758  -0.00084   0.06041   0.20612
   8        3PY         0.11096  -0.01112   0.00040   0.16294   0.05189
   9        3PZ         0.00052   0.00257   0.08359   0.00230   0.00280
  10 2   C  1S          0.02715  -0.01213   0.00229   0.05151  -0.00510
  11        2S         -0.03299   0.01315  -0.00240  -0.05980   0.00629
  12        2PX         0.10364   0.28510  -0.01049   0.10296  -0.05325
  13        2PY        -0.06070  -0.01745  -0.00504  -0.16817   0.11882
  14        2PZ        -0.00042   0.00803   0.17578  -0.00501   0.00093
  15        3S         -0.05617   0.02625  -0.00844  -0.17780   0.03032
  16        3PX         0.07463   0.17710  -0.00170   0.07907  -0.04141
  17        3PY        -0.07245  -0.01432  -0.00479  -0.13439   0.10702
  18        3PZ        -0.00021   0.00722   0.16792  -0.00525   0.00035
  19 3   O  1S         -0.05951  -0.00016   0.00003  -0.02175  -0.01068
  20        2S          0.05876   0.00116  -0.00011   0.02114   0.00637
  21        2PX         0.00221  -0.25757   0.01733   0.10126  -0.06070
  22        2PY        -0.16691  -0.01903  -0.00016  -0.07846   0.10611
  23        2PZ        -0.00025   0.01828   0.37087  -0.01363  -0.00147
  24        3S          0.23505   0.00122  -0.00014   0.08687   0.07245
  25        3PX         0.00161  -0.23964   0.01688   0.10669  -0.06163
  26        3PY        -0.15161  -0.01797  -0.00029  -0.07895   0.10849
  27        3PZ        -0.00029   0.01776   0.37358  -0.01393  -0.00142
  28 4   C  1S          0.03715   0.02440  -0.00355  -0.03362  -0.00062
  29        2S         -0.04342  -0.02326   0.00378   0.04124   0.00399
  30        2PX        -0.10013   0.27673  -0.00995   0.02089   0.10305
  31        2PY        -0.13759   0.03450   0.00483   0.21720   0.13762
  32        2PZ         0.00116   0.00846   0.20884  -0.00631  -0.00345
  33        3S         -0.10289  -0.08581   0.01452   0.11030   0.01766
  34        3PX        -0.07111   0.17298  -0.00037   0.02223   0.07364
  35        3PY        -0.13260   0.03343   0.00599   0.10327   0.12666
  36        3PZ         0.00054   0.00786   0.19258  -0.00606  -0.00254
  37 5   C  1S         -0.05195  -0.03964   0.00241   0.00669   0.01027
  38        2S          0.04659   0.04357  -0.00172  -0.00341  -0.01002
  39        2PX        -0.07787   0.05387  -0.00297   0.07900  -0.33134
  40        2PY         0.25459   0.01482  -0.00480  -0.26004  -0.05853
  41        2PZ        -0.00288   0.00536   0.13021   0.00428  -0.00247
  42        3S          0.24946   0.12285  -0.01508  -0.02448  -0.07385
  43        3PX        -0.05984   0.03383  -0.00838   0.07471  -0.21808
  44        3PY         0.10811   0.02373   0.00168  -0.14126   0.00072
  45        3PZ        -0.00043   0.00335   0.09108   0.00278  -0.00289
  46 6   H  1S          0.17131   0.02957  -0.00457  -0.17946   0.12581
  47        2S          0.09697   0.01227  -0.00617  -0.15194   0.10308
  48 7   H  1S          0.04660  -0.18477   0.00614  -0.05487  -0.12913
  49        2S          0.01367  -0.12973   0.00793  -0.05493  -0.10836
  50 8   H  1S          0.03296   0.20158  -0.00817   0.03381  -0.06345
  51        2S          0.00603   0.14108  -0.00869   0.02830  -0.04957
  52 9   H  1S          0.12083  -0.05244   0.00766   0.18884   0.11954
  53        2S          0.06486  -0.03043   0.00707   0.16050   0.10940
                          16        17        18        19        20
                           O         O         O         V         V
     Eigenvalues --    -0.35106  -0.27428  -0.23507   0.02121   0.08409
   1 1   C  1S          0.02194  -0.00014  -0.00070   0.00022  -0.00197
   2        2S         -0.02202  -0.00022   0.00088   0.00068   0.00280
   3        2PX        -0.05630   0.00249  -0.00352   0.00386  -0.00080
   4        2PY         0.19937   0.00514  -0.00485   0.00243   0.00794
   5        2PZ         0.00154  -0.23616   0.25167  -0.24567  -0.29047
   6        3S         -0.13342   0.00463   0.00368  -0.01367   0.00878
   7        3PX        -0.08073   0.00044  -0.00400   0.01476  -0.00230
   8        3PY         0.13576   0.00274  -0.00506   0.01051   0.02540
   9        3PZ         0.00158  -0.24475   0.27331  -0.41912  -0.57802
  10 2   C  1S         -0.00799   0.00095   0.00114   0.00200   0.00160
  11        2S          0.01347  -0.00113  -0.00115  -0.00220  -0.00067
  12        2PX        -0.01151   0.00071  -0.00061   0.00038   0.00414
  13        2PY        -0.21804  -0.00198  -0.00113   0.00029   0.00889
  14        2PZ        -0.00055   0.00471   0.33829   0.35724   0.14645
  15        3S          0.02119  -0.00464  -0.00560  -0.01216  -0.00569
  16        3PX        -0.01218   0.00262  -0.00104  -0.01123   0.00447
  17        3PY        -0.03669  -0.00261  -0.00155   0.00255   0.02612
  18        3PZ        -0.00045   0.04135   0.35843   0.54690   0.29342
  19 3   O  1S          0.06480   0.00003  -0.00015  -0.00063  -0.00552
  20        2S         -0.06542   0.00010   0.00061   0.00027   0.00397
  21        2PX        -0.00859   0.00526  -0.00035   0.00100  -0.00281
  22        2PY         0.42824  -0.00284  -0.00159   0.00170   0.00987
  23        2PZ        -0.00010   0.31649  -0.05436  -0.27747   0.06633
  24        3S         -0.23818  -0.00087  -0.00151   0.00535   0.04346
  25        3PX        -0.01274   0.00684   0.00011  -0.00136  -0.00487
  26        3PY         0.46387  -0.00313  -0.00271   0.00239   0.01541
  27        3PZ         0.00022   0.35898  -0.06099  -0.38891   0.09893
  28 4   C  1S         -0.02542   0.00014   0.00267  -0.00271   0.00430
  29        2S          0.03060   0.00014  -0.00329   0.00202  -0.00228
  30        2PX         0.05299   0.00025  -0.00157  -0.00133  -0.00776
  31        2PY        -0.14601   0.00246  -0.00204   0.00171   0.00962
  32        2PZ        -0.00217  -0.13578  -0.29196   0.27139  -0.28072
  33        3S          0.12224   0.00063  -0.00855   0.02164  -0.02996
  34        3PX         0.00295   0.00270   0.00200  -0.01351  -0.00915
  35        3PY         0.04809   0.00126   0.00065   0.00145   0.02928
  36        3PZ        -0.00216  -0.08509  -0.31370   0.40377  -0.56176
  37 5   C  1S          0.02512  -0.00134  -0.00089   0.00016   0.00005
  38        2S         -0.02527   0.00209   0.00142  -0.00129   0.00166
  39        2PX         0.01923   0.00277   0.00224   0.00190  -0.00375
  40        2PY         0.12688  -0.00903  -0.00196   0.00208   0.00384
  41        2PZ        -0.00358  -0.31913  -0.12996  -0.08690   0.36775
  42        3S         -0.19072   0.00241  -0.00092   0.00818  -0.01572
  43        3PX         0.06365  -0.00154   0.00009   0.01634  -0.01047
  44        3PY         0.10860  -0.00545   0.00108  -0.00002   0.02060
  45        3PZ        -0.00433  -0.33290  -0.12607  -0.16428   0.75273
  46 6   H  1S          0.03274  -0.00307   0.00003  -0.00070  -0.00364
  47        2S          0.06256  -0.00552  -0.00131   0.00294  -0.01944
  48 7   H  1S          0.07176  -0.00013   0.00248  -0.00392   0.00575
  49        2S          0.07296  -0.00005   0.00457  -0.01607   0.02385
  50 8   H  1S          0.06253  -0.00064   0.00127   0.00275   0.00267
  51        2S          0.06681  -0.00141   0.00144   0.01310   0.00804
  52 9   H  1S          0.08837   0.00256  -0.00081  -0.00095  -0.00580
  53        2S          0.11790   0.00399  -0.00129  -0.00518  -0.02888
                          21        22        23        24        25
                           V         V         V         V         V
     Eigenvalues --     0.14065   0.16168   0.18733   0.19237   0.22064
   1 1   C  1S          0.07284   0.01588  -0.09836   0.07412   0.04171
   2        2S         -0.04916   0.00519   0.07756  -0.04679   0.00528
   3        2PX        -0.01928  -0.01143  -0.07101  -0.11963   0.07221
   4        2PY        -0.19847  -0.02504  -0.02689  -0.16710  -0.02252
   5        2PZ        -0.01384   0.00902  -0.00045  -0.00210   0.00210
   6        3S         -0.78683  -0.36585   0.83719  -0.94704  -0.98194
   7        3PX        -0.11661   0.05063  -0.13944  -0.48436   0.64950
   8        3PY        -0.60536   0.00630   0.26343  -0.67282   0.17511
   9        3PZ        -0.03436   0.02248   0.00264  -0.00894   0.01213
  10 2   C  1S         -0.00086   0.10647   0.06767   0.00538   0.06155
  11        2S          0.00672  -0.07956  -0.05437   0.00770  -0.05935
  12        2PX        -0.11166   0.06542  -0.21153  -0.13878   0.10956
  13        2PY        -0.08121   0.21176  -0.04066   0.07212   0.15875
  14        2PZ         0.00534  -0.00696  -0.00332  -0.00065  -0.00223
  15        3S         -0.21362  -1.07354  -0.96315  -0.38286  -0.50958
  16        3PX        -0.12755  -0.09364  -1.02429  -0.31625   0.12133
  17        3PY        -0.25627   0.65869  -0.04838   0.30039   0.48896
  18        3PZ         0.01184  -0.01699  -0.00906  -0.00210  -0.00480
  19 3   O  1S          0.06197  -0.09952   0.00157  -0.01814  -0.01845
  20        2S         -0.04221   0.06781   0.00155   0.01007   0.00591
  21        2PX         0.02317   0.06655  -0.08466  -0.05013   0.28317
  22        2PY        -0.13546   0.13563  -0.01438   0.01171   0.02719
  23        2PZ        -0.00037  -0.00091   0.00265   0.00234   0.00210
  24        3S         -0.51709   0.83570  -0.02880   0.16926   0.21072
  25        3PX         0.05594   0.11901  -0.22722  -0.04337   0.53478
  26        3PY        -0.24476   0.22096  -0.04438   0.04636   0.09972
  27        3PZ        -0.00163  -0.00150   0.00664   0.00407   0.00412
  28 4   C  1S          0.01177   0.09450  -0.00709  -0.00629  -0.11699
  29        2S         -0.00456  -0.07124   0.01231  -0.01242   0.08581
  30        2PX         0.19086   0.00376  -0.12518  -0.21241  -0.03045
  31        2PY        -0.02860   0.16326  -0.01828  -0.07588  -0.10108
  32        2PZ        -0.00637   0.01312  -0.00203  -0.00150  -0.00914
  33        3S         -0.38654  -0.94619  -0.04789   0.54394   1.47686
  34        3PX         0.44541   0.26399  -0.63759  -0.47685  -0.46448
  35        3PY        -0.13310   0.68014  -0.20947  -0.21112  -0.29038
  36        3PZ        -0.01365   0.03068  -0.00027  -0.01179  -0.02877
  37 5   C  1S          0.02229  -0.01826   0.09259  -0.05924   0.02004
  38        2S         -0.00670   0.02415  -0.07707   0.04598  -0.03616
  39        2PX         0.11637   0.06919  -0.07696  -0.07627   0.20398
  40        2PY        -0.10929  -0.00404  -0.08903   0.14514   0.03165
  41        2PZ         0.01404  -0.01047  -0.00034  -0.00019   0.00279
  42        3S         -0.37564  -0.09442  -0.82224   0.73425  -0.08261
  43        3PX         0.31560   0.09097  -0.02497  -0.46578   1.26318
  44        3PY        -0.35674   0.13538  -0.64556   0.60132   0.02347
  45        3PZ         0.03474  -0.03221   0.00564   0.00143   0.01984
  46 6   H  1S          0.09215  -0.01830   0.01824  -0.04754   0.03080
  47        2S          0.93184  -0.01967   0.86150  -1.26844   0.98867
  48 7   H  1S          0.03356   0.08526  -0.04836  -0.01507   0.03139
  49        2S          0.57569   1.28635  -0.72065  -0.88842  -1.26504
  50 8   H  1S         -0.00592   0.06181   0.07217   0.01153  -0.02720
  51        2S          0.19490   1.00287   1.63623   0.71117   0.29942
  52 9   H  1S          0.10692  -0.02544  -0.00607   0.03941  -0.05210
  53        2S          1.20139   0.07819  -0.46506   1.35117  -0.12140
                          26        27        28        29        30
                           V         V         V         V         V
     Eigenvalues --     0.22816   0.35430   0.41984   0.48006   0.67197
   1 1   C  1S         -0.02844  -0.09594   0.03324   0.10201   0.04890
   2        2S          0.01485   0.03332  -0.02638  -0.00644  -0.08300
   3        2PX         0.24536  -0.00940   0.26498   0.04200  -0.15497
   4        2PY         0.00491  -0.18988  -0.09301   0.21011   0.28421
   5        2PZ        -0.00251  -0.00252   0.00471   0.00636  -0.00084
   6        3S          0.53660   1.74054  -0.38183  -2.48948  -0.07206
   7        3PX         1.11057   0.45191   1.40146   1.20058   0.11175
   8        3PY        -0.09885  -1.69733  -0.45686   1.66590   0.09281
   9        3PZ        -0.00034  -0.02157   0.01385   0.02366   0.00323
  10 2   C  1S          0.07558   0.09727  -0.00418  -0.07918  -0.04719
  11        2S         -0.04411  -0.00669  -0.00154   0.04412  -0.00486
  12        2PX        -0.13138   0.23498  -0.08608  -0.22648  -0.17116
  13        2PY        -0.08101  -0.21612  -0.10616  -0.16731   0.02762
  14        2PZ        -0.00081   0.00084  -0.00253   0.00261   0.00926
  15        3S         -1.30297  -1.55782  -0.31590   1.21219   0.30537
  16        3PX        -0.46482   1.40210  -0.32425  -1.15331  -0.00937
  17        3PY        -0.48780  -1.25830  -1.05880   0.89468   0.19059
  18        3PZ        -0.00918  -0.00561  -0.01072   0.00801  -0.00390
  19 3   O  1S          0.06421  -0.05762  -0.00870  -0.01241   0.02423
  20        2S         -0.02645   0.02345   0.00486   0.00303  -0.07871
  21        2PX         0.12570  -0.02493  -0.25388  -0.19167   0.07218
  22        2PY        -0.01462   0.14400  -0.04749   0.02495  -0.16067
  23        2PZ        -0.00057   0.00063   0.00604   0.00295   0.00109
  24        3S         -0.69194   0.72684   0.11094   0.17540   0.20245
[...]
     1  C    5.226147   0.476638  -0.082056  -0.137151   0.447311  -0.025253
     2  C    0.476638   5.064107   0.281907  -0.142691  -0.116161   0.004335
     3  O   -0.082056   0.281907   8.121317   0.306194  -0.082586   0.002625
     4  C   -0.137151  -0.142691   0.306194   5.056817   0.424125  -0.033575
     5  C    0.447311  -0.116161  -0.082586   0.424125   5.271088   0.389059
     6  H   -0.025253   0.004335   0.002625  -0.033575   0.389059   0.474869
     7  H    0.003749   0.003895  -0.032109   0.397062  -0.048133  -0.000975
     8  H   -0.037814   0.395429  -0.025191   0.003325   0.002264  -0.000019
     9  H    0.374965  -0.033210   0.002212   0.005157  -0.023433  -0.000750
               7          8          9
     1  C    0.003749  -0.037814   0.374965
     2  C    0.003895   0.395429  -0.033210
     3  O   -0.032109  -0.025191   0.002212
     4  C    0.397062   0.003325   0.005157
     5  C   -0.048133   0.002264  -0.023433
     6  H   -0.000975  -0.000019  -0.000750
     7  H    0.454523  -0.000049  -0.000030
     8  H   -0.000049   0.440131  -0.000077
     9  H   -0.000030  -0.000077   0.493027
 Mulliken charges:
               1
     1  C   -0.246536
     2  C    0.065751
     3  O   -0.492313
     4  C    0.120738
     5  C   -0.263534
     6  H    0.189685
     7  H    0.222068
     8  H    0.222002
     9  H    0.182139
 Sum of Mulliken charges =   0.00000
 Mulliken charges with hydrogens summed into heavy atoms:
               1
     1  C   -0.064397
     2  C    0.287754
     3  O   -0.492313
     4  C    0.342806
     5  C   -0.073850
 Electronic spatial extent (au):  <R**2>=            288.1562
 Charge=              0.0000 electrons
 Dipole moment (field-independent basis, Debye):
    X=             -0.0710    Y=              0.6638    Z=              0.0096  Tot=              0.6676
 Quadrupole moment (field-independent basis, Debye-Ang):
   XX=            -23.2177   YY=            -28.2193   ZZ=            -31.5882
   XY=              0.4348   XZ=              0.0822   YZ=              0.0188
 Traceless Quadrupole moment (field-independent basis, Debye-Ang):
   XX=              4.4574   YY=             -0.5442   ZZ=             -3.9132
   XY=              0.4348   XZ=              0.0822   YZ=              0.0188
 Octapole moment (field-independent basis, Debye-Ang**2):
  XXX=              2.1186  YYY=              1.0111  ZZZ=             -0.0155  XYY=             -1.1652
  XXY=             -3.7871  XXZ=             -0.0180  XZZ=              0.0462  YZZ=             -3.4960
  YYZ=              0.0352  XYZ=              0.0765
 Hexadecapole moment (field-independent basis, Debye-Ang**3):
 XXXX=           -156.3984 YYYY=           -153.9300 ZZZZ=            -30.5751 XXXY=             -2.4359
 XXXZ=              0.3270 YYYX=              2.8295 YYYZ=              0.1274 ZZZX=              0.0946
 ZZZY=              0.0407 XXYY=            -45.9562 XXZZ=            -38.9502 YYZZ=            -33.5202
 XXYZ=              0.0461 YYXZ=              0.2070 ZZXY=             -0.5928
 N-N= 1.615893410507D+02 E-N=-8.559847423538D+02  KE= 2.271618694604D+02
 Orbital energies and kinetic energies (alpha):
                                 1                 2
   1         O               -19.103757         28.829133
   2         O               -10.171211         15.800416
   3         O               -10.164610         15.794663
   4         O               -10.130718         15.808711
   5         O               -10.115010         15.801954
   6         O                -1.116312          2.498124
   7         O                -0.803382          1.843976
   8         O                -0.754598          1.762649
   9         O                -0.604164          1.633410
  10         O                -0.586178          1.387830
  11         O                -0.542268          1.362259
  12         O                -0.463626          1.557628
  13         O                -0.442915          1.559367
  14         O                -0.421257          1.437039
  15         O                -0.402597          1.403064
  16         O                -0.351058          2.303374
  17         O                -0.274278          1.579104
  18         O                -0.235066          1.218233
  19         V                 0.021209          1.800886
  20         V                 0.084092          1.510195
  21         V                 0.140647          1.338219
  22         V                 0.161679          1.831290
  23         V                 0.187330          1.361657
  24         V                 0.192368          1.160342
  25         V                 0.220644          1.861531
  26         V                 0.228163          1.592667
  27         V                 0.354304          1.963635
  28         V                 0.419843          1.869999
  29         V                 0.480056          2.621837
  30         V                 0.671971          2.563345
  31         V                 0.699149          2.489112
  32         V                 0.707252          2.641321
  33         V                 0.756076          2.581952
  34         V                 0.769064          2.508280
  35         V                 0.787798          2.561597
  36         V                 0.792788          2.599152
  37         V                 0.824784          2.783143
  38         V                 0.840751          2.611111
  39         V                 0.928989          2.729141
  40         V                 0.992364          3.184030
  41         V                 1.052883          3.251546
  42         V                 1.067184          3.258517
  43         V                 1.175117          2.747803
  44         V                 1.264619          2.991113
  45         V                 1.329111          2.561277
  46         V                 1.393349          2.956132
  47         V                 1.506681          4.960270
  48         V                 1.569058          3.405963
  49         V                 1.637549          3.865238
  50         V                 1.750879          4.326704
  51         V                 1.985809          4.144508
  52         V                 2.148264          4.237049
  53         V                 3.178851          6.829166
 Total kinetic energy from orbitals= 2.271618694604D+02
 No NMR shielding tensors so no spin-rotation constants.
 Leave Link  601 at Tue Dec 15 16:19:43 2015, MaxMem=    33554432 cpu:         0.1
 (Enter /home/Applications/g09/g09/l701.exe)
 Compute integral first derivatives.
 ... and contract with generalized density number  6.
 Leave Link  701 at Tue Dec 15 16:19:43 2015, MaxMem=    33554432 cpu:         0.1
 (Enter /home/Applications/g09/g09/l702.exe)
 L702 exits ... SP integral derivatives will be done elsewhere.
 Leave Link  702 at Tue Dec 15 16:19:43 2015, MaxMem=    33554432 cpu:         0.0
 (Enter /home/Applications/g09/g09/l703.exe)
 Compute integral first derivatives, UseDBF=F ICtDFT=           0.
 Integral derivatives from FoFJK, PRISM(SPDF).
 Calling FoFJK, ICntrl=  10005127 FMM=F ISym2X=0 I1Cent= 0 IOpClX= 0 NMat=1 NMatS=1 NMatT=0.
 FoFJK:  IHMeth= 1 ICntrl=10005127 DoSepK=F KAlg= 0 I1Cent=   0 FoldK=F
 IRaf=         0 NMat=   1 IRICut=       1 DoRegI=T DoRafI=F ISym2E= 0.
 FoFCou: FMM=F IPFlag=           0 FMFlag=      100000 FMFlg1=         800
         NFxFlg=           0 DoJE=F BraDBF=F KetDBF=F FulRan=T
         wScrn=  0.000000 ICntrl=10005127 IOpCl=  0 I1Cent=           0 NGrid=           0
         NMat0=    1 NMatS0=      1 NMatT0=    0 NMatD0=    1 NMtDS0=    0 NMtDT0=    0
 Symmetry not used in FoFCou.
 Leave Link  703 at Tue Dec 15 16:19:44 2015, MaxMem=    33554432 cpu:         1.2
 (Enter /home/Applications/g09/g09/l716.exe)
 Dipole        =-1.54783184D-01 3.38326827D-01 9.80196914D-04
 ***** Axes restored to original set *****
 -------------------------------------------------------------------
 Center     Atomic                   Forces (Hartrees/Bohr)
 Number     Number              X              Y              Z
 -------------------------------------------------------------------
      1        6           0.049364012   -0.052974240    0.000889847
      2        6           0.038200227    0.044847691   -0.002897381
      3        8          -0.064993054   -0.007381035    0.000445135
      4        6          -0.129117508    0.058885219    0.002900891
      5        6           0.131238703   -0.046000001   -0.000955721
      6        1           0.032148037    0.022744752   -0.001789188
      7        1          -0.013514295    0.033075261   -0.000798645
      8        1          -0.039046982   -0.069288588    0.002122825
      9        1          -0.004279141    0.016090941    0.000082237
 -------------------------------------------------------------------
 Cartesian Forces:  Max     0.131238703 RMS     0.047891823
 Z-matrix is all fixed cartesians, so copy forces.
 Force constants in Cartesian coordinates: 
                1             2             3             4             5 
      1  0.798744D+00
      2 -0.384266D-01  0.752366D+00
      3  0.533261D-02 -0.148963D-01  0.174444D+00
      4 -0.418917D+00 -0.915090D-01 -0.118542D-02  0.844773D+00
      5 -0.718852D-01 -0.200497D+00  0.177888D-02  0.803556D-01  0.975960D+00
      6 -0.753452D-03  0.203154D-02 -0.846300D-01 -0.261962D-02 -0.154891D-01
      7 -0.929007D-02  0.285550D-01 -0.357656D-03 -0.248819D+00  0.141285D+00
      8 -0.605454D-02  0.186202D-01 -0.220137D-04  0.182885D+00 -0.360348D+00
      9 -0.138254D-03 -0.145705D-03  0.455501D-02 -0.121777D-02  0.295460D-02
     10  0.999980D-02  0.153916D-03 -0.379236D-03  0.245887D-01  0.160322D-01
     11  0.360012D-01  0.551200D-03 -0.152864D-02 -0.191234D-01 -0.124719D-01
     12 -0.107903D-02 -0.634562D-05 -0.148064D-02  0.156373D-03  0.382379D-04
     13 -0.165296D+00  0.150638D-01 -0.729054D-04  0.105842D-01 -0.325416D-01
     14 -0.801697D-02 -0.376876D+00  0.862427D-02  0.175899D-03 -0.541033D-03
     15  0.435951D-03  0.772189D-02 -0.780284D-01  0.124167D-03 -0.348125D-03
     16  0.178632D-01  0.293510D-03  0.327410D-04  0.000000D+00  0.000000D+00
     17 -0.240673D-01 -0.379861D-03  0.566660D-03  0.000000D+00  0.222931D-05
     18  0.620630D-03  0.441939D-03  0.169166D-01 -0.275195D-04  0.869111D-04
     19  0.725078D-05  0.772719D-05  0.298094D-03  0.000000D+00  0.000000D+00
     20  0.114946D-04  0.122498D-04  0.472566D-03  0.000000D+00  0.000000D+00
     21  0.236821D-03  0.252381D-03  0.973619D-02 -0.254477D-04  0.380091D-04
     22  0.892173D-02 -0.274306D-01  0.895572D-03 -0.206397D+00 -0.151117D+00
     23 -0.445336D-02  0.136927D-01  0.258594D-03 -0.145924D+00 -0.423195D+00
     24  0.373694D-04 -0.982454D-04  0.248039D-01  0.489551D-02  0.106185D-01
     25 -0.242032D+00  0.113292D+00 -0.456380D-02 -0.581238D-02  0.178706D-01
     26  0.116891D+00 -0.207491D+00  0.474594D-02 -0.685908D-02  0.210893D-01
     27 -0.469265D-02  0.469881D-02 -0.663162D-01 -0.100275D-03  0.322126D-03
                6             7             8             9            10 
      6  0.176122D+00
      7 -0.148722D-02  0.523833D+00
      8  0.372313D-02  0.354785D-01  0.710622D+00
      9 -0.421517D-01  0.153797D-02 -0.499582D-02  0.562630D-01
     10  0.161958D-03 -0.303863D+00 -0.217634D+00 -0.936589D-03  0.114095D+01
     11 -0.227403D-03 -0.174791D+00 -0.375178D+00  0.215625D-03 -0.756832D-01
     12 -0.163661D-02  0.144232D-03  0.128505D-02 -0.519974D-01 -0.535483D-02
     13  0.845018D-03 -0.849342D-02  0.660763D-02  0.424266D-03 -0.672499D+00
     14  0.109602D-03 -0.305106D-01  0.237326D-01  0.609603D-03  0.142060D+00
     15 -0.165313D-02 -0.154123D-03  0.142718D-03  0.920684D-02  0.110612D-01
     16  0.265405D-04  0.289920D-05 -0.156311D-05  0.194866D-03 -0.538332D-02
     17  0.877968D-04  0.139131D-05  0.000000D+00  0.935149D-04  0.730107D-02
     18  0.342281D-02  0.146815D-03 -0.791555D-04  0.986793D-02  0.114413D-02
     19 -0.108685D-03  0.221566D-01 -0.172299D-01  0.898251D-03 -0.193796D+00
     20  0.102749D-03  0.122017D-01 -0.948801D-02  0.629394D-03  0.127768D+00
     21  0.513085D-02  0.200202D-03 -0.140589D-03  0.426020D-02 -0.576514D-02
     22  0.464349D-02  0.244738D-01  0.159490D-01 -0.724549D-03  0.000000D+00
     23  0.973878D-02 -0.122198D-01 -0.796164D-02  0.518377D-03  0.000000D+00
     24 -0.751823D-01 -0.181993D-04  0.467145D-04  0.550481D-02 -0.233996D-04
     25 -0.708024D-03  0.000000D+00  0.000000D+00 -0.381815D-04  0.000000D+00
     26 -0.770655D-04  0.000000D+00  0.107133D-05  0.120410D-03  0.233071D-05
     27  0.205782D-01 -0.120163D-04  0.399613D-04  0.449139D-02  0.918902D-04
               11            12            13            14            15 
     11  0.959370D+00
     12 -0.751335D-02  0.248021D+00
     13  0.119913D+00  0.102106D-01  0.113034D+01
     14 -0.245805D+00 -0.155981D-02  0.140584D-01  0.816981D+00
     15 -0.245822D-02 -0.137501D+00 -0.162429D-01 -0.115219D-01  0.241664D+00
     16 -0.194037D-01  0.956932D-03 -0.320732D+00 -0.146542D+00  0.546345D-02
     17  0.262340D-01  0.378745D-04 -0.148901D+00 -0.233519D+00  0.465421D-02
     18  0.184943D-02  0.367893D-01  0.487492D-02  0.379354D-02 -0.983237D-01
     19  0.133088D+00 -0.507056D-02  0.791403D-02  0.284782D-01 -0.638132D-03
     20 -0.352703D+00  0.752473D-02  0.437343D-02  0.156552D-01  0.986493D-03
     21  0.952968D-02 -0.100690D+00  0.550473D-03 -0.617766D-03  0.422197D-01
     22  0.000000D+00  0.729893D-04  0.000000D+00 -0.157092D-05 -0.618676D-04
     23  0.000000D+00  0.977945D-04 -0.156034D-05  0.492782D-05  0.194072D-03
     24  0.349500D-04  0.471791D-02 -0.461117D-04  0.145628D-03  0.573527D-02
     25  0.000000D+00 -0.367439D-04  0.181848D-01  0.298257D-03  0.122488D-04
     26  0.248385D-05  0.958202D-04  0.214280D-01  0.367133D-03  0.628882D-03
     27  0.979278D-04  0.377779D-02 -0.543396D-03  0.416838D-03  0.166804D-01
               16            17            18            19            20 
     16  0.308259D+00
     17  0.165670D+00  0.207674D+00
     18 -0.630049D-02 -0.513811D-02  0.536592D-01
     19 -0.101264D-04 -0.485962D-05 -0.512799D-03  0.163727D+00
     20 -0.160533D-04 -0.770391D-05 -0.812937D-03 -0.144338D+00  0.346531D+00
     21 -0.330744D-03 -0.158722D-03 -0.167488D-01  0.513383D-02 -0.890299D-02
     22  0.000000D+00  0.000000D+00  0.000000D+00  0.000000D+00  0.000000D+00
     23  0.000000D+00  0.000000D+00  0.000000D+00  0.000000D+00  0.000000D+00
     24  0.000000D+00  0.000000D+00  0.000000D+00  0.000000D+00  0.000000D+00
     25  0.000000D+00  0.139297D-05  0.543060D-04  0.000000D+00  0.000000D+00
     26 -0.109811D-05 -0.363258D-05 -0.141618D-03  0.000000D+00  0.000000D+00
     27 -0.432939D-04 -0.143218D-03 -0.558343D-02  0.000000D+00  0.000000D+00
               21            22            23            24            25 
     21  0.560917D-01
     22  0.000000D+00  0.173002D+00
     23  0.000000D+00  0.162597D+00  0.417466D+00
     24  0.000000D+00 -0.491783D-02 -0.105184D-01  0.429675D-01
     25  0.000000D+00  0.000000D+00  0.245865D-05  0.726586D-04  0.229661D+00
     26  0.000000D+00  0.247177D-05 -0.775368D-05 -0.229139D-03 -0.131464D+00
     27  0.000000D+00  0.921986D-04 -0.289217D-03 -0.854702D-02  0.520754D-02
               26            27 
     26  0.186042D+00
     27 -0.514323D-02  0.349189D-01
 Leave Link  716 at Tue Dec 15 16:19:44 2015, MaxMem=    33554432 cpu:         0.0
 (Enter /home/Applications/g09/g09/l103.exe)

 GradGradGradGradGradGradGradGradGradGradGradGradGradGradGradGradGradGrad
 Berny optimization.
 Search for a local minimum.
 Step number   1 out of a maximum of    2
 All quantities printed in internal units (Hartrees-Bohrs-Radians)
 Second derivative matrix not updated -- first step.
 ITU=  0
     Eigenvalues ---    0.01770   0.03314   0.07213   0.08233   0.08278
     Eigenvalues ---    0.08406   0.13284   0.14012   0.17029   0.23940
     Eigenvalues ---    0.27182   0.29527   0.44459   0.48323   0.66712
     Eigenvalues ---    0.88496   1.13816   1.31362   1.49539   1.51750
     Eigenvalues ---    1.95476
 Quadratic step=4.695D-01 exceeds max=3.000D-01 adjusted using Lamda=-1.597D-01.
 Angle between NR and scaled steps=  13.21 degrees.
 Angle between quadratic step and forces=  34.51 degrees.
 Linear search not attempted -- first point.
 TrRot= -0.005260 -0.003727  0.000175  0.572357 -0.000229 -0.571950
 MatCor failed.
 Variable       Old X    -DE/DX   Delta X   Delta X   Delta X     New X
                                 (Linear)    (Quad)   (Total)
    X1        1.82444   0.04936   0.00000   0.08606   0.08135   1.90580
    Y1       -1.30701  -0.05297   0.00000  -0.06626  -0.06922  -1.37623
    Z1        0.03586   0.00089   0.00000   0.00030   0.00068   0.03654
    X2       -0.70259   0.03820   0.00000   0.01851   0.01411  -0.68849
    Y2       -2.12891   0.04485   0.00000   0.00830   0.00429  -2.12462
    Z2        0.03642  -0.00290   0.00000  -0.00339  -0.00361   0.03280
    X3       -2.13583  -0.06499   0.00000  -0.10981  -0.11511  -2.25093
    Y3        0.06934  -0.00738   0.00000   0.00092  -0.00372   0.06561
    Z3        0.01302   0.00045   0.00000   0.00173   0.00148   0.01450
    X4       -0.56309  -0.12912   0.00000  -0.09120  -0.09734  -0.66042
    Y4        2.09141   0.05889   0.00000   0.05738   0.05339   2.14481
    Z4        0.00584   0.00290   0.00000   0.00143   0.00175   0.00759
    X5        1.77944   0.13124   0.00000   0.09244   0.08661   1.86606
    Y5        1.43953  -0.04600   0.00000  -0.02261  -0.02558   1.41396
    Z5       -0.03424  -0.00096   0.00000   0.00110   0.00181  -0.03243
    X6        3.33910   0.03215   0.00000   0.11035   0.10403   3.44314
    Y6        2.59606   0.02274   0.00000   0.03896   0.03664   2.63271
    Z6       -0.07600  -0.00179   0.00000  -0.00621  -0.00505  -0.08105
    X7       -1.50221  -0.01351   0.00000  -0.05977  -0.06661  -1.56882
    Y7        3.79763   0.03308   0.00000   0.11450   0.11014   3.90777
    Z7       -0.04822  -0.00080   0.00000  -0.00327  -0.00291  -0.05113
    X8       -1.53618  -0.03905   0.00000  -0.05534  -0.05903  -1.59521
    Y8       -3.79849  -0.06929   0.00000  -0.09303  -0.09742  -3.89591
    Z8        0.08392   0.00212   0.00000   0.00268   0.00207   0.08599
    X9        3.40375  -0.00428   0.00000   0.05618   0.05198   3.45572
    Y9       -2.64603   0.01609   0.00000  -0.00620  -0.00853  -2.65457
    Z9        0.08519   0.00008   0.00000   0.00328   0.00379   0.08898
         Item               Value     Threshold  Converged?
 Maximum Force            0.131239     0.000450     NO 
 RMS     Force            0.047892     0.000300     NO 
 Maximum Displacement     0.115105     0.001800     NO 
 RMS     Displacement     0.057712     0.001200     NO 
 Predicted change in Energy=-3.802189D-02
 GradGradGradGradGradGradGradGradGradGradGradGradGradGradGradGradGradGrad

 Leave Link  103 at Tue Dec 15 16:19:44 2015, MaxMem=    33554432 cpu:         0.0
 (Enter /home/Applications/g09/g09/l9999.exe)
 1\1\GINC-DUSTIN-DESKTOP\Force\RB3LYP-FC\3-21G\C4H4O1\DUSTIN\15-Dec-201
 5\0\\#P B3LYP/3-21G CIS(Singlets,NStates=15) pop(full) force\\FuranDFT
 \\0,1\C,0.965454,-0.691642,0.018978\C,-0.371797,-1.126569,0.01927\O,-1
 .13023,0.036691,0.006891\C,-0.297972,1.106729,0.003092\C,0.941641,0.76
 1768,-0.018118\H,1.766977,1.373778,-0.040216\H,-0.794934,2.009617,-0.0
 25516\H,-0.812912,-2.010075,0.044408\H,1.801185,-1.400221,0.045079\\Ve
 rsion=ES64L-G09RevD.01\State=1-A\HF=-228.7319544\RMSD=3.547e-09\RMSF=4
 .789e-02\Dipole=0.3563698,0.1068671,-0.0019538\PG=C01 [X(C4H4O1)]\\@


 ON A TOMBSTONE, "HERE LIES LESTER MOORE,
 FOUR SLUGS FROM A 44, NO LES, NO MORE".
 Job cpu time:       0 days  0 hours  0 minutes 50.7 seconds.
 File lengths (MBytes):  RWF=     14 Int=      0 D2E=      0 Chk=      3 Scr=      1
 Normal termination of Gaussian 09 at Tue Dec 15 16:19:44 2015.
