 Entering Gaussian System, Link 0=g09
 Input=FuranDFT_20.com
 Output=FuranDFT_20.log
 Initial command:
 /home/Applications/g09/g09/l1.exe "/home/Applications/g09/scratch/Gau-5620.inp" -scrdir="/home/Applications/g09/scratch/"
 Entering Link 1 = /home/Applications/g09/g09/l1.exe PID=      5622.
  
 Copyright (c) 1988,1990,1992,1993,1995,1998,2003,2009,2013,
            Gaussian, Inc.  All Rights Reserved.
  
 This is part of the Gaussian(R) 09 program.  It is based on
 the Gaussian(R) 03 system (copyright 2003, Gaussian, Inc.),
 the Gaussian(R) 98 system (copyright 1998, Gaussian, Inc.),
 the Gaussian(R) 94 system (copyright 1995, Gaussian, Inc.),
 the Gaussian 92(TM) system (copyright 1992, Gaussian, Inc.),
 the Gaussian 90(TM) system (copyright 1990, Gaussian, Inc.),
 the Gaussian 88(TM) system (copyright 1988, Gaussian, Inc.),
 the Gaussian 86(TM) system (copyright 1986, Carnegie Mellon
 University), and the Gaussian 82(TM) system (copyright 1983,
 Carnegie Mellon University). Gaussian is a federally registered
 trademark of Gaussian, Inc.
  
 This software contains proprietary and confidential information,
 including trade secrets, belonging to Gaussian, Inc.
  
 This software is provided under written license and may be
 used, copied, transmitted, or stored only in accord with that
 written license.
  
 The following legend is applicable only to US Government
 contracts under FAR:
  
                    RESTRICTED RIGHTS LEGEND
  
 Use, reproduction and disclosure by the US Government is
 subject to restrictions as set forth in subparagraphs (a)
 and (c) of the Commercial Computer Software - Restricted
 Rights clause in FAR 52.227-19.
  
 Gaussian, Inc.
 340 Quinnipiac St., Bldg. 40, Wallingford CT 06492
  
  
 ---------------------------------------------------------------
 Warning -- This program may not be used in any manner that
 competes with the business of Gaussian, Inc. or will provide
 assistance to any competitor of Gaussian, Inc.  The licensee
 of this program is prohibited from giving any competitor of
 Gaussian, Inc. access to this program.  By using this program,
 the user acknowledges that Gaussian, Inc. is engaged in the
 business of creating and licensing software in the field of
 computational chemistry and represents and warrants to the
 licensee that it is not a competitor of Gaussian, Inc. and that
 it will not use this program in any manner prohibited above.
 ---------------------------------------------------------------
  

 Cite this work as:
 Gaussian 09, Revision D.01,
 M. J. Frisch, G. W. Trucks, H. B. Schlegel, G. E. Scuseria, 
 M. A. Robb, J. R. Cheeseman, G. Scalmani, V. Barone, B. Mennucci, 
 G. A. Petersson, H. Nakatsuji, M. Caricato, X. Li, H. P. Hratchian, 
 A. F. Izmaylov, J. Bloino, G. Zheng, J. L. Sonnenberg, M. Hada, 
 M. Ehara, K. Toyota, R. Fukuda, J. Hasegawa, M. Ishida, T. Nakajima, 
 Y. Honda, O. Kitao, H. Nakai, T. Vreven, J. A. Montgomery, Jr., 
 J. E. Peralta, F. Ogliaro, M. Bearpark, J. J. Heyd, E. Brothers, 
 K. N. Kudin, V. N. Staroverov, T. Keith, R. Kobayashi, J. Normand, 
 K. Raghavachari, A. Rendell, J. C. Burant, S. S. Iyengar, J. Tomasi, 
 M. Cossi, N. Rega, J. M. Millam, M. Klene, J. E. Knox, J. B. Cross, 
 V. Bakken, C. Adamo, J. Jaramillo, R. Gomperts, R. E. Stratmann, 
 O. Yazyev, A. J. Austin, R. Cammi, C. Pomelli, J. W. Ochterski, 
 R. L. Martin, K. Morokuma, V. G. Zakrzewski, G. A. Voth, 
 P. Salvador, J. J. Dannenberg, S. Dapprich, A. D. Daniels, 
 O. Farkas, J. B. Foresman, J. V. Ortiz, J. Cioslowski, 
 and D. J. Fox, Gaussian, Inc., Wallingford CT, 2013.
 
 ******************************************
 Gaussian 09:  ES64L-G09RevD.01 24-Apr-2013
                15-Dec-2015 
 ******************************************
 -------------------------------------------------------
 #P B3LYP/3-21G CIS(Singlets,NStates=15) pop(full) force
 -------------------------------------------------------
 1/10=7,30=1,38=1/1,3;
 2/12=2,17=6,18=5,40=1/2;
 3/5=5,11=9,16=1,25=1,30=1,71=1,74=-5/1,2,8,3;
 4//1;
 5/5=2,38=5/2;
 8/6=1,10=1,108=15/1;
 9/15=2,41=15,42=1,48=1/14;
 10/5=4/2;
 6/7=3,18=1/1;
 7/12=6,13=5,29=1/1,2,3,16;
 1/10=7,30=1/3;
 99//99;
 Leave Link    1 at Tue Dec 15 16:14:37 2015, MaxMem=           0 cpu:         0.0
 (Enter /home/Applications/g09/g09/l101.exe)
 --------
 FuranDFT
 --------
 Symbolic Z-matrix:
 Charge =  0 Multiplicity = 1
 6                     0.95466  -0.68804  -0.00788 
 6                    -0.37458  -1.07883  -0.01726 
 8                    -1.16041  -0.04338  -0.0211 
 6                    -0.32208   1.12275   0.01839 
 6                     0.95094   0.70982  -0.02455 
 1                     1.81803   1.3673   -0.00422 
 1                    -0.81017   2.01295   0.03736 
 1                    -0.85179  -2.08386   0.00675 
 1                     1.77897  -1.38993   0.03134 
 
 NAtoms=      9 NQM=        9 NQMF=       0 NMMI=      0 NMMIF=      0
                NMic=       0 NMicF=      0.
                    Isotopes and Nuclear Properties:
 (Nuclear quadrupole moments (NQMom) in fm**2, nuclear magnetic moments (NMagM)
  in nuclear magnetons)

  Atom         1           2           3           4           5           6           7           8           9
 IAtWgt=          12          12          16          12          12           1           1           1           1
 AtmWgt=  12.0000000  12.0000000  15.9949146  12.0000000  12.0000000   1.0078250   1.0078250   1.0078250   1.0078250
 NucSpn=           0           0           0           0           0           1           1           1           1
 AtZEff=   0.0000000   0.0000000   0.0000000   0.0000000   0.0000000   0.0000000   0.0000000   0.0000000   0.0000000
 NQMom=    0.0000000   0.0000000   0.0000000   0.0000000   0.0000000   0.0000000   0.0000000   0.0000000   0.0000000
 NMagM=    0.0000000   0.0000000   0.0000000   0.0000000   0.0000000   2.7928460   2.7928460   2.7928460   2.7928460
 AtZNuc=   6.0000000   6.0000000   8.0000000   6.0000000   6.0000000   1.0000000   1.0000000   1.0000000   1.0000000
 Leave Link  101 at Tue Dec 15 16:14:37 2015, MaxMem=    33554432 cpu:         0.0
 (Enter /home/Applications/g09/g09/l103.exe)

 GradGradGradGradGradGradGradGradGradGradGradGradGradGradGradGradGradGrad
 Berny optimization.
 Initialization pass.
 Trust Radius=3.00D-01 FncErr=1.00D-07 GrdErr=1.00D-07
 Number of steps in this run=      2 maximum allowed number of steps=      2.
 GradGradGradGradGradGradGradGradGradGradGradGradGradGradGradGradGradGrad

 Leave Link  103 at Tue Dec 15 16:14:37 2015, MaxMem=    33554432 cpu:         0.0
 (Enter /home/Applications/g09/g09/l202.exe)
                          Input orientation:                          
 ---------------------------------------------------------------------
 Center     Atomic      Atomic             Coordinates (Angstroms)
 Number     Number       Type             X           Y           Z
 ---------------------------------------------------------------------
      1          6           0        0.954661   -0.688042   -0.007884
      2          6           0       -0.374578   -1.078835   -0.017255
      3          8           0       -1.160414   -0.043382   -0.021097
      4          6           0       -0.322080    1.122755    0.018393
      5          6           0        0.950935    0.709821   -0.024550
      6          1           0        1.818028    1.367301   -0.004215
      7          1           0       -0.810170    2.012950    0.037361
      8          1           0       -0.851789   -2.083855    0.006747
      9          1           0        1.778971   -1.389932    0.031342
 ---------------------------------------------------------------------
                    Distance matrix (angstroms):
                    1          2          3          4          5
     1  C    0.000000
     2  C    1.385526   0.000000
     3  O    2.211177   1.299891   0.000000
     4  C    2.215794   2.202504   1.436746   0.000000
     5  C    1.397967   2.226281   2.241678   1.339002   0.000000
     6  H    2.229316   3.285007   3.295668   2.154153   1.088367
     7  H    3.226768   3.122796   2.086765   1.015401   2.191682
     8  H    2.282930   1.112821   2.063869   3.250088   3.324969
     9  H    1.083363   2.176446   3.233563   3.275390   2.257815
                    6          7          8          9
     6  H    0.000000
     7  H    2.706661   0.000000
     8  H    4.363315   4.097131   0.000000
     9  H    2.757739   4.275897   2.720851   0.000000
 Stoichiometry    C4H4O
 Framework group  C1[X(C4H4O)]
 Deg. of freedom    21
 Full point group                 C1      NOp   1
 Largest Abelian subgroup         C1      NOp   1
 Largest concise Abelian subgroup C1      NOp   1
                         Standard orientation:                         
 ---------------------------------------------------------------------
 Center     Atomic      Atomic             Coordinates (Angstroms)
 Number     Number       Type             X           Y           Z
 ---------------------------------------------------------------------
      1          6           0        0.233851    1.154702    0.003250
      2          6           0        1.135344    0.102583   -0.003083
      3          8           0        0.513178   -1.038706   -0.012188
      4          6           0       -0.894355   -0.752286    0.020260
      5          6           0       -1.039467    0.578183   -0.021205
      6          1           0       -1.994764    1.099424   -0.005095
      7          1           0       -1.506241   -1.562490    0.034581
      8          1           0        2.247521    0.079366    0.026829
      9          1           0        0.535823    2.194256    0.045854
 ---------------------------------------------------------------------
 Rotational constants (GHZ):      9.7408866      9.1226251      4.7122869
 Leave Link  202 at Tue Dec 15 16:14:37 2015, MaxMem=    33554432 cpu:         0.0
 (Enter /home/Applications/g09/g09/l301.exe)
 Standard basis: 3-21G (6D, 7F)
 Ernie: Thresh=  0.10000D-02 Tol=  0.10000D-05 Strict=F.
 There are    53 symmetry adapted cartesian basis functions of A   symmetry.
 There are    53 symmetry adapted basis functions of A   symmetry.
    53 basis functions,    87 primitive gaussians,    53 cartesian basis functions
    18 alpha electrons       18 beta electrons
       nuclear repulsion energy       161.3750768544 Hartrees.
 IExCor=  402 DFT=T Ex+Corr=B3LYP ExCW=0 ScaHFX=  0.200000
 ScaDFX=  0.800000  0.720000  1.000000  0.810000 ScalE2=  1.000000  1.000000
 IRadAn=      0 IRanWt=     -1 IRanGd=            0 ICorTp=0 IEmpDi=  4
 NAtoms=    9 NActive=    9 NUniq=    9 SFac= 1.00D+00 NAtFMM=   60 NAOKFM=F Big=F
 Integral buffers will be    131072 words long.
 Regular integral format.
 Two-electron integral symmetry is turned on.
 Leave Link  301 at Tue Dec 15 16:14:37 2015, MaxMem=    33554432 cpu:         0.0
 (Enter /home/Applications/g09/g09/l302.exe)
 NPDir=0 NMtPBC=     1 NCelOv=     1 NCel=       1 NClECP=     1 NCelD=      1
         NCelK=      1 NCelE2=     1 NClLst=     1 CellRange=     0.0.
 One-electron integrals computed using PRISM.
 NBasis=    53 RedAO= T EigKep=  3.06D-03  NBF=    53
 NBsUse=    53 1.00D-06 EigRej= -1.00D+00 NBFU=    53
 Precomputing XC quadrature grid using
 IXCGrd= 4 IRadAn=           0 IRanWt=          -1 IRanGd=           0 AccXCQ= 0.00D+00.
 Generated NRdTot=       0 NPtTot=           0 NUsed=           0 NTot=          32
 NSgBfM=    53    53    53    53    53 MxSgAt=     9 MxSgA2=     9.
 Leave Link  302 at Tue Dec 15 16:14:37 2015, MaxMem=    33554432 cpu:         0.1
 (Enter /home/Applications/g09/g09/l308.exe)
 Leave Link  308 at Tue Dec 15 16:14:37 2015, MaxMem=    33554432 cpu:         0.0
 (Enter /home/Applications/g09/g09/l303.exe)
 DipDrv:  MaxL=1.
 Leave Link  303 at Tue Dec 15 16:14:37 2015, MaxMem=    33554432 cpu:         0.0
 (Enter /home/Applications/g09/g09/l401.exe)
 ExpMin= 1.83D-01 ExpMax= 3.22D+02 ExpMxC= 3.22D+02 IAcc=1 IRadAn=         1 AccDes= 0.00D+00
 Harris functional with IExCor=  402 and IRadAn=       1 diagonalized for initial guess.
 HarFok:  IExCor=  402 AccDes= 0.00D+00 IRadAn=         1 IDoV= 1 UseB2=F ITyADJ=14
 ICtDFT=  3500011 ScaDFX=  1.000000  1.000000  1.000000  1.000000
 FoFCou: FMM=F IPFlag=           0 FMFlag=      100000 FMFlg1=           0
         NFxFlg=           0 DoJE=T BraDBF=F KetDBF=T FulRan=T
         wScrn=  0.000000 ICntrl=     500 IOpCl=  0 I1Cent=   200000004 NGrid=           0
         NMat0=    1 NMatS0=      1 NMatT0=    0 NMatD0=    1 NMtDS0=    0 NMtDT0=    0
 Petite list used in FoFCou.
 Harris En= -228.731818447401    
 JPrj=0 DoOrth=F DoCkMO=F.
 Leave Link  401 at Tue Dec 15 16:14:38 2015, MaxMem=    33554432 cpu:         0.3
 (Enter /home/Applications/g09/g09/l502.exe)
 Closed shell SCF:
 Using DIIS extrapolation, IDIIS=  1040.
 Integral symmetry usage will be decided dynamically.
 Keep R1 ints in memory in canonical form, NReq=1925595.
 IVT=       27707 IEndB=       27707 NGot=    33554432 MDV=    32502130
 LenX=    32502130 LenY=    32498880
 Requested convergence on RMS density matrix=1.00D-08 within 128 cycles.
 Requested convergence on MAX density matrix=1.00D-06.
 Requested convergence on             energy=1.00D-06.
 No special actions if energy rises.
 FoFCou: FMM=F IPFlag=           0 FMFlag=           0 FMFlg1=           0
         NFxFlg=           0 DoJE=F BraDBF=F KetDBF=F FulRan=T
         wScrn=  0.000000 ICntrl=     600 IOpCl=  0 I1Cent=           0 NGrid=           0
         NMat0=    1 NMatS0=   1431 NMatT0=    0 NMatD0=    1 NMtDS0=    0 NMtDT0=    0
 Symmetry not used in FoFCou.
 Integral accuracy reduced to 1.0D-05 until final iterations.

 Cycle   1  Pass 0  IDiag  1:
 E= -228.655967920892    
 DIIS: error= 3.40D-02 at cycle   1 NSaved=   1.
 NSaved= 1 IEnMin= 1 EnMin= -228.655967920892     IErMin= 1 ErrMin= 3.40D-02
 ErrMax= 3.40D-02  0.00D+00 EMaxC= 1.00D-01 BMatC= 7.99D-02 BMatP= 7.99D-02
 IDIUse=3 WtCom= 6.60D-01 WtEn= 3.40D-01
 Coeff-Com:  0.100D+01
 Coeff-En:   0.100D+01
 Coeff:      0.100D+01
 Gap=     0.220 Goal=   None    Shift=    0.000
 GapD=    0.220 DampG=1.000 DampE=0.500 DampFc=0.5000 IDamp=-1.
 Damping current iteration by 5.00D-01
 RMSDP=1.24D-02 MaxDP=1.16D-01              OVMax= 2.06D-01

 Cycle   2  Pass 0  IDiag  1:
 E= -228.686669962313     Delta-E=       -0.030702041422 Rises=F Damp=T
 DIIS: error= 1.43D-02 at cycle   2 NSaved=   2.
 NSaved= 2 IEnMin= 2 EnMin= -228.686669962313     IErMin= 2 ErrMin= 1.43D-02
 ErrMax= 1.43D-02  0.00D+00 EMaxC= 1.00D-01 BMatC= 1.00D-02 BMatP= 7.99D-02
 IDIUse=3 WtCom= 8.57D-01 WtEn= 1.43D-01
 Coeff-Com:  0.132D+00 0.868D+00
 Coeff-En:   0.231D+00 0.769D+00
 Coeff:      0.146D+00 0.854D+00
 Gap=     0.236 Goal=   None    Shift=    0.000
 RMSDP=4.48D-03 MaxDP=3.77D-02 DE=-3.07D-02 OVMax= 1.61D-01

 Cycle   3  Pass 0  IDiag  1:
 E= -228.729099636146     Delta-E=       -0.042429673833 Rises=F Damp=F
 DIIS: error= 1.85D-02 at cycle   3 NSaved=   3.
 NSaved= 3 IEnMin= 3 EnMin= -228.729099636146     IErMin= 2 ErrMin= 1.43D-02
 ErrMax= 1.85D-02  0.00D+00 EMaxC= 1.00D-01 BMatC= 1.19D-02 BMatP= 1.00D-02
 IDIUse=2 WtCom= 0.00D+00 WtEn= 1.00D+00
 Coeff-En:   0.000D+00 0.000D+00 0.100D+01
 Coeff:      0.000D+00 0.000D+00 0.100D+01
 Gap=     0.230 Goal=   None    Shift=    0.000
 RMSDP=5.87D-03 MaxDP=4.72D-02 DE=-4.24D-02 OVMax= 1.12D-01

 Cycle   4  Pass 0  IDiag  1:
 E= -228.698330047929     Delta-E=        0.030769588217 Rises=F Damp=F
 DIIS: error= 3.95D-02 at cycle   4 NSaved=   4.
 NSaved= 4 IEnMin= 3 EnMin= -228.729099636146     IErMin= 2 ErrMin= 1.43D-02
 ErrMax= 3.95D-02  0.00D+00 EMaxC= 1.00D-01 BMatC= 4.64D-02 BMatP= 1.00D-02
 IDIUse=2 WtCom= 0.00D+00 WtEn= 1.00D+00
 Coeff-En:   0.000D+00 0.000D+00 0.748D+00 0.252D+00
 Coeff:      0.000D+00 0.000D+00 0.748D+00 0.252D+00
 Gap=     0.241 Goal=   None    Shift=    0.000
 RMSDP=2.96D-03 MaxDP=2.38D-02 DE= 3.08D-02 OVMax= 6.13D-02

 Cycle   5  Pass 0  IDiag  1:
 E= -228.737635913048     Delta-E=       -0.039305865119 Rises=F Damp=F
 DIIS: error= 8.61D-03 at cycle   5 NSaved=   5.
 NSaved= 5 IEnMin= 5 EnMin= -228.737635913048     IErMin= 5 ErrMin= 8.61D-03
 ErrMax= 8.61D-03  0.00D+00 EMaxC= 1.00D-01 BMatC= 2.48D-03 BMatP= 1.00D-02
 IDIUse=3 WtCom= 9.14D-01 WtEn= 8.61D-02
 Coeff-Com: -0.661D-02 0.255D-01 0.251D+00-0.709D-01 0.801D+00
 Coeff-En:   0.000D+00 0.000D+00 0.210D+00 0.000D+00 0.790D+00
 Coeff:     -0.604D-02 0.233D-01 0.247D+00-0.648D-01 0.801D+00
 Gap=     0.246 Goal=   None    Shift=    0.000
 RMSDP=9.86D-04 MaxDP=7.85D-03 DE=-3.93D-02 OVMax= 1.97D-02

 Cycle   6  Pass 0  IDiag  1:
 E= -228.739858009738     Delta-E=       -0.002222096690 Rises=F Damp=F
 DIIS: error= 6.37D-04 at cycle   6 NSaved=   6.
 NSaved= 6 IEnMin= 6 EnMin= -228.739858009738     IErMin= 6 ErrMin= 6.37D-04
 ErrMax= 6.37D-04  0.00D+00 EMaxC= 1.00D-01 BMatC= 1.32D-05 BMatP= 2.48D-03
 IDIUse=3 WtCom= 9.94D-01 WtEn= 6.37D-03
 Coeff-Com: -0.637D-02 0.155D-01 0.879D-01-0.508D-01 0.409D+00 0.545D+00
 Coeff-En:   0.000D+00 0.000D+00 0.000D+00 0.000D+00 0.000D+00 0.100D+01
 Coeff:     -0.633D-02 0.154D-01 0.873D-01-0.505D-01 0.406D+00 0.548D+00
 Gap=     0.246 Goal=   None    Shift=    0.000
 RMSDP=8.01D-05 MaxDP=7.66D-04 DE=-2.22D-03 OVMax= 1.58D-03

 Cycle   7  Pass 0  IDiag  1:
 E= -228.739870624230     Delta-E=       -0.000012614492 Rises=F Damp=F
 DIIS: error= 1.66D-04 at cycle   7 NSaved=   7.
 NSaved= 7 IEnMin= 7 EnMin= -228.739870624230     IErMin= 7 ErrMin= 1.66D-04
 ErrMax= 1.66D-04  0.00D+00 EMaxC= 1.00D-01 BMatC= 7.98D-07 BMatP= 1.32D-05
 IDIUse=3 WtCom= 9.98D-01 WtEn= 1.66D-03
 Coeff-Com: -0.311D-02 0.650D-02 0.211D-01-0.233D-01 0.151D+00 0.335D+00
 Coeff-Com:  0.513D+00
 Coeff-En:   0.000D+00 0.000D+00 0.000D+00 0.000D+00 0.000D+00 0.000D+00
 Coeff-En:   0.100D+01
 Coeff:     -0.311D-02 0.649D-02 0.211D-01-0.232D-01 0.151D+00 0.334D+00
 Coeff:      0.513D+00
 Gap=     0.246 Goal=   None    Shift=    0.000
 RMSDP=1.68D-05 MaxDP=2.11D-04 DE=-1.26D-05 OVMax= 4.52D-04

 Cycle   8  Pass 0  IDiag  1:
 E= -228.739871438154     Delta-E=       -0.000000813925 Rises=F Damp=F
 DIIS: error= 2.11D-05 at cycle   8 NSaved=   8.
 NSaved= 8 IEnMin= 8 EnMin= -228.739871438154     IErMin= 8 ErrMin= 2.11D-05
 ErrMax= 2.11D-05  0.00D+00 EMaxC= 1.00D-01 BMatC= 1.54D-08 BMatP= 7.98D-07
 IDIUse=1 WtCom= 1.00D+00 WtEn= 0.00D+00
 Coeff-Com: -0.248D-03 0.156D-03 0.235D-02-0.221D-02 0.195D-01 0.871D-01
 Coeff-Com:  0.163D+00 0.730D+00
 Coeff:     -0.248D-03 0.156D-03 0.235D-02-0.221D-02 0.195D-01 0.871D-01
 Coeff:      0.163D+00 0.730D+00
 Gap=     0.246 Goal=   None    Shift=    0.000
 RMSDP=1.98D-06 MaxDP=1.92D-05 DE=-8.14D-07 OVMax= 3.65D-05

 Initial convergence to 1.0D-05 achieved.  Increase integral accuracy.
 Cycle   9  Pass 1  IDiag  1:
 E= -228.739853438614     Delta-E=        0.000017999540 Rises=F Damp=F
 DIIS: error= 1.37D-05 at cycle   1 NSaved=   1.
 NSaved= 1 IEnMin= 1 EnMin= -228.739853438614     IErMin= 1 ErrMin= 1.37D-05
 ErrMax= 1.37D-05  0.00D+00 EMaxC= 1.00D-01 BMatC= 8.44D-09 BMatP= 8.44D-09
 IDIUse=1 WtCom= 1.00D+00 WtEn= 0.00D+00
 Coeff-Com:  0.100D+01
 Coeff:      0.100D+01
 Gap=     0.246 Goal=   None    Shift=    0.000
 RMSDP=1.98D-06 MaxDP=1.92D-05 DE= 1.80D-05 OVMax= 3.33D-05

 Cycle  10  Pass 1  IDiag  1:
 E= -228.739853449123     Delta-E=       -0.000000010509 Rises=F Damp=F
 DIIS: error= 6.63D-06 at cycle   2 NSaved=   2.
 NSaved= 2 IEnMin= 2 EnMin= -228.739853449123     IErMin= 2 ErrMin= 6.63D-06
 ErrMax= 6.63D-06  0.00D+00 EMaxC= 1.00D-01 BMatC= 1.63D-09 BMatP= 8.44D-09
 IDIUse=1 WtCom= 1.00D+00 WtEn= 0.00D+00
 Coeff-Com:  0.184D+00 0.816D+00
 Coeff:      0.184D+00 0.816D+00
 Gap=     0.246 Goal=   None    Shift=    0.000
 RMSDP=1.79D-06 MaxDP=1.59D-05 DE=-1.05D-08 OVMax= 3.72D-05

 Cycle  11  Pass 1  IDiag  1:
 E= -228.739853447422     Delta-E=        0.000000001701 Rises=F Damp=F
 DIIS: error= 1.04D-05 at cycle   3 NSaved=   3.
 NSaved= 3 IEnMin= 2 EnMin= -228.739853449123     IErMin= 2 ErrMin= 6.63D-06
 ErrMax= 1.04D-05  0.00D+00 EMaxC= 1.00D-01 BMatC= 3.70D-09 BMatP= 1.63D-09
 IDIUse=1 WtCom= 1.00D+00 WtEn= 0.00D+00
 Coeff-Com: -0.281D-01 0.615D+00 0.413D+00
 Coeff:     -0.281D-01 0.615D+00 0.413D+00
 Gap=     0.246 Goal=   None    Shift=    0.000
 RMSDP=1.07D-06 MaxDP=9.73D-06 DE= 1.70D-09 OVMax= 2.27D-05

 Cycle  12  Pass 1  IDiag  1:
 E= -228.739853450576     Delta-E=       -0.000000003155 Rises=F Damp=F
 DIIS: error= 3.95D-07 at cycle   4 NSaved=   4.
 NSaved= 4 IEnMin= 4 EnMin= -228.739853450576     IErMin= 4 ErrMin= 3.95D-07
 ErrMax= 3.95D-07  0.00D+00 EMaxC= 1.00D-01 BMatC= 4.70D-12 BMatP= 1.63D-09
 IDIUse=1 WtCom= 1.00D+00 WtEn= 0.00D+00
 Coeff-Com: -0.979D-02 0.188D+00 0.125D+00 0.697D+00
 Coeff:     -0.979D-02 0.188D+00 0.125D+00 0.697D+00
 Gap=     0.246 Goal=   None    Shift=    0.000
 RMSDP=7.63D-08 MaxDP=8.72D-07 DE=-3.15D-09 OVMax= 2.15D-06

 Cycle  13  Pass 1  IDiag  1:
 E= -228.739853450576     Delta-E=        0.000000000000 Rises=F Damp=F
 DIIS: error= 2.91D-07 at cycle   5 NSaved=   5.
 NSaved= 5 IEnMin= 4 EnMin= -228.739853450576     IErMin= 5 ErrMin= 2.91D-07
 ErrMax= 2.91D-07  0.00D+00 EMaxC= 1.00D-01 BMatC= 3.35D-12 BMatP= 4.70D-12
 IDIUse=1 WtCom= 1.00D+00 WtEn= 0.00D+00
 Coeff-Com: -0.357D-02 0.441D-01 0.283D-01 0.453D+00 0.478D+00
 Coeff:     -0.357D-02 0.441D-01 0.283D-01 0.453D+00 0.478D+00
 Gap=     0.246 Goal=   None    Shift=    0.000
 RMSDP=3.61D-08 MaxDP=3.99D-07 DE= 2.27D-13 OVMax= 1.14D-06

 Cycle  14  Pass 1  IDiag  1:
 E= -228.739853450581     Delta-E=       -0.000000000005 Rises=F Damp=F
 DIIS: error= 3.49D-08 at cycle   6 NSaved=   6.
 NSaved= 6 IEnMin= 6 EnMin= -228.739853450581     IErMin= 6 ErrMin= 3.49D-08
 ErrMax= 3.49D-08  0.00D+00 EMaxC= 1.00D-01 BMatC= 2.96D-14 BMatP= 3.35D-12
 IDIUse=1 WtCom= 1.00D+00 WtEn= 0.00D+00
 Coeff-Com: -0.385D-03 0.224D-02 0.281D-02 0.692D-01 0.107D+00 0.819D+00
 Coeff:     -0.385D-03 0.224D-02 0.281D-02 0.692D-01 0.107D+00 0.819D+00
 Gap=     0.246 Goal=   None    Shift=    0.000
 RMSDP=4.54D-09 MaxDP=3.74D-08 DE=-4.55D-12 OVMax= 8.48D-08

 SCF Done:  E(RB3LYP) =  -228.739853451     A.U. after   14 cycles
            NFock= 14  Conv=0.45D-08     -V/T= 2.0077
 KE= 2.269965386352D+02 PE=-8.553942675537D+02 EE= 2.382827986136D+02
 Leave Link  502 at Tue Dec 15 16:14:43 2015, MaxMem=    33554432 cpu:         5.0
 (Enter /home/Applications/g09/g09/l801.exe)
 DoSCS=F DFT=T ScalE2(SS,OS)=  1.000000  1.000000
 ExpMin= 1.83D-01 ExpMax= 3.22D+02 ExpMxC= 3.22D+02 IAcc=3 IRadAn=         5 AccDes= 0.00D+00
 HarFok:  IExCor=  205 AccDes= 0.00D+00 IRadAn=         5 IDoV=-2 UseB2=F ITyADJ=14
 ICtDFT= 12500011 ScaDFX=  1.000000  1.000000  1.000000  1.000000
 Largest valence mixing into a core orbital is  1.78D-04
 Largest core mixing into a valence orbital is  4.62D-05
 Range of M.O.s used for correlation:     6    53
 NBasis=    53 NAE=    18 NBE=    18 NFC=     5 NFV=     0
 NROrb=     48 NOA=    13 NOB=    13 NVA=    35 NVB=    35
 Leave Link  801 at Tue Dec 15 16:14:43 2015, MaxMem=    33554432 cpu:         0.3
 (Enter /home/Applications/g09/g09/l914.exe)
 RHF ground state
 MDV=    33554432 DFT=T DoStab=F Mixed=T DoRPA=F DoScal=F NonHer=F
 Keep R1, R2, and R3 ints in memory in canonical form, NReq=5596273.
 FoFCou: FMM=F IPFlag=           0 FMFlag=           0 FMFlg1=           0
         NFxFlg=           0 DoJE=F BraDBF=F KetDBF=F FulRan=T
         wScrn=  0.000000 ICntrl=     600 IOpCl=  0 I1Cent=           0 NGrid=           0
         NMat0=    1 NMatS0=   1431 NMatT0=    0 NMatD0=    1 NMtDS0=    0 NMtDT0=    0
 Symmetry not used in FoFCou.
 Making orbital integer symmetry assigments:
 Orbital symmetries:
       Occupied  (A) (A) (A) (A) (A) (A) (A) (A) (A) (A) (A) (A)
                 (A) (A) (A) (A) (A) (A)
       Virtual   (A) (A) (A) (A) (A) (A) (A) (A) (A) (A) (A) (A)
                 (A) (A) (A) (A) (A) (A) (A) (A) (A) (A) (A) (A)
                 (A) (A) (A) (A) (A) (A) (A) (A) (A) (A) (A)
    60 initial guesses have been made.
 Convergence on wavefunction:    0.000001000000000
 Davidson Disk Diagonalization:  ConvIn= 1.00D-06 SkipCon=T Conv= 1.00D-06.
 Max sub-space:   240 roots to seek:    60 dimension of matrix:          910
 Iteration     1 Dimension    60 NMult     0 NNew     60
 CISAX will form    60 AO SS matrices at one time.
 NMat=    60 NSing=    60 JSym2X= 0.
 New state      1 was old state      3
 New state      2 was old state      1
 New state      3 was old state      4
 New state      4 was old state      7
 New state      6 was old state      9
 New state      7 was old state      8
 New state      8 was old state     10
 New state      9 was old state     13
 New state     10 was old state     11
 New state     11 was old state     12
 New state     12 was old state      6
 New state     13 was old state     14
 New state     14 was old state     15
 New state     15 was old state      2
 Excitation Energies [eV] at current iteration:
 Root      1 :     7.359374349837351
 Root      2 :     8.013278064180476
 Root      3 :     8.276615014809906
 Root      4 :     8.628228133822459
 Root      5 :     8.698832229235643
 Root      6 :     9.797460764980343
 Root      7 :    10.063516579552710
 Root      8 :    10.195557457527330
 Root      9 :    10.222273757195590
 Root     10 :    10.314917367112160
 Root     11 :    10.339587633430290
 Root     12 :    10.454957580111690
 Root     13 :    10.623623405504830
 Root     14 :    10.707055406154770
 Root     15 :    11.118229778709130
 Root     16 :    11.386149379752140
 Root     17 :    11.637092480100860
 Root     18 :    11.687794088266430
 Root     19 :    11.765076126089690
 Root     20 :    11.870377134679020
 Root     21 :    11.920787584592400
 Root     22 :    12.043611288424540
 Root     23 :    12.248036938503350
 Root     24 :    12.387588940783730
 Root     25 :    13.113521163315180
 Root     26 :    13.390354966022750
 Root     27 :    13.471866225095630
 Root     28 :    13.638375374031840
 Root     29 :    13.739169261380510
 Root     30 :    13.907857999756850
 Root     31 :    13.974304820799450
 Root     32 :    14.003753355219490
 Root     33 :    14.032644459959470
 Root     34 :    14.206177248480680
 Root     35 :    14.284859247664060
 Root     36 :    14.297657633242930
 Root     37 :    14.390364554944220
 Root     38 :    14.668648312427240
 Root     39 :    14.817035293817560
 Root     40 :    15.053813748905490
 Root     41 :    15.133543932937140
 Root     42 :    15.249916006774060
 Root     43 :    15.318062404617310
 Root     44 :    15.362462249455090
 Root     45 :    15.633192457316590
 Root     46 :    15.657012442828340
 Root     47 :    15.702731789533590
 Root     48 :    15.741739107204480
 Root     49 :    15.862874829285070
 Root     50 :    15.921659067710330
 Root     51 :    16.071743400968310
 Root     52 :    16.298719557585130
 Root     53 :    16.361331933448060
 Root     54 :    16.452668349257970
 Root     55 :    16.461688132427540
 Root     56 :    16.720272784771040
 Root     57 :    16.939367057666440
 Root     58 :    17.058758646278530
 Root     59 :    17.790834737901200
 Root     60 :    17.981136221379890
 Iteration     2 Dimension   120 NMult    60 NNew     60
 CISAX will form    60 AO SS matrices at one time.
 NMat=    60 NSing=    60 JSym2X= 0.
 Root      1 not converged, maximum delta is    0.268048611941455
 Root      2 not converged, maximum delta is    0.273408864469179
 Root      3 not converged, maximum delta is    0.074249517058471
 Root      4 not converged, maximum delta is    0.043619286364599
 Root      5 not converged, maximum delta is    0.043503057297610
 New state      6 was old state     12
 Root      6 not converged, maximum delta is    0.314243964604161
 New state      7 was old state      6
 Root      7 not converged, maximum delta is    0.241125722731398
 New state      8 was old state     15
 Root      8 not converged, maximum delta is    0.248483087347414
 New state      9 was old state      7
 Root      9 not converged, maximum delta is    0.256546092295966
 New state     10 was old state      8
 Root     10 not converged, maximum delta is    0.080406758340847
 New state     11 was old state      9
 Root     11 not converged, maximum delta is    0.244572980587842
 New state     12 was old state     11
 Root     12 not converged, maximum delta is    0.339667001756894
 New state     13 was old state     10
 Root     13 not converged, maximum delta is    0.215431359635724
 New state     14 was old state     13
 Root     14 not converged, maximum delta is    0.066636958980944
 New state     15 was old state     14
 Root     15 not converged, maximum delta is    0.086138754398660
 Excitation Energies [eV] at current iteration:
 Root      1 :     6.984959073672870   Change is   -0.374415276164482
 Root      2 :     7.467490315527207   Change is   -0.545787748653270
 Root      3 :     8.256933840764537   Change is   -0.019681174045369
 Root      4 :     8.605176765209610   Change is   -0.023051368612850
 Root      5 :     8.679174977749749   Change is   -0.019657251485893
 Root      6 :     9.646066002723867   Change is   -0.808891577387825
 Root      7 :     9.788900542903029   Change is   -0.008560222077314
 Root      8 :    10.018952772777330   Change is   -1.099277005931805
 Root      9 :    10.055416920067820   Change is   -0.008099659484895
 Root     10 :    10.186697450166640   Change is   -0.008860007360690
 Root     11 :    10.231611089601840   Change is    0.009337332406248
 Root     12 :    10.324210230276070   Change is   -0.015377403154216
 Root     13 :    10.329537211723250   Change is    0.014619844611088
 Root     14 :    10.604194741087330   Change is   -0.019428664417504
 Root     15 :    10.691688215934880   Change is   -0.015367190219884
 Root     16 :    11.332197526969590   Change is   -0.053951852782547
 Root     17 :    11.614940903245250   Change is   -0.022151576855619
 Root     18 :    11.678694269806690   Change is   -0.009099818459743
 Root     19 :    11.729880320565550   Change is   -0.140496814113471
 Root     20 :    11.748422665364230   Change is   -0.016653460725460
 Root     21 :    11.873998000229800   Change is   -0.046789584362601
 Root     22 :    12.005547770034980   Change is   -0.038063518389562
 Root     23 :    12.203582064212650   Change is   -0.044454874290704
 Root     24 :    12.315516619439930   Change is   -0.072072321343800
 Root     25 :    12.730950588564070   Change is   -0.740915636531555
 Root     26 :    13.087689004703470   Change is   -0.025832158611710
 Root     27 :    13.367382208290450   Change is   -0.022972757732300
 Root     28 :    13.558611947665540   Change is   -0.079763426366303
 Root     29 :    13.604460116124070   Change is   -0.134709145256444
 Root     30 :    13.614372398873600   Change is   -0.418272061085867
 Root     31 :    13.861983590750130   Change is   -0.045874409006716
 Root     32 :    13.886326069551240   Change is   -0.087978751248216
 Root     33 :    13.945273766140110   Change is   -0.058479589079385
 Root     34 :    13.971304522742780   Change is   -0.326353110500151
 Root     35 :    14.002044714467990   Change is   -0.204132534012689
 Root     36 :    14.220171121982730   Change is   -0.064688125681333
 Root     37 :    14.322397812816500   Change is   -0.067966742127726
 Root     38 :    14.395972325986860   Change is   -0.421062967830704
 Root     39 :    14.658772694025820   Change is   -0.009875618401419
 Root     40 :    14.739817888120460   Change is   -0.313995860785033
 Root     41 :    15.088408717426080   Change is   -0.045135215511059
 Root     42 :    15.142713243665120   Change is   -0.175349160952190
 Root     43 :    15.227477141529660   Change is   -0.022438865244398
 Root     44 :    15.266290049648040   Change is   -0.096172199807044
 Root     45 :    15.367272638431010   Change is   -0.289739804397334
 Root     46 :    15.397805738871770   Change is   -0.304926050661827
 Root     47 :    15.470215029284600   Change is   -0.162977428031985
 Root     48 :    15.669734195721440   Change is   -0.251924871988894
 Root     49 :    15.693766683263620   Change is   -0.047972423940858
 Root     50 :    15.745725577051180   Change is   -0.117149252233890
 Root     51 :    15.799898867992820   Change is   -0.652769481265153
 Root     52 :    16.050216753173700   Change is   -0.021526647794607
 Root     53 :    16.096538749902280   Change is   -0.264793183545777
 Root     54 :    16.252653057610960   Change is   -0.046066499974168
 Root     55 :    16.438124933913420   Change is   -0.023563198514125
 Root     56 :    16.528779935217420   Change is   -0.529978711061110
 Root     57 :    16.599549695622330   Change is   -0.120723089148715
 Root     58 :    16.773839249815040   Change is   -1.016995488086156
 Root     59 :    16.861935409368810   Change is   -0.077431648297625
 Root     60 :    16.917177776194970   Change is   -1.063958445184921
 Iteration     3 Dimension   135 NMult   120 NNew     15
 CISAX will form    15 AO SS matrices at one time.
 NMat=    15 NSing=    15 JSym2X= 0.
 Root      1 not converged, maximum delta is    0.002204928167288
 Root      2 not converged, maximum delta is    0.001633158179287
 Root      3 not converged, maximum delta is    0.000237320861729
 Root      4 not converged, maximum delta is    0.000168707049879
 Root      5 not converged, maximum delta is    0.000244041543044
 Root      6 not converged, maximum delta is    0.006327225382097
 Root      7 not converged, maximum delta is    0.006865268876514
 Root      8 not converged, maximum delta is    0.010986558566813
 Root      9 not converged, maximum delta is    0.010592306546735
 Root     10 not converged, maximum delta is    0.000165287266147
 Root     11 not converged, maximum delta is    0.001863429370991
 Root     12 not converged, maximum delta is    0.003047635144481
 Root     13 not converged, maximum delta is    0.003206870060029
 Root     14 not converged, maximum delta is    0.000277277952893
 Root     15 not converged, maximum delta is    0.000161107062095
 Excitation Energies [eV] at current iteration:
 Root      1 :     6.983112060552376   Change is   -0.001847013120494
 Root      2 :     7.466342017580345   Change is   -0.001148297946862
 Root      3 :     8.256900752062135   Change is   -0.000033088702402
 Root      4 :     8.605157104923396   Change is   -0.000019660286212
 Root      5 :     8.679156038154909   Change is   -0.000018939594841
 Root      6 :     9.642691123658143   Change is   -0.003374879065723
 Root      7 :     9.787777637408732   Change is   -0.001122905494297
 Root      8 :    10.016977100012320   Change is   -0.001975672765000
 Root      9 :    10.055078552116080   Change is   -0.000338367951737
 Root     10 :    10.186688895243770   Change is   -0.000008554922870
 Root     11 :    10.231318292661630   Change is   -0.000292796940214
 Root     12 :    10.324118408600360   Change is   -0.000091821675712
 Root     13 :    10.329476262342490   Change is   -0.000060949380766
 Root     14 :    10.604173052775860   Change is   -0.000021688311470
 Root     15 :    10.691668378684130   Change is   -0.000019837250754
 Iteration     4 Dimension   150 NMult   135 NNew     15
 CISAX will form    15 AO SS matrices at one time.
 NMat=    15 NSing=    15 JSym2X= 0.
 Root      1 not converged, maximum delta is    0.000057863605345
 Root      2 not converged, maximum delta is    0.000052325241419
 Root      3 not converged, maximum delta is    0.000006853828233
 Root      4 not converged, maximum delta is    0.000004061492112
 Root      5 not converged, maximum delta is    0.000004164348579
 Root      6 not converged, maximum delta is    0.000091369468307
 Root      7 not converged, maximum delta is    0.000056952399745
 Root      8 not converged, maximum delta is    0.000058064288680
 Root      9 not converged, maximum delta is    0.000019889446715
 Root     10 not converged, maximum delta is    0.000002614859010
 Root     11 not converged, maximum delta is    0.000023428457771
 Root     12 not converged, maximum delta is    0.000009482042196
 Root     13 not converged, maximum delta is    0.000013906256554
 Root     14 not converged, maximum delta is    0.000005571735228
 Root     15 not converged, maximum delta is    0.000008711384242
 Excitation Energies [eV] at current iteration:
 Root      1 :     6.983109606422835   Change is   -0.000002454129540
 Root      2 :     7.466340510568620   Change is   -0.000001507011725
 Root      3 :     8.256900706503837   Change is   -0.000000045558299
 Root      4 :     8.605157092411607   Change is   -0.000000012511789
 Root      5 :     8.679156022042497   Change is   -0.000000016112413
 Root      6 :     9.642685357855653   Change is   -0.000005765802490
 Root      7 :     9.787775911802193   Change is   -0.000001725606538
 Root      8 :    10.016974501474950   Change is   -0.000002598537379
 Root      9 :    10.055078147617220   Change is   -0.000000404498862
 Root     10 :    10.186688888434190   Change is   -0.000000006809582
 Root     11 :    10.231317906874410   Change is   -0.000000385787212
 Root     12 :    10.324118329094100   Change is   -0.000000079506257
 Root     13 :    10.329476167116870   Change is   -0.000000095225613
 Root     14 :    10.604173035272480   Change is   -0.000000017503374
 Root     15 :    10.691668349572510   Change is   -0.000000029111618
 Iteration     5 Dimension   165 NMult   150 NNew     15
 CISAX will form    15 AO SS matrices at one time.
 NMat=    15 NSing=    15 JSym2X= 0.
 Root      1 not converged, maximum delta is    0.000002511697167
 Root      2 not converged, maximum delta is    0.000001639374661
 Root      3 has converged.
 Root      4 has converged.
 Root      5 has converged.
 Root      6 not converged, maximum delta is    0.000003500294003
 Root      7 not converged, maximum delta is    0.000001896502964
 Root      8 not converged, maximum delta is    0.000002381542913
 Root      9 has converged.
 Root     10 has converged.
 Root     11 has converged.
 Root     12 has converged.
 Root     13 has converged.
 Root     14 has converged.
 Root     15 has converged.
 Excitation Energies [eV] at current iteration:
 Root      1 :     6.983109603610240   Change is   -0.000000002812595
 Root      2 :     7.466340509233851   Change is   -0.000000001334769
 Root      3 :     8.256900706459925   Change is   -0.000000000043911
 Root      4 :     8.605157092402017   Change is   -0.000000000009590
 Root      5 :     8.679156022030369   Change is   -0.000000000012127
 Root      6 :     9.642685352462872   Change is   -0.000000005392780
 Root      7 :     9.787775910218045   Change is   -0.000000001584148
 Root      8 :    10.016974498875400   Change is   -0.000000002599551
 Root      9 :    10.055078147210700   Change is   -0.000000000406520
 Root     10 :    10.186688888428040   Change is   -0.000000000006143
 Root     11 :    10.231317906466610   Change is   -0.000000000407805
 Root     12 :    10.324118329013720   Change is   -0.000000000080382
 Root     13 :    10.329476167013840   Change is   -0.000000000103034
 Root     14 :    10.604173035252570   Change is   -0.000000000019913
 Root     15 :    10.691668349531940   Change is   -0.000000000040573
 Iteration     6 Dimension   170 NMult   165 NNew      5
 CISAX will form     5 AO SS matrices at one time.
 NMat=     5 NSing=     5 JSym2X= 0.
 Root      1 has converged.
 Root      2 has converged.
 Root      3 has converged.
 Root      4 has converged.
 Root      5 has converged.
 Root      6 has converged.
 Root      7 has converged.
 Root      8 has converged.
 Root      9 has converged.
 Root     10 has converged.
 Root     11 has converged.
 Root     12 has converged.
 Root     13 has converged.
 Root     14 has converged.
 Root     15 has converged.
 Excitation Energies [eV] at current iteration:
 Root      1 :     6.983109603608979   Change is   -0.000000000001261
 Root      2 :     7.466340509233444   Change is   -0.000000000000408
 Root      3 :     8.256900706459888   Change is   -0.000000000000036
 Root      4 :     8.605157092402013   Change is   -0.000000000000005
 Root      5 :     8.679156022030352   Change is   -0.000000000000018
 Root      6 :     9.642685352459662   Change is   -0.000000000003210
 Root      7 :     9.787775910217178   Change is   -0.000000000000867
 Root      8 :    10.016974498873540   Change is   -0.000000000001856
 Root      9 :    10.055078147210420   Change is   -0.000000000000282
 Root     10 :    10.186688888428030   Change is   -0.000000000000009
 Root     11 :    10.231317906466350   Change is   -0.000000000000260
 Root     12 :    10.324118329013660   Change is   -0.000000000000057
 Root     13 :    10.329476167013770   Change is   -0.000000000000071
 Root     14 :    10.604173035252540   Change is   -0.000000000000026
 Root     15 :    10.691668349531890   Change is   -0.000000000000045
 Convergence achieved on expansion vectors.
 ***********************************************************************
 Excited states from <AA,BB:AA,BB> singles matrix:
 ***********************************************************************
 
 1PDM for each excited state written to RWF  633
 Ground to excited state transition densities written to RWF  633
 Ground to excited state transition electric dipole moments (Au):
       state          X           Y           Z        Dip. S.      Osc.
         1         0.9461      0.2497     -0.0338      0.9586      0.1640
         2        -0.5385     -0.1374      0.0115      0.3090      0.0565
         3         0.0244      0.0728     -0.0904      0.0141      0.0028
         4        -0.0057      0.0391     -0.1389      0.0208      0.0044
         5        -0.0138     -0.0506     -0.0112      0.0029      0.0006
         6         0.1374      1.2586     -0.0036      1.6029      0.3787
         7         0.2253     -0.6706      0.0261      0.5011      0.1202
         8         0.7148     -0.4301      0.0410      0.6976      0.1712
         9        -0.3161      0.1054     -0.0153      0.1113      0.0274
        10         0.0238     -0.0099     -0.0682      0.0053      0.0013
        11         0.2411     -0.2031     -0.0151      0.0996      0.0250
        12        -0.1283      0.0286      0.0849      0.0245      0.0062
        13        -0.0483      0.1358     -0.0088      0.0208      0.0053
        14        -0.0162     -0.0554     -0.1045      0.0143      0.0037
        15         0.0553      0.0312      0.0189      0.0044      0.0011
 Ground to excited state transition velocity dipole moments (Au):
       state          X           Y           Z        Dip. S.      Osc.
         1         0.0207     -0.0380     -0.0016      0.0019      0.0049
         2         0.0070     -0.0330      0.0010      0.0011      0.0028
         3        -0.0011      0.0048      0.0111      0.0001      0.0003
         4         0.0013     -0.0012      0.0795      0.0063      0.0133
         5         0.0009      0.0032     -0.0079      0.0001      0.0002
         6        -0.0445     -0.0543      0.0013      0.0049      0.0093
         7        -0.0033      0.0220      0.0028      0.0005      0.0009
         8        -0.0679      0.0050      0.0198      0.0050      0.0091
         9         0.0379      0.0096      0.0259      0.0022      0.0040
        10        -0.0025     -0.0024     -0.0281      0.0008      0.0014
        11        -0.0229      0.0080     -0.0384      0.0021      0.0037
        12         0.0176      0.0035     -0.0322      0.0014      0.0024
        13         0.0025     -0.0077     -0.0109      0.0002      0.0003
        14         0.0045      0.0068      0.0151      0.0003      0.0005
        15        -0.0157      0.0021     -0.0119      0.0004      0.0007
 Ground to excited state transition magnetic dipole moments (Au):
       state          X           Y           Z
         1         0.0127      0.0134      0.4419
         2        -0.0062      0.0662     -0.2181
         3        -0.1876      0.4891     -0.0284
         4        -1.2288     -0.8628     -0.0242
         5        -0.4696     -0.1934      0.0046
         6        -0.0256     -0.1169     -0.0749
         7        -0.2063     -0.1501     -0.0204
         8         0.1346      0.0340     -0.1310
         9        -0.1082     -0.0876      0.0585
        10        -0.0216     -0.0489     -0.0266
        11        -0.1594      0.0143     -0.0575
        12         0.2139     -0.0158     -0.0091
        13         0.1563     -0.1456     -0.0043
        14        -0.0224      0.3701     -0.0616
        15         0.3863      0.3524     -0.0372
 Ground to excited state transition velocity quadrupole moments (Au):
       state          XX          YY          ZZ          XY          XZ          YZ
         1        -0.1528      0.1053      0.0240      0.0760     -0.0041     -0.0005
         2         0.1414     -0.1508      0.0132     -0.0982      0.0088     -0.0025
         3        -0.0034      0.0102     -0.0059      0.0070      0.0398     -0.0480
         4         0.0184     -0.0027     -0.0045     -0.0004      0.1289     -0.1502
         5        -0.0052      0.0016     -0.0013     -0.0099     -0.1345     -0.0770
         6         0.2894     -0.2673     -0.0398      0.0097      0.0074     -0.0394
         7        -0.0912      0.0745      0.0254     -0.0983      0.0305     -0.0679
         8         0.1256     -0.1295      0.0277     -0.3207     -0.0604     -0.0106
         9        -0.0607      0.0428     -0.0047      0.1092     -0.0636     -0.1306
        10         0.0106      0.0080     -0.0064     -0.0048      0.0237      0.0169
        11        -0.0020     -0.0150      0.0098     -0.0986      0.0845     -0.0602
        12        -0.0234      0.0337     -0.0090      0.0490     -0.0331     -0.0596
        13         0.0107     -0.0227     -0.0023      0.0150      0.0073      0.0414
        14        -0.0210      0.0026     -0.0001     -0.0049     -0.0289     -0.0607
        15         0.0080     -0.0089     -0.0079      0.0191     -0.0566      0.0509
 <0|del|b> * <b|rxdel|0> + <0|del|b> * <b|delr+rdel|0>
 Rotatory Strengths (R) in cgs (10**-40 erg-esu-cm/Gauss)
       state          XX          YY          ZZ    R(velocity)    E-M Angle
         1        -2.0686     -0.4668     -0.1119     -0.8824       92.88
         2        -2.8446     -0.2312     -3.2194     -2.0984      108.51
         3         2.2453     -0.1586      3.1495      1.7454       69.43
         4        -0.8388     -4.0699     -0.5297     -1.8128       91.17
         5        -0.1638     -0.7015     -1.5814     -0.8156      104.71
         6         6.6483      2.7748      5.3190      4.9140       41.84
         7        -4.2362      1.1056     -2.1425     -1.7577      117.81
         8        -8.1257     -4.4848     -9.5938     -7.4014      148.68
         9         3.9317     -9.9055     -0.5823     -2.1854      118.96
        10         0.9999      0.5890      0.1474      0.5788       57.10
        11         5.1012      3.2546      2.8869      3.7476       39.27
        12        -1.1406      4.2739      4.3250      2.4861       59.62
        13         0.9895      0.6597      1.2616      0.9703       57.35
        14         1.5456     -1.1200      2.2590      0.8949       76.75
        15         0.9558     -5.5735     -4.1845     -2.9341      118.13
 1/2[<0|r|b>*<b|rxdel|0> + (<0|rxdel|b>*<b|r|0>)*]
 Rotatory Strengths (R) in cgs (10**-40 erg-esu-cm/Gauss)
       state          XX          YY          ZZ     R(length)
         1        -8.4839     -2.3649     10.5632     -0.0952
         2        -2.3533      6.4320      1.7736      1.9508
         3         3.2380    -25.1736     -1.8157     -7.9171
         4        -4.9333     23.8702     -2.3780      5.5197
         5        -4.5888     -6.9231      0.0367     -3.8251
         6         2.4897    104.0294     -0.1881     35.4437
         7        32.8580    -71.1972      0.3760    -12.6544
         8       -68.0310     10.3288      3.8014    -17.9669
         9       -24.1860      6.5323      0.6339     -5.6733
        10         0.3631     -0.3425     -1.2815     -0.4203
        11        27.1765      2.0596     -0.6127      9.5411
        12        19.4010      0.3186      0.5486      6.7561
        13         5.3361     13.9831     -0.0271      6.4307
        14        -0.2568     14.5018     -4.5555      3.2298
        15       -15.0968     -7.7867      0.4962     -7.4624
  1/2[<0|del|b>*<b|r|0> + (<0|r|b>*<b|del|0>)*] (Au)
       state          X           Y           Z        Dip. S.   Osc.(frdel)
         1         0.0196     -0.0095      0.0001     -0.0101     -0.0068
         2        -0.0038      0.0045      0.0000     -0.0008     -0.0005
         3         0.0000      0.0004     -0.0010      0.0007      0.0005
         4         0.0000      0.0000     -0.0110      0.0111      0.0074
         5         0.0000     -0.0002      0.0001      0.0001      0.0001
         6        -0.0061     -0.0683      0.0000      0.0745      0.0496
         7        -0.0007     -0.0148      0.0001      0.0155      0.0103
         8        -0.0485     -0.0021      0.0008      0.0499      0.0332
         9        -0.0120      0.0010     -0.0004      0.0113      0.0076
        10        -0.0001      0.0000      0.0019     -0.0019     -0.0013
        11        -0.0055     -0.0016      0.0006      0.0066      0.0044
        12        -0.0023      0.0001     -0.0027      0.0049      0.0033
        13        -0.0001     -0.0010      0.0001      0.0011      0.0007
        14        -0.0001     -0.0004     -0.0016      0.0020      0.0014
        15        -0.0009      0.0001     -0.0002      0.0010      0.0007

 Excitation energies and oscillator strengths:
 
 Excited State   1:      Singlet-A      6.9831 eV  177.55 nm  f=0.1640  <S**2>=0.000
      17 -> 19         0.21210
      18 -> 19         0.61033
      18 -> 20         0.22694
 This state for optimization and/or second-order correction.
 Total Energy, E(CIS) =  -228.483228883    
 Copying the excited state density for this state as the 1-particle RhoCI density.
 
 Excited State   2:      Singlet-A      7.4663 eV  166.06 nm  f=0.0565  <S**2>=0.000
      17 -> 19         0.45289
      18 -> 19        -0.30249
      18 -> 20         0.43173
 
 Excited State   3:      Singlet-A      8.2569 eV  150.16 nm  f=0.0028  <S**2>=0.000
      18 -> 21         0.69110
      18 -> 22        -0.10414
 
 Excited State   4:      Singlet-A      8.6052 eV  144.08 nm  f=0.0044  <S**2>=0.000
      16 -> 19         0.67175
      18 -> 22        -0.19968
 
 Excited State   5:      Singlet-A      8.6792 eV  142.85 nm  f=0.0006  <S**2>=0.000
      16 -> 19         0.20434
      18 -> 21         0.10587
      18 -> 22         0.66075
 
 Excited State   6:      Singlet-A      9.6427 eV  128.58 nm  f=0.3787  <S**2>=0.000
      17 -> 19        -0.34146
      17 -> 20         0.35219
      17 -> 21         0.21306
      18 -> 20         0.39314
 
 Excited State   7:      Singlet-A      9.7878 eV  126.67 nm  f=0.1202  <S**2>=0.000
      17 -> 19         0.20925
      17 -> 20         0.12178
      17 -> 21         0.59846
      18 -> 20        -0.20899
 
 Excited State   8:      Singlet-A     10.0170 eV  123.77 nm  f=0.1712  <S**2>=0.000
      14 -> 19         0.11125
      15 -> 19         0.13794
      17 -> 19         0.18300
      17 -> 20         0.50573
      17 -> 21        -0.20539
      18 -> 20        -0.14048
      18 -> 23         0.20177
      18 -> 24        -0.17363
 
 Excited State   9:      Singlet-A     10.0551 eV  123.31 nm  f=0.0274  <S**2>=0.000
      15 -> 19         0.26234
      17 -> 20        -0.20368
      17 -> 21         0.17499
      18 -> 23         0.56716
      18 -> 24        -0.10732
 
 Excited State  10:      Singlet-A     10.1867 eV  121.71 nm  f=0.0013  <S**2>=0.000
      14 -> 19         0.17249
      15 -> 19         0.44162
      16 -> 20        -0.23066
      17 -> 22         0.25551
      18 -> 24         0.37650
 
 Excited State  11:      Singlet-A     10.2313 eV  121.18 nm  f=0.0250  <S**2>=0.000
      14 -> 19        -0.21520
      15 -> 19        -0.28303
      16 -> 20         0.13743
      17 -> 20         0.13471
      17 -> 22         0.41106
      18 -> 23         0.26616
      18 -> 24         0.27843
 
 Excited State  12:      Singlet-A     10.3241 eV  120.09 nm  f=0.0062  <S**2>=0.000
      14 -> 19         0.53733
      15 -> 19        -0.33232
      16 -> 20        -0.16168
      18 -> 23         0.19917
      18 -> 24         0.12751
 
 Excited State  13:      Singlet-A     10.3295 eV  120.03 nm  f=0.0053  <S**2>=0.000
      14 -> 19         0.14508
      16 -> 20        -0.11160
      17 -> 21         0.12605
      17 -> 22         0.47869
      18 -> 24        -0.45818
 
 Excited State  14:      Singlet-A     10.6042 eV  116.92 nm  f=0.0037  <S**2>=0.000
      16 -> 20         0.11492
      18 -> 25         0.68205
 
 Excited State  15:      Singlet-A     10.6917 eV  115.96 nm  f=0.0011  <S**2>=0.000
      14 -> 19         0.27608
      15 -> 19         0.14210
      16 -> 20         0.60194
      18 -> 25        -0.12971
 SavETr:  write IOETrn=   770 NScale= 10 NData=  16 NLR=1 NState=   15 LETran=     280.
 The selected state is a singlet
 CISAX will form     1 AO SS matrices at one time.
 NMat=     1 NSing=     1 JSym2X= 0.
 CISAX will form     1 AO SS matrices at one time.
 NMat=     1 NSing=     1 JSym2X= 0.
 Leave Link  914 at Tue Dec 15 16:15:16 2015, MaxMem=    33554432 cpu:        33.4
 (Enter /home/Applications/g09/g09/l1002.exe)
 Minotr:  Closed shell wavefunction.
          Computing CIS/TD-HF/TD-KS derivatives.
          Using Z-Vector for PSCF gradient.
          Skipping F1 and S1 gradient terms here.
          IDoAtm=111111111
          Frozen-core window.
          Direct CPHF calculation.
          Differentiating once with respect to electric field.
                with respect to dipole field.
          Differentiating once with respect to nuclear coordinates.
          Requested convergence is 1.0D-10 RMS, and 1.0D-09 maximum.
          NewPWx=F KeepS1=T KeepF1=T KeepIn=T MapXYZ=F SortEE=F KeepMc=T.
          MDV=      33554290 using IRadAn=       0.
 Using stored XC quadrature information.
 Keep R1 ints in memory in canonical form, NReq=1898913.
 FoFCou: FMM=F IPFlag=           0 FMFlag=           0 FMFlg1=           0
         NFxFlg=           0 DoJE=F BraDBF=F KetDBF=F FulRan=T
         wScrn=  0.000000 ICntrl=     600 IOpCl=  0 I1Cent=           0 NGrid=           0
         NMat0=    1 NMatS0=   1431 NMatT0=    0 NMatD0=    1 NMtDS0=    0 NMtDT0=    0
 Symmetry not used in FoFCou.
          Solving linear equations separately, MaxMat=       0.
          There are     1 degrees of freedom in the 1st order CPHF.  IDoFFX=0 NUNeed=     1.
 LinEq1:  Iter=  0 NonCon=     1 RMS=4.26D-02 Max=5.33D-01 NDo=     1
 AX will form     1 AO Fock derivatives at one time.
 LinEq1:  Iter=  1 NonCon=     1 RMS=1.98D-02 Max=3.65D-01 NDo=     1
 LinEq1:  Iter=  2 NonCon=     1 RMS=1.48D-02 Max=2.17D-01 NDo=     1
 LinEq1:  Iter=  3 NonCon=     1 RMS=6.08D-03 Max=8.34D-02 NDo=     1
 LinEq1:  Iter=  4 NonCon=     1 RMS=4.80D-03 Max=5.92D-02 NDo=     1
 LinEq1:  Iter=  5 NonCon=     1 RMS=1.01D-03 Max=9.63D-03 NDo=     1
 LinEq1:  Iter=  6 NonCon=     1 RMS=2.78D-04 Max=1.95D-03 NDo=     1
 LinEq1:  Iter=  7 NonCon=     1 RMS=1.46D-04 Max=2.13D-03 NDo=     1
 LinEq1:  Iter=  8 NonCon=     1 RMS=7.69D-05 Max=5.50D-04 NDo=     1
 LinEq1:  Iter=  9 NonCon=     1 RMS=1.43D-05 Max=9.23D-05 NDo=     1
 LinEq1:  Iter= 10 NonCon=     1 RMS=1.49D-06 Max=1.20D-05 NDo=     1
 LinEq1:  Iter= 11 NonCon=     1 RMS=2.38D-07 Max=1.44D-06 NDo=     1
 LinEq1:  Iter= 12 NonCon=     1 RMS=3.21D-08 Max=2.24D-07 NDo=     1
 LinEq1:  Iter= 13 NonCon=     1 RMS=4.13D-09 Max=2.48D-08 NDo=     1
 LinEq1:  Iter= 14 NonCon=     1 RMS=4.44D-10 Max=2.86D-09 NDo=     1
 LinEq1:  Iter= 15 NonCon=     0 RMS=4.50D-11 Max=2.36D-10 NDo=     1
 Linear equations converged to 1.000D-10 1.000D-09 after    15 iterations.
 End of Minotr F.D. properties file   721 does not exist.
 End of Minotr F.D. properties file   722 does not exist.
 End of Minotr F.D. properties file   788 does not exist.
 Leave Link 1002 at Tue Dec 15 16:15:26 2015, MaxMem=    33554432 cpu:         9.9
 (Enter /home/Applications/g09/g09/l601.exe)
 Copying SCF densities to generalized density rwf, IOpCl= 0 IROHF=0.

 **********************************************************************

            Population analysis using the SCF density.

 **********************************************************************

 Orbital symmetries:
       Occupied  (A) (A) (A) (A) (A) (A) (A) (A) (A) (A) (A) (A)
                 (A) (A) (A) (A) (A) (A)
       Virtual   (A) (A) (A) (A) (A) (A) (A) (A) (A) (A) (A) (A)
                 (A) (A) (A) (A) (A) (A) (A) (A) (A) (A) (A) (A)
                 (A) (A) (A) (A) (A) (A) (A) (A) (A) (A) (A)
 The electronic state is 1-A.
 Alpha  occ. eigenvalues --  -19.11224 -10.17928 -10.16771 -10.12726 -10.11901
 Alpha  occ. eigenvalues --   -1.12993  -0.81229  -0.74479  -0.59982  -0.57609
 Alpha  occ. eigenvalues --   -0.54175  -0.45172  -0.44910  -0.41395  -0.41040
 Alpha  occ. eigenvalues --   -0.35608  -0.28461  -0.22628
 Alpha virt. eigenvalues --    0.01979   0.08589   0.12756   0.13538   0.18427
 Alpha virt. eigenvalues --    0.19227   0.21038   0.24995   0.34973   0.42313
 Alpha virt. eigenvalues --    0.48356   0.68102   0.69908   0.72189   0.75238
 Alpha virt. eigenvalues --    0.76890   0.79003   0.80547   0.81331   0.83959
 Alpha virt. eigenvalues --    0.92861   0.98950   1.00249   1.04248   1.18394
 Alpha virt. eigenvalues --    1.23174   1.33385   1.37653   1.50157   1.56371
 Alpha virt. eigenvalues --    1.62956   1.72943   1.97333   2.12575   3.18401
     Molecular Orbital Coefficients:
                           1         2         3         4         5
                           O         O         O         O         O
     Eigenvalues --   -19.11224 -10.17928 -10.16771 -10.12726 -10.11901
   1 1   C  1S          0.00019  -0.00922  -0.00085  -0.07461   0.98320
   2        2S          0.00082  -0.00454  -0.00027  -0.01257   0.10953
   3        2PX        -0.00148  -0.00213  -0.00007   0.00121  -0.00039
   4        2PY         0.00027   0.00145   0.00061   0.00128  -0.00194
   5        2PZ         0.00000   0.00002  -0.00003   0.00006  -0.00003
   6        3S         -0.00603   0.03132  -0.01571   0.04720  -0.10050
   7        3PX         0.00346   0.01172  -0.00128  -0.01703   0.00642
   8        3PY         0.00875  -0.01288   0.01023  -0.02123   0.03050
   9        3PZ         0.00007  -0.00004   0.00024  -0.00047   0.00059
  10 2   C  1S         -0.00027   0.98523   0.01845  -0.00010   0.00898
  11        2S         -0.00018   0.10632  -0.00125  -0.00026  -0.00317
  12        2PX        -0.00114  -0.00237   0.00127   0.00039   0.00136
  13        2PY        -0.00257  -0.00173  -0.00008  -0.00086  -0.00139
  14        2PZ         0.00002   0.00005  -0.00001   0.00005   0.00000
  15        3S          0.01977  -0.06931   0.01482  -0.01100   0.03768
  16        3PX        -0.01496   0.01264  -0.01873   0.00561  -0.02150
  17        3PY        -0.00894  -0.01115   0.00212   0.00005   0.00994
  18        3PZ        -0.00025  -0.00034   0.00003  -0.00019  -0.00010
  19 3   O  1S          0.98279   0.00035   0.00014   0.00007   0.00008
  20        2S          0.10793   0.00177   0.00151   0.00029   0.00037
  21        2PX        -0.00124  -0.00006  -0.00118   0.00000   0.00005
  22        2PY         0.00412   0.00030   0.00048  -0.00008  -0.00009
  23        2PZ         0.00008   0.00000   0.00004   0.00003  -0.00002
  24        3S         -0.06145  -0.00106   0.00047  -0.00285  -0.00465
  25        3PX         0.00340  -0.00018   0.00067   0.00288  -0.00101
  26        3PY        -0.01381  -0.00454  -0.00279  -0.00037  -0.00263
  27        3PZ        -0.00023  -0.00004  -0.00013  -0.00013   0.00006
  28 4   C  1S         -0.00055  -0.01954   0.98523   0.01250   0.00158
  29        2S         -0.00114  -0.00533   0.10686  -0.00346  -0.00091
  30        2PX         0.00206  -0.00086   0.00186  -0.00023   0.00033
  31        2PY        -0.00071  -0.00110   0.00067  -0.00248  -0.00123
  32        2PZ        -0.00003   0.00000  -0.00015   0.00009  -0.00002
  33        3S          0.01516   0.01653  -0.07796   0.04183  -0.00476
  34        3PX         0.01227   0.01027  -0.00367   0.00840  -0.00269
  35        3PY         0.00692   0.01863  -0.02030   0.02676  -0.00044
  36        3PZ        -0.00052  -0.00042   0.00088  -0.00082   0.00027
  37 5   C  1S          0.00015  -0.00037  -0.01299   0.98320   0.07411
  38        2S          0.00063  -0.00015  -0.00614   0.11051   0.00397
  39        2PX         0.00068  -0.00031   0.00003   0.00191  -0.00144
  40        2PY         0.00116   0.00051   0.00307  -0.00113  -0.00034
  41        2PZ        -0.00003   0.00000  -0.00007   0.00015   0.00001
  42        3S         -0.00465  -0.01651   0.04011  -0.11200   0.03181
  43        3PX        -0.00612  -0.00464   0.00614  -0.03093   0.02212
  44        3PY         0.00503   0.00967  -0.02024   0.01800   0.00152
  45        3PZ         0.00005  -0.00041   0.00055  -0.00134   0.00021
  46 6   H  1S         -0.00087  -0.00031  -0.00098  -0.00343  -0.00051
  47        2S         -0.00261  -0.00101   0.00252   0.00382   0.00501
  48 7   H  1S          0.00028   0.00161  -0.00469  -0.00016  -0.00011
  49        2S          0.00416   0.00859   0.00922   0.00704   0.00052
  50 8   H  1S          0.00024  -0.00294   0.00124  -0.00011  -0.00013
  51        2S          0.00383   0.00884   0.00708  -0.00031   0.00488
  52 9   H  1S         -0.00101  -0.00127  -0.00045   0.00021  -0.00365
  53        2S         -0.00297   0.00091  -0.00138   0.00486   0.00471
                           6         7         8         9        10
                           O         O         O         O         O
     Eigenvalues --    -1.12993  -0.81229  -0.74479  -0.59982  -0.57609
   1 1   C  1S         -0.02818  -0.12971   0.10169   0.09932   0.03808
   2        2S          0.02666   0.13890  -0.10853  -0.10058  -0.03870
   3        2PX         0.00534  -0.05402  -0.06165  -0.10935   0.16542
   4        2PY        -0.03486  -0.07068   0.04634  -0.01698  -0.02624
   5        2PZ        -0.00021  -0.00066   0.00002  -0.00217   0.00237
   6        3S          0.05477   0.25766  -0.21661  -0.34311  -0.11693
   7        3PX        -0.01984   0.00055   0.02183  -0.03676   0.05844
   8        3PY        -0.04905  -0.03851   0.01312   0.03245   0.00101
   9        3PZ        -0.00093  -0.00056   0.00025  -0.00121   0.00092
  10 2   C  1S         -0.08889  -0.01776   0.14314  -0.01228  -0.11180
  11        2S          0.09774   0.02395  -0.15718   0.01242   0.12426
  12        2PX        -0.07276  -0.04901   0.03404   0.05408   0.12380
  13        2PY        -0.08233   0.11502  -0.00978  -0.21272   0.05107
  14        2PZ        -0.00057   0.00072  -0.00053  -0.00251   0.00459
  15        3S          0.06301   0.00600  -0.33727   0.06908   0.34939
  16        3PX         0.04946  -0.01772   0.03505   0.00873   0.07083
  17        3PY         0.01832   0.01605  -0.03219  -0.06491   0.03891
  18        3PZ         0.00113   0.00023  -0.00110  -0.00074   0.00353
  19 3   O  1S         -0.21031   0.08335  -0.03029   0.00483   0.05071
  20        2S          0.19146  -0.08081   0.02699  -0.00196  -0.05016
  21        2PX        -0.01976  -0.05710  -0.17885   0.23584   0.05024
  22        2PY         0.11580  -0.00321  -0.09537   0.10046   0.00601
  23        2PZ         0.00213  -0.00037   0.00131  -0.00360   0.00292
  24        3S          0.67113  -0.30142   0.11262  -0.01977  -0.21846
  25        3PX        -0.03470  -0.04195  -0.15111   0.20799   0.04709
  26        3PY         0.14112  -0.01372  -0.06973   0.08350  -0.00052
  27        3PZ         0.00260  -0.00023   0.00163  -0.00337   0.00250
  28 4   C  1S         -0.06130  -0.08809  -0.13970   0.01807  -0.10511
  29        2S          0.06969   0.09977   0.14768  -0.01325   0.11614
  30        2PX         0.06995  -0.02230   0.02286  -0.11485  -0.15665
  31        2PY         0.00958   0.11532  -0.01864   0.17836  -0.07107
  32        2PZ        -0.00198  -0.00264  -0.00348  -0.00150   0.00238
  33        3S          0.05356   0.15026   0.36221  -0.11373   0.32315
  34        3PX        -0.02088   0.00009   0.01420  -0.06135  -0.08651
  35        3PY        -0.02783   0.04157   0.03283   0.03471  -0.02934
  36        3PZ         0.00078  -0.00173  -0.00260   0.00044   0.00120
  37 5   C  1S         -0.02685  -0.15996  -0.03354  -0.11191   0.04442
  38        2S          0.02647   0.17281   0.03697   0.11404  -0.04448
  39        2PX         0.02217   0.07980  -0.04800  -0.10348  -0.09132
  40        2PY        -0.02421  -0.04581  -0.09303  -0.04838  -0.14088
  41        2PZ         0.00071   0.00515   0.00152   0.00351   0.00065
  42        3S          0.03903   0.31774   0.05908   0.39386  -0.14894
  43        3PX         0.02718   0.03761   0.00222  -0.01206  -0.04918
  44        3PY        -0.02680  -0.01700   0.01492  -0.04206  -0.04531
  45        3PZ         0.00043   0.00327   0.00011   0.00404  -0.00035
  46 6   H  1S          0.00667   0.06041   0.01937   0.11631  -0.03013
  47        2S          0.01196   0.01223   0.00384   0.06527  -0.02025
  48 7   H  1S          0.01256   0.03438   0.09687  -0.04879   0.17649
  49        2S         -0.02125   0.00858   0.03589  -0.03923   0.08316
  50 8   H  1S          0.01368  -0.00124  -0.07548   0.03258   0.15055
  51        2S         -0.02488   0.00099  -0.03022   0.02197   0.07795
  52 9   H  1S          0.00797   0.04667  -0.05266  -0.09680  -0.02091
  53        2S          0.01619   0.01015  -0.01665  -0.05719  -0.01294
                          11        12        13        14        15
                           O         O         O         O         O
     Eigenvalues --    -0.54175  -0.45172  -0.44910  -0.41395  -0.41040
   1 1   C  1S         -0.05557   0.03866  -0.00592  -0.01307  -0.02289
   2        2S          0.05259  -0.04354   0.00588   0.00827   0.02394
   3        2PX        -0.04587   0.02475  -0.01142   0.11922  -0.27544
   4        2PY         0.20478  -0.01364   0.00303   0.28396  -0.00575
   5        2PZ         0.00442   0.02006   0.11425   0.01496  -0.00512
   6        3S          0.23402  -0.10985   0.02633   0.05918   0.10135
   7        3PX         0.00365   0.03121  -0.01383   0.09931  -0.12377
   8        3PY         0.11262  -0.02234  -0.00347   0.20005  -0.01902
   9        3PZ         0.00267   0.01345   0.08186   0.01144  -0.00314
  10 2   C  1S          0.02305  -0.02218   0.00504   0.04048   0.02583
  11        2S         -0.02854   0.01668  -0.00389  -0.04641  -0.03202
  12        2PX         0.14690   0.25218  -0.04531   0.03823   0.18391
  13        2PY        -0.02569   0.13310  -0.03245  -0.08049  -0.11455
  14        2PZ         0.00238   0.04319   0.20722   0.00088  -0.00108
  15        3S         -0.05199   0.09683  -0.02531  -0.14282  -0.09830
  16        3PX         0.12042   0.17084  -0.02555   0.02768   0.15142
  17        3PY        -0.05529   0.04364  -0.01144  -0.04193  -0.12032
  18        3PZ         0.00165   0.03750   0.18815  -0.00018  -0.00111
  19 3   O  1S         -0.05675  -0.01702   0.00547  -0.01200  -0.00157
  20        2S          0.05591   0.01395  -0.00479   0.01054   0.00564
  21        2PX         0.07093  -0.19233   0.03483   0.06504   0.11582
  22        2PY        -0.16910  -0.17456   0.03725   0.04158  -0.12251
  23        2PZ         0.00165   0.06710   0.37358  -0.00660  -0.00304
  24        3S          0.22118   0.06347  -0.02096   0.06268  -0.02247
  25        3PX         0.06590  -0.18131   0.03337   0.06972   0.11877
  26        3PY        -0.15351  -0.16181   0.03526   0.04416  -0.12459
  27        3PZ         0.00126   0.06687   0.37526  -0.00665  -0.00362
  28 4   C  1S          0.01596   0.02004  -0.00484  -0.03582  -0.02169
  29        2S         -0.02051  -0.02276   0.00512   0.04399   0.02436
  30        2PX        -0.08171   0.20276  -0.02677  -0.01027  -0.03363
  31        2PY        -0.15879   0.15746  -0.02298   0.26089   0.00663
  32        2PZ         0.00551   0.01949   0.16740  -0.00846   0.00109
  33        3S         -0.02263  -0.04945   0.01705   0.12644   0.05565
  34        3PX        -0.04232   0.14862  -0.01475  -0.00166  -0.01063
  35        3PY        -0.13710   0.08691  -0.00358   0.17053  -0.03513
  36        3PZ         0.00331   0.02088   0.15961  -0.00586   0.00078
  37 5   C  1S         -0.04027  -0.03606   0.00745   0.01837  -0.00884
  38        2S          0.03711   0.03991  -0.00682  -0.01657   0.01422
  39        2PX        -0.11588  -0.03438   0.00864  -0.03094   0.34512
  40        2PY         0.19096  -0.04685   0.01135  -0.27659  -0.02361
  41        2PZ         0.00050   0.01891   0.11257   0.00682   0.00187
  42        3S          0.18542   0.12538  -0.03762  -0.07899   0.04276
  43        3PX        -0.09131  -0.03624  -0.00328   0.00360   0.24152
  44        3PY         0.08826  -0.00824   0.00772  -0.13970  -0.03020
  45        3PZ         0.00195   0.01419   0.08170   0.00361   0.00189
  46 6   H  1S          0.13114   0.04419  -0.00838  -0.09805  -0.21084
  47        2S          0.07145   0.02040  -0.00862  -0.08717  -0.19027
  48 7   H  1S          0.07567  -0.19241   0.03133  -0.09650   0.04890
  49        2S          0.02894  -0.13950   0.02702  -0.08608   0.03283
  50 8   H  1S          0.04970   0.18457  -0.03123  -0.02836   0.09915
  51        2S          0.01867   0.14812  -0.02786  -0.02204   0.08796
  52 9   H  1S          0.13833  -0.04614   0.00913   0.22647  -0.02633
  53        2S          0.07628  -0.02856   0.00790   0.19438  -0.02726
                          16        17        18        19        20
                           O         O         O         V         V
     Eigenvalues --    -0.35608  -0.28461  -0.22628   0.01979   0.08589
   1 1   C  1S          0.02795  -0.00101   0.00060   0.00098   0.00708
   2        2S         -0.02797   0.00050  -0.00091  -0.00066  -0.00907
   3        2PX        -0.13512   0.00740   0.00675   0.00740   0.00569
   4        2PY         0.17280   0.00880   0.01082   0.00504  -0.01343
   5        2PZ        -0.00286  -0.23764  -0.25807  -0.14882   0.34109
   6        3S         -0.16840   0.01099  -0.00449  -0.01820  -0.02631
   7        3PX        -0.12888   0.00356   0.00883   0.01838   0.00847
   8        3PY         0.10775   0.00563   0.01161   0.01364  -0.06362
   9        3PZ        -0.00243  -0.24274  -0.28739  -0.24321   0.69358
  10 2   C  1S         -0.01298   0.00095  -0.00033   0.00371  -0.00375
  11        2S          0.01735  -0.00107  -0.00014  -0.00461   0.00284
  12        2PX         0.11792  -0.00190   0.00715  -0.00451   0.00671
  13        2PY        -0.19107  -0.00231   0.00373   0.00048  -0.00725
  14        2PZ        -0.00395   0.02305  -0.31172   0.32724  -0.22765
  15        3S          0.04187  -0.00497   0.00256  -0.02153   0.01148
  16        3PX         0.06142   0.00117   0.00707  -0.02320   0.04129
  17        3PY        -0.00223  -0.00224   0.00391  -0.00211  -0.02940
  18        3PZ        -0.00388   0.05426  -0.32196   0.49290  -0.42563
  19 3   O  1S          0.06531   0.00018  -0.00006  -0.00170   0.00952
  20        2S         -0.06618  -0.00009  -0.00053   0.00138  -0.00671
  21        2PX        -0.19782   0.00845  -0.00093   0.00009   0.01813
  22        2PY         0.35529  -0.00277  -0.00048   0.00231  -0.01111
  23        2PZ        -0.00393   0.29470   0.08833  -0.29133   0.02632
  24        3S         -0.24161  -0.00105   0.00279   0.01015  -0.07531
  25        3PX        -0.21428   0.01006  -0.00162  -0.00153   0.03268
  26        3PY         0.38670  -0.00270   0.00055   0.00123  -0.01633
  27        3PZ        -0.00362   0.33047   0.10980  -0.40707   0.04405
  28 4   C  1S         -0.02341   0.00031  -0.00372  -0.00168  -0.00504
  29        2S          0.02696  -0.00011   0.00476  -0.00020   0.00205
  30        2PX         0.13755  -0.00332   0.00863   0.00110   0.03396
  31        2PY        -0.10591   0.00059   0.01236   0.00763  -0.01163
  32        2PZ        -0.00580  -0.15692   0.31633   0.31681   0.19804
  33        3S          0.11222   0.00058   0.01365   0.02401   0.03882
  34        3PX         0.05045  -0.00088   0.00591  -0.00392   0.07340
  35        3PY         0.03903  -0.00040   0.00652   0.02004  -0.01860
  36        3PZ        -0.00685  -0.11486   0.35752   0.48270   0.41564
  37 5   C  1S          0.01415  -0.00340   0.00128  -0.00119  -0.00466
  38        2S         -0.01386   0.00440  -0.00195  -0.00022   0.00275
  39        2PX         0.01231   0.00068  -0.00247  -0.00090   0.00456
  40        2PY         0.13091  -0.01077  -0.00168   0.00228  -0.00338
  41        2PZ        -0.00806  -0.32519   0.10812  -0.18778  -0.33794
  42        3S         -0.12270   0.00958   0.00162   0.01268   0.03690
  43        3PX         0.05042  -0.00532   0.00168   0.00930  -0.00283
  44        3PY         0.12191  -0.00825  -0.00266   0.01277  -0.00613
  45        3PZ        -0.00930  -0.32753   0.11220  -0.32498  -0.69202
  46 6   H  1S          0.02573  -0.00420   0.00060  -0.00268   0.00231
  47        2S          0.04828  -0.00647   0.00173  -0.00460   0.00948
  48 7   H  1S          0.03217  -0.00123  -0.00494  -0.00157  -0.00144
  49        2S          0.03779  -0.00160  -0.00919  -0.00394   0.00107
  50 8   H  1S          0.11862  -0.00362  -0.00124   0.00486  -0.00867
  51        2S          0.12402  -0.00546  -0.00134   0.02386  -0.04708
  52 9   H  1S          0.06977   0.00353   0.00138  -0.00050   0.01210
  53        2S          0.09751   0.00524   0.00236  -0.00124   0.06783
                          21        22        23        24        25
                           V         V         V         V         V
     Eigenvalues --     0.12756   0.13538   0.18427   0.19227   0.21038
   1 1   C  1S          0.04473  -0.00653   0.08977   0.07768  -0.03210
   2        2S         -0.02935   0.02013  -0.07467  -0.05389   0.01929
   3        2PX         0.05104  -0.04180  -0.02135   0.00359   0.21527
   4        2PY        -0.13553  -0.11924  -0.05257  -0.17898   0.10895
   5        2PZ        -0.02999   0.01283  -0.00794  -0.01558   0.00010
   6        3S         -0.51408  -0.14680  -0.76446  -0.89685   0.51681
   7        3PX         0.16468  -0.14790  -0.17842  -0.02929   0.95911
   8        3PY        -0.39391  -0.20976  -0.55381  -0.79512   0.37335
   9        3PZ        -0.06609   0.02635  -0.03943  -0.05093   0.01030
  10 2   C  1S          0.00618   0.10087  -0.04604  -0.00796   0.08481
  11        2S         -0.00270  -0.07103   0.04353   0.02000  -0.04915
  12        2PX        -0.04324  -0.21734   0.12590  -0.15547  -0.06888
  13        2PY        -0.09463   0.04141   0.06017  -0.02260  -0.02795
  14        2PZ         0.01649  -0.01940   0.00801   0.00247  -0.00095
  15        3S         -0.19333  -1.06710   0.43872  -0.24489  -1.13738
  16        3PX         0.03525  -0.73517   0.59784  -0.24175  -0.19557
  17        3PY        -0.32037   0.12509   0.31452  -0.04855  -0.26261
  18        3PZ         0.03350  -0.04428   0.02448   0.01051  -0.01191
  19 3   O  1S          0.07541  -0.06144  -0.02803   0.02884   0.03193
  20        2S         -0.05272   0.04626   0.01638  -0.01948  -0.00980
  21        2PX         0.16759  -0.09577  -0.07417   0.03690   0.17562
  22        2PY        -0.09553   0.02767   0.00696  -0.03500   0.07486
  23        2PZ        -0.00712   0.00992  -0.00064  -0.00100  -0.00230
  24        3S         -0.61773   0.47984   0.26997  -0.24626  -0.35544
  25        3PX         0.27469  -0.15761  -0.07378   0.10827   0.37017
  26        3PY        -0.17213   0.02436   0.04075  -0.04187   0.08128
  27        3PZ        -0.01308   0.01775  -0.00218  -0.00297  -0.00424
  28 4   C  1S         -0.03196   0.08778   0.10243  -0.04415   0.00349
  29        2S          0.03352  -0.06865  -0.08314   0.01919   0.01002
  30        2PX         0.26627  -0.15376   0.05558  -0.05691   0.26919
  31        2PY        -0.02830   0.08266   0.14086  -0.18320  -0.01542
  32        2PZ        -0.01724   0.01107   0.00016  -0.00373  -0.00901
  33        3S         -0.00552  -0.82996  -1.10046   0.81470  -0.37290
  34        3PX         0.49302  -0.25550   0.54197  -0.11478   0.85050
  35        3PY        -0.12825   0.28743   0.72092  -0.58039  -0.01333
  36        3PZ        -0.03494   0.02171  -0.01918  -0.02042  -0.02598
  37 5   C  1S          0.04399   0.02113  -0.07675  -0.07142  -0.08641
  38        2S         -0.03301  -0.00401   0.08370   0.04197   0.03487
  39        2PX         0.15620   0.02079   0.01889  -0.13419  -0.10568
  40        2PY        -0.09699  -0.04991   0.01243   0.12155   0.04051
  41        2PZ         0.02229  -0.01372   0.00814   0.01472   0.01288
  42        3S         -0.45399  -0.36055   0.36768   0.95962   1.44796
  43        3PX         0.56561  -0.03207  -0.41050  -0.53726  -0.17356
  44        3PY        -0.26371  -0.16800   0.28449   0.43338   0.23278
  45        3PZ         0.05223  -0.03318   0.01740   0.04891   0.03923
  46 6   H  1S          0.12401  -0.00017  -0.03418  -0.02256   0.04096
  47        2S          1.13208   0.22103  -0.68578  -1.17929  -0.84383
  48 7   H  1S          0.01832   0.04432   0.06603  -0.01996   0.03315
  49        2S          0.26492   0.58867   1.63131  -1.08521   0.75339
  50 8   H  1S         -0.01655   0.12218  -0.03324  -0.00950  -0.01110
  51        2S          0.05135   1.47497  -0.84083   0.39798   0.70573
  52 9   H  1S          0.08168   0.02798   0.03433   0.04916  -0.00712
  53        2S          0.78872   0.40838   0.95735   1.30852  -0.90472
                          26        27        28        29        30
                           V         V         V         V         V
     Eigenvalues --     0.24995   0.34973   0.42313   0.48356   0.68102
   1 1   C  1S         -0.07042   0.07660  -0.00439   0.12630  -0.05945
   2        2S          0.00685  -0.03565  -0.02190  -0.01513   0.06240
   3        2PX        -0.05247  -0.02099   0.26928   0.07129   0.33989
   4        2PY         0.01093   0.13376  -0.07183   0.21911  -0.24484
   5        2PZ        -0.00672   0.00362   0.00583   0.01326   0.01272
   6        3S          1.53065  -1.33794   0.47681  -3.15808   0.56237
   7        3PX        -0.57693  -0.93972   1.68549   1.10576  -0.43260
   8        3PY        -0.26234   1.10940  -0.78205   2.34150  -0.41946
   9        3PZ        -0.03179   0.01876   0.01966   0.05533  -0.01666
  10 2   C  1S         -0.06603  -0.08421   0.02878  -0.09340   0.06123
  11        2S          0.04970   0.00356  -0.02873   0.01943  -0.00257
  12        2PX        -0.09989  -0.24701   0.03058  -0.17230   0.15282
  13        2PY        -0.24620   0.17213  -0.10863  -0.19336   0.13329
  14        2PZ         0.00219  -0.00595  -0.00303   0.00200   0.00648
  15        3S          0.56824   1.59325  -0.94230   1.75800  -0.45636
  16        3PX        -0.18070  -1.32792   0.49429  -1.64442   0.48106
  17        3PY        -0.98768   0.63868  -1.63487   0.21317  -0.25002
  18        3PZ         0.00328  -0.01334  -0.02074  -0.01096  -0.00632
  19 3   O  1S          0.08009   0.05122   0.01721   0.02016  -0.02582
  20        2S         -0.03837  -0.02215  -0.00287   0.00076   0.08213
  21        2PX        -0.19825   0.09777  -0.18283  -0.20137  -0.08506
  22        2PY        -0.15015  -0.13319  -0.08631  -0.08887   0.14945
  23        2PZ        -0.00542   0.00024   0.00737   0.00536   0.00192
  24        3S         -0.86467  -0.64728  -0.29051  -0.33544  -0.12342
[...]
     1  C    5.263538   0.472039  -0.079509  -0.149482   0.441567  -0.025455
     2  C    0.472039   5.029498   0.281134  -0.154465  -0.131080   0.004917
     3  O   -0.079509   0.281134   8.106705   0.300829  -0.077253   0.001867
     4  C   -0.149482  -0.154465   0.300829   5.139389   0.458171  -0.031317
     5  C    0.441567  -0.131080  -0.077253   0.458171   5.225655   0.380578
     6  H   -0.025455   0.004917   0.001867  -0.031317   0.380578   0.477769
     7  H    0.003388   0.003144  -0.023062   0.396096  -0.040267  -0.000645
     8  H   -0.037362   0.379342  -0.031132   0.004533   0.002436  -0.000019
     9  H    0.379812  -0.029039   0.002265   0.005200  -0.025811  -0.001250
               7          8          9
     1  C    0.003388  -0.037362   0.379812
     2  C    0.003144   0.379342  -0.029039
     3  O   -0.023062  -0.031132   0.002265
     4  C    0.396096   0.004533   0.005200
     5  C   -0.040267   0.002436  -0.025811
     6  H   -0.000645  -0.000019  -0.001250
     7  H    0.442493  -0.000053  -0.000037
     8  H   -0.000053   0.468247  -0.000114
     9  H   -0.000037  -0.000114   0.486775
 Mulliken charges:
               1
     1  C   -0.268535
     2  C    0.144511
     3  O   -0.481844
     4  C    0.031046
     5  C   -0.233995
     6  H    0.193556
     7  H    0.218943
     8  H    0.214122
     9  H    0.182197
 Sum of Mulliken charges =   0.00000
 Mulliken charges with hydrogens summed into heavy atoms:
               1
     1  C   -0.086338
     2  C    0.358633
     3  O   -0.481844
     4  C    0.249989
     5  C   -0.040439
 Electronic spatial extent (au):  <R**2>=            289.1819
 Charge=              0.0000 electrons
 Dipole moment (field-independent basis, Debye):
    X=             -0.3287    Y=              0.5854    Z=              0.1010  Tot=              0.6790
 Quadrupole moment (field-independent basis, Debye-Ang):
   XX=            -24.0227   YY=            -27.6341   ZZ=            -31.7470
   XY=              1.5958   XZ=              0.0485   YZ=              0.0471
 Traceless Quadrupole moment (field-independent basis, Debye-Ang):
   XX=              3.7785   YY=              0.1671   ZZ=             -3.9457
   XY=              1.5958   XZ=              0.0485   YZ=              0.0471
 Octapole moment (field-independent basis, Debye-Ang**2):
  XXX=              4.1402  YYY=             -1.1550  ZZZ=              0.0040  XYY=             -3.2690
  XXY=             -1.3537  XXZ=              0.2791  XZZ=              1.4442  YZZ=             -3.1533
  YYZ=              0.3529  XYZ=              0.1470
 Hexadecapole moment (field-independent basis, Debye-Ang**3):
 XXXX=           -151.8162 YYYY=           -149.8347 ZZZZ=            -30.8327 XXXY=             -3.4787
 XXXZ=              0.1943 YYYX=              6.7273 YYYZ=              0.4679 ZZZX=             -0.0014
 ZZZY=              0.1627 XXYY=            -51.0392 XXZZ=            -38.6786 YYZZ=            -34.6551
 XXYZ=              0.0144 YYXZ=              0.0406 ZZXY=             -1.4123
 N-N= 1.613750768544D+02 E-N=-8.553942685395D+02  KE= 2.269965386352D+02
 Orbital energies and kinetic energies (alpha):
                                 1                 2
   1         O               -19.112239         28.829017
   2         O               -10.179284         15.800123
   3         O               -10.167709         15.799524
   4         O               -10.127258         15.804532
   5         O               -10.119008         15.806640
   6         O                -1.129928          2.528765
   7         O                -0.812288          1.805740
   8         O                -0.744789          1.787068
   9         O                -0.599824          1.656552
  10         O                -0.576093          1.435977
  11         O                -0.541746          1.324763
  12         O                -0.451720          1.541361
  13         O                -0.449100          1.591004
  14         O                -0.413945          1.367900
  15         O                -0.410400          1.433519
  16         O                -0.356076          2.226163
  17         O                -0.284606          1.514507
  18         O                -0.226282          1.245112
  19         V                 0.019785          1.839178
  20         V                 0.085893          1.503146
  21         V                 0.127565          1.589812
  22         V                 0.135382          1.472806
  23         V                 0.184268          1.337372
  24         V                 0.192273          1.216317
  25         V                 0.210385          1.611662
  26         V                 0.249949          1.999103
  27         V                 0.349727          1.969425
  28         V                 0.423134          1.695521
  29         V                 0.483565          2.700739
  30         V                 0.681021          2.546650
  31         V                 0.699081          2.498955
  32         V                 0.721885          2.832793
  33         V                 0.752381          2.637767
  34         V                 0.768903          2.511427
  35         V                 0.790032          2.576964
  36         V                 0.805473          2.687449
  37         V                 0.813314          2.617037
  38         V                 0.839593          2.611760
  39         V                 0.928609          2.851652
  40         V                 0.989496          3.184651
  41         V                 1.002493          3.146072
  42         V                 1.042478          3.227827
  43         V                 1.183935          2.739018
  44         V                 1.231737          2.930287
  45         V                 1.333845          2.583082
  46         V                 1.376528          2.836417
  47         V                 1.501575          4.954742
  48         V                 1.563712          3.442796
  49         V                 1.629562          3.630335
  50         V                 1.729433          4.396194
  51         V                 1.973328          4.257850
  52         V                 2.125748          4.079188
  53         V                 3.184006          6.812538
 Total kinetic energy from orbitals= 2.269965386352D+02
 No NMR shielding tensors so no spin-rotation constants.
 Leave Link  601 at Tue Dec 15 16:15:26 2015, MaxMem=    33554432 cpu:         0.1
 (Enter /home/Applications/g09/g09/l701.exe)
 Compute integral first derivatives.
 ... and contract with generalized density number  6.
 Leave Link  701 at Tue Dec 15 16:15:27 2015, MaxMem=    33554432 cpu:         0.1
 (Enter /home/Applications/g09/g09/l702.exe)
 L702 exits ... SP integral derivatives will be done elsewhere.
 Leave Link  702 at Tue Dec 15 16:15:27 2015, MaxMem=    33554432 cpu:         0.0
 (Enter /home/Applications/g09/g09/l703.exe)
 Compute integral first derivatives, UseDBF=F ICtDFT=           0.
 Integral derivatives from FoFJK, PRISM(SPDF).
 Calling FoFJK, ICntrl=  10005127 FMM=F ISym2X=0 I1Cent= 0 IOpClX= 0 NMat=1 NMatS=1 NMatT=0.
 FoFJK:  IHMeth= 1 ICntrl=10005127 DoSepK=F KAlg= 0 I1Cent=   0 FoldK=F
 IRaf=         0 NMat=   1 IRICut=       1 DoRegI=T DoRafI=F ISym2E= 0.
 FoFCou: FMM=F IPFlag=           0 FMFlag=      100000 FMFlg1=         800
         NFxFlg=           0 DoJE=F BraDBF=F KetDBF=F FulRan=T
         wScrn=  0.000000 ICntrl=10005127 IOpCl=  0 I1Cent=           0 NGrid=           0
         NMat0=    1 NMatS0=      1 NMatT0=    0 NMatD0=    1 NMtDS0=    0 NMtDT0=    0
 Symmetry not used in FoFCou.
 Leave Link  703 at Tue Dec 15 16:15:28 2015, MaxMem=    33554432 cpu:         1.6
 (Enter /home/Applications/g09/g09/l716.exe)
 Dipole        = 4.19905960D-01 5.38949143D-01 4.20610119D-02
 ***** Axes restored to original set *****
 -------------------------------------------------------------------
 Center     Atomic                   Forces (Hartrees/Bohr)
 Number     Number              X              Y              Z
 -------------------------------------------------------------------
      1        6           0.045359388   -0.026350945    0.001133149
      2        6          -0.016301877   -0.091243120    0.002788849
      3        8          -0.102982976    0.003408129   -0.002717130
      4        6          -0.012323225    0.023737178    0.000760635
      5        6           0.104392108    0.029689704   -0.001936046
      6        1          -0.005789996   -0.007977741   -0.000343860
      7        1          -0.023815062    0.042825407    0.002240918
      8        1           0.011683245    0.019485589   -0.001247778
      9        1          -0.000221604    0.006425799   -0.000678737
 -------------------------------------------------------------------
 Cartesian Forces:  Max     0.104392108 RMS     0.037286834
 Z-matrix is all fixed cartesians, so copy forces.
 Force constants in Cartesian coordinates: 
                1             2             3             4             5 
      1  0.855703D+00
      2 -0.408157D-01  0.845071D+00
      3  0.114934D-01 -0.120232D-01  0.208079D+00
      4 -0.455682D+00 -0.959772D-01 -0.385773D-02  0.927664D+00
      5 -0.715613D-01 -0.204527D+00  0.608022D-03 -0.754418D-01  0.944563D+00
      6 -0.243809D-02  0.880154D-03 -0.935821D-01  0.242864D-02 -0.679013D-02
      7 -0.873574D-02  0.297061D-01 -0.247842D-03 -0.352836D+00  0.233551D+00
      8 -0.662003D-02  0.225484D-01  0.138731D-03  0.278211D+00 -0.467801D+00
      9 -0.288351D-03  0.294387D-05  0.103551D-01 -0.105779D-02  0.291555D-03
     10  0.115083D-01  0.242185D-04 -0.407508D-03  0.242316D-01  0.183910D-01
     11  0.355438D-01  0.750925D-04 -0.156592D-02 -0.174215D-01 -0.132251D-01
     12 -0.577909D-03  0.606804D-05 -0.463463D-02  0.121495D-03  0.256575D-04
     13 -0.176086D+00  0.129967D-01 -0.512974D-03  0.101872D-01 -0.346659D-01
     14 -0.112632D-01 -0.459512D+00  0.692146D-02  0.260533D-04 -0.999809D-04
     15 -0.482817D-03  0.381719D-02 -0.921427D-01  0.175633D-03 -0.471434D-03
     16  0.177826D-01  0.483989D-04  0.838238D-04  0.175074D-05 -0.197443D-05
     17 -0.234615D-01 -0.717643D-04 -0.773970D-03  0.000000D+00  0.000000D+00
     18  0.310194D-03  0.256565D-03  0.214501D-01 -0.539906D-04  0.608889D-04
     19  0.107469D-04  0.343334D-05  0.285569D-03  0.000000D+00  0.000000D+00
     20 -0.112666D-05  0.000000D+00 -0.299379D-04  0.201521D-05  0.123531D-05
     21  0.329417D-03  0.105240D-03  0.875337D-02 -0.753615D-04 -0.461962D-04
     22  0.739747D-02 -0.251784D-01  0.696459D-03 -0.148124D+00 -0.888182D-01
     23 -0.351605D-02  0.119543D-01  0.214761D-03 -0.829892D-01 -0.280716D+00
     24 -0.147545D-03 -0.458251D-04  0.228396D-01  0.257526D-02  0.593747D-02
     25 -0.251899D+00  0.119192D+00 -0.753315D-02 -0.544446D-02  0.185471D-01
     26  0.121695D+00 -0.215538D+00  0.651007D-02 -0.640837D-02  0.218035D-01
     27 -0.819825D-02  0.700088D-02 -0.811181D-01 -0.256164D-03  0.384163D-03
                6             7             8             9            10 
      6  0.180625D+00
      7 -0.249487D-02  0.558842D+00
      8  0.177988D-02 -0.122896D+00  0.734282D+00
      9 -0.467665D-01  0.817870D-02  0.719690D-02  0.540553D-01
     10  0.810335D-03 -0.232283D+00 -0.156429D+00 -0.685687D-02  0.940936D+00
     11 -0.746609D-03 -0.113688D+00 -0.292537D+00 -0.906378D-02 -0.129882D+00
     12 -0.268465D-02 -0.513697D-02 -0.875049D-02 -0.449423D-01 -0.124142D-01
     13  0.763361D-03 -0.914266D-02  0.654532D-02  0.840614D-03 -0.536871D+00
     14  0.147602D-03 -0.280610D-01  0.201211D-01  0.149396D-02  0.123867D+00
     15  0.167074D-02 -0.115993D-02  0.557065D-03  0.496770D-02  0.154135D-01
     16 -0.165997D-03  0.202349D-05 -0.516928D-05  0.109692D-03 -0.574193D-02
     17  0.605904D-04 -0.643878D-05  0.164488D-04 -0.349042D-03  0.752919D-02
     18  0.511914D-02  0.121899D-03 -0.311409D-03  0.660808D-02  0.140140D-02
     19 -0.293696D-04  0.218675D-01 -0.157162D-01 -0.129147D-03 -0.201770D+00
     20 -0.792597D-04  0.119754D-01 -0.860234D-02 -0.200114D-03  0.136499D+00
     21  0.296402D-02  0.677921D-03 -0.692855D-03  0.606838D-02  0.199906D-02
     22  0.230938D-02  0.222850D-01  0.169102D-01 -0.695764D-03 -0.258570D-05
     23  0.500222D-02 -0.105791D-01 -0.802726D-02  0.422607D-03 -0.254917D-05
     24 -0.676610D-01  0.996353D-04  0.899470D-04  0.386229D-02 -0.158149D-03
     25 -0.118339D-02  0.000000D+00  0.000000D+00 -0.101092D-03 -0.797316D-05
     26 -0.254444D-03 -0.136420D-05  0.000000D+00  0.204966D-03  0.251234D-05
     27  0.203153D-01 -0.385496D-04 -0.776566D-05  0.579195D-02  0.212506D-03
               11            12            13            14            15 
     11  0.884414D+00
     12  0.208733D-01  0.215099D+00
     13  0.101475D+00  0.159449D-01  0.945594D+00
     14 -0.228902D+00 -0.594773D-02  0.242900D-02  0.852128D+00
     15 -0.621457D-02 -0.114388D+00 -0.105845D-01  0.417374D-02  0.225096D+00
     16 -0.176437D-01 -0.556052D-03 -0.261797D+00 -0.114476D+00 -0.395503D-02
     17  0.232297D-01 -0.176625D-03 -0.116161D+00 -0.198900D+00 -0.288825D-02
     18  0.126069D-02  0.294210D-01 -0.609681D-02 -0.475176D-02 -0.879918D-01
     19  0.141621D+00  0.272893D-02  0.892060D-02  0.274280D-01  0.701202D-03
     20 -0.373054D+00 -0.619717D-02  0.488223D-02  0.150890D-01 -0.363989D-03
     21 -0.451402D-02 -0.897368D-01  0.417766D-03 -0.236502D-02  0.351261D-01
     22 -0.158502D-05  0.101698D-03  0.000000D+00 -0.111386D-05 -0.936460D-04
     23 -0.156263D-05  0.100261D-03 -0.191127D-05  0.215547D-05  0.181217D-03
     24 -0.969446D-04  0.622012D-02 -0.603923D-04  0.681085D-04  0.572611D-02
     25 -0.254721D-05 -0.211865D-03  0.191929D-01  0.509872D-04 -0.143695D-04
     26  0.000000D+00  0.667587D-04  0.225006D-01  0.743898D-04  0.120903D-02
     27  0.678898D-04  0.564676D-02 -0.711977D-03  0.259630D-03  0.219357D-01
               16            17            18            19            20 
     16  0.249769D+00
     17  0.132075D+00  0.175729D+00
     18  0.443127D-02  0.353831D-02  0.466666D-01
     19 -0.704206D-05  0.224080D-04 -0.424230D-03  0.170978D+00
     20  0.000000D+00 -0.234917D-05  0.444745D-04 -0.153359D+00  0.366569D+00
     21 -0.215856D-03  0.686860D-03 -0.130036D-01 -0.313295D-02  0.682599D-02
     22  0.000000D+00  0.000000D+00  0.000000D+00  0.000000D+00  0.000000D+00
     23  0.000000D+00  0.000000D+00  0.000000D+00  0.000000D+00  0.000000D+00
     24  0.000000D+00  0.000000D+00  0.000000D+00  0.000000D+00  0.000000D+00
     25 -0.100609D-04  0.367233D-05  0.310266D-03  0.000000D+00  0.000000D+00
     26  0.317019D-05 -0.115715D-05 -0.977649D-04  0.000000D+00  0.000000D+00
     27  0.268150D-03 -0.978772D-04 -0.826941D-02  0.000000D+00  0.000000D+00
               21            22            23            24            25 
     21  0.498286D-01
     22  0.000000D+00  0.118446D+00
     23  0.000000D+00  0.970842D-01  0.276798D+00
     24  0.000000D+00 -0.245669D-02 -0.565293D-02  0.374855D-01
     25  0.000000D+00 -0.241847D-05  0.468006D-05  0.147881D-03  0.238170D+00
     26  0.000000D+00  0.490349D-05 -0.948890D-05 -0.299831D-03 -0.137796D+00
     27  0.000000D+00  0.138563D-03 -0.268138D-03 -0.847264D-02  0.858572D-02
               26            27 
     26  0.193670D+00
     27 -0.733878D-02  0.441704D-01
 Leave Link  716 at Tue Dec 15 16:15:28 2015, MaxMem=    33554432 cpu:         0.0
 (Enter /home/Applications/g09/g09/l103.exe)

 GradGradGradGradGradGradGradGradGradGradGradGradGradGradGradGradGradGrad
 Berny optimization.
 Search for a local minimum.
 Step number   1 out of a maximum of    2
 All quantities printed in internal units (Hartrees-Bohrs-Radians)
 Second derivative matrix not updated -- first step.
 ITU=  0
     Eigenvalues ---    0.02020   0.03024   0.06956   0.07357   0.07906
     Eigenvalues ---    0.08207   0.13151   0.14214   0.16326   0.22841
     Eigenvalues ---    0.25678   0.30550   0.41393   0.43031   0.63933
     Eigenvalues ---    0.79977   1.12102   1.30724   1.44814   1.67452
     Eigenvalues ---    1.69329
 Quadratic step=3.726D-01 exceeds max=3.000D-01 adjusted using Lamda=-6.495D-02.
 Angle between NR and scaled steps=   8.52 degrees.
 Angle between quadratic step and forces=  33.70 degrees.
 Linear search not attempted -- first point.
 TrRot= -0.010938 -0.008123 -0.000709 -1.062597 -0.000893  1.062512
 Variable       Old X    -DE/DX   Delta X   Delta X   Delta X     New X
                                 (Linear)    (Quad)   (Total)
    X1        1.80405   0.04536   0.00000   0.05674   0.04569   1.84974
    Y1       -1.30021  -0.02635   0.00000  -0.02599  -0.03428  -1.33449
    Z1       -0.01490   0.00113   0.00000   0.00098   0.00211  -0.01279
    X2       -0.70785  -0.01630   0.00000  -0.04223  -0.05334  -0.76119
    Y2       -2.03870  -0.09124   0.00000  -0.07357  -0.08165  -2.12035
    Z2       -0.03261   0.00279   0.00000   0.00767   0.00828  -0.02433
    X3       -2.19286  -0.10298   0.00000  -0.15753  -0.16846  -2.36132
    Y3       -0.08198   0.00341   0.00000  -0.03358  -0.04154  -0.12352
    Z3       -0.03987  -0.00272   0.00000  -0.00557  -0.00722  -0.04708
    X4       -0.60864  -0.01232   0.00000  -0.01026  -0.02102  -0.62967
    Y4        2.12170   0.02374   0.00000   0.04707   0.03903   2.16073
    Z4        0.03476   0.00076   0.00000  -0.00394  -0.00661   0.02815
    X5        1.79701   0.10439   0.00000   0.12653   0.11573   1.91274
    Y5        1.34137   0.02969   0.00000   0.04419   0.03587   1.37724
    Z5       -0.04639  -0.00194   0.00000  -0.00089  -0.00184  -0.04824
    X6        3.43558  -0.00579   0.00000   0.09765   0.08693   3.52251
    Y6        2.58382  -0.00798   0.00000   0.01343   0.00500   2.58882
    Z6       -0.00797  -0.00034   0.00000   0.00225   0.00105  -0.00691
    X7       -1.53100  -0.02382   0.00000  -0.05214  -0.06278  -1.59378
    Y7        3.80392   0.04283   0.00000   0.12573   0.11781   3.92173
    Z7        0.07060   0.00224   0.00000   0.01282   0.00836   0.07896
    X8       -1.60965   0.01168   0.00000   0.02550   0.01422  -1.59543
    Y8       -3.93792   0.01949   0.00000  -0.02447  -0.03245  -3.97037
    Z8        0.01275  -0.00125   0.00000  -0.00328  -0.00159   0.01116
    X9        3.36177  -0.00022   0.00000   0.05421   0.04302   3.40479
    Y9       -2.62659   0.00643   0.00000   0.00059  -0.00778  -2.63437
    Z9        0.05923  -0.00068   0.00000  -0.00537  -0.00255   0.05668
         Item               Value     Threshold  Converged?
 Maximum Force            0.104392     0.000450     NO 
 RMS     Force            0.037287     0.000300     NO 
 Maximum Displacement     0.168457     0.001800     NO 
 RMS     Displacement     0.057201     0.001200     NO 
 Predicted change in Energy=-2.711019D-02
 GradGradGradGradGradGradGradGradGradGradGradGradGradGradGradGradGradGrad

 Leave Link  103 at Tue Dec 15 16:15:28 2015, MaxMem=    33554432 cpu:         0.0
 (Enter /home/Applications/g09/g09/l9999.exe)
 1\1\GINC-DUSTIN-DESKTOP\Force\RB3LYP-FC\3-21G\C4H4O1\DUSTIN\15-Dec-201
 5\0\\#P B3LYP/3-21G CIS(Singlets,NStates=15) pop(full) force\\FuranDFT
 \\0,1\C,0.954661,-0.688042,-0.007884\C,-0.374578,-1.078835,-0.017255\O
 ,-1.160414,-0.043382,-0.021097\C,-0.32208,1.122755,0.018393\C,0.950935
 ,0.709821,-0.02455\H,1.818028,1.367301,-0.004215\H,-0.81017,2.01295,0.
 037361\H,-0.851789,-2.083855,0.006747\H,1.778971,-1.389932,0.031342\\V
 ersion=ES64L-G09RevD.01\State=1-A\HF=-228.7398535\RMSD=4.540e-09\RMSF=
 3.729e-02\Dipole=0.319365,-0.6041929,0.0389006\PG=C01 [X(C4H4O1)]\\@


 Spring appears, and we are once more children.
                                  -- Anonymous
 Job cpu time:       0 days  0 hours  0 minutes 51.1 seconds.
 File lengths (MBytes):  RWF=     14 Int=      0 D2E=      0 Chk=      3 Scr=      1
 Normal termination of Gaussian 09 at Tue Dec 15 16:15:28 2015.
