 Entering Gaussian System, Link 0=g09
 Input=FuranDFT_31.com
 Output=FuranDFT_31.log
 Initial command:
 /home/Applications/g09/g09/l1.exe "/home/Applications/g09/scratch/Gau-5731.inp" -scrdir="/home/Applications/g09/scratch/"
 Entering Link 1 = /home/Applications/g09/g09/l1.exe PID=      5733.
  
 Copyright (c) 1988,1990,1992,1993,1995,1998,2003,2009,2013,
            Gaussian, Inc.  All Rights Reserved.
  
 This is part of the Gaussian(R) 09 program.  It is based on
 the Gaussian(R) 03 system (copyright 2003, Gaussian, Inc.),
 the Gaussian(R) 98 system (copyright 1998, Gaussian, Inc.),
 the Gaussian(R) 94 system (copyright 1995, Gaussian, Inc.),
 the Gaussian 92(TM) system (copyright 1992, Gaussian, Inc.),
 the Gaussian 90(TM) system (copyright 1990, Gaussian, Inc.),
 the Gaussian 88(TM) system (copyright 1988, Gaussian, Inc.),
 the Gaussian 86(TM) system (copyright 1986, Carnegie Mellon
 University), and the Gaussian 82(TM) system (copyright 1983,
 Carnegie Mellon University). Gaussian is a federally registered
 trademark of Gaussian, Inc.
  
 This software contains proprietary and confidential information,
 including trade secrets, belonging to Gaussian, Inc.
  
 This software is provided under written license and may be
 used, copied, transmitted, or stored only in accord with that
 written license.
  
 The following legend is applicable only to US Government
 contracts under FAR:
  
                    RESTRICTED RIGHTS LEGEND
  
 Use, reproduction and disclosure by the US Government is
 subject to restrictions as set forth in subparagraphs (a)
 and (c) of the Commercial Computer Software - Restricted
 Rights clause in FAR 52.227-19.
  
 Gaussian, Inc.
 340 Quinnipiac St., Bldg. 40, Wallingford CT 06492
  
  
 ---------------------------------------------------------------
 Warning -- This program may not be used in any manner that
 competes with the business of Gaussian, Inc. or will provide
 assistance to any competitor of Gaussian, Inc.  The licensee
 of this program is prohibited from giving any competitor of
 Gaussian, Inc. access to this program.  By using this program,
 the user acknowledges that Gaussian, Inc. is engaged in the
 business of creating and licensing software in the field of
 computational chemistry and represents and warrants to the
 licensee that it is not a competitor of Gaussian, Inc. and that
 it will not use this program in any manner prohibited above.
 ---------------------------------------------------------------
  

 Cite this work as:
 Gaussian 09, Revision D.01,
 M. J. Frisch, G. W. Trucks, H. B. Schlegel, G. E. Scuseria, 
 M. A. Robb, J. R. Cheeseman, G. Scalmani, V. Barone, B. Mennucci, 
 G. A. Petersson, H. Nakatsuji, M. Caricato, X. Li, H. P. Hratchian, 
 A. F. Izmaylov, J. Bloino, G. Zheng, J. L. Sonnenberg, M. Hada, 
 M. Ehara, K. Toyota, R. Fukuda, J. Hasegawa, M. Ishida, T. Nakajima, 
 Y. Honda, O. Kitao, H. Nakai, T. Vreven, J. A. Montgomery, Jr., 
 J. E. Peralta, F. Ogliaro, M. Bearpark, J. J. Heyd, E. Brothers, 
 K. N. Kudin, V. N. Staroverov, T. Keith, R. Kobayashi, J. Normand, 
 K. Raghavachari, A. Rendell, J. C. Burant, S. S. Iyengar, J. Tomasi, 
 M. Cossi, N. Rega, J. M. Millam, M. Klene, J. E. Knox, J. B. Cross, 
 V. Bakken, C. Adamo, J. Jaramillo, R. Gomperts, R. E. Stratmann, 
 O. Yazyev, A. J. Austin, R. Cammi, C. Pomelli, J. W. Ochterski, 
 R. L. Martin, K. Morokuma, V. G. Zakrzewski, G. A. Voth, 
 P. Salvador, J. J. Dannenberg, S. Dapprich, A. D. Daniels, 
 O. Farkas, J. B. Foresman, J. V. Ortiz, J. Cioslowski, 
 and D. J. Fox, Gaussian, Inc., Wallingford CT, 2013.
 
 ******************************************
 Gaussian 09:  ES64L-G09RevD.01 24-Apr-2013
                15-Dec-2015 
 ******************************************
 -------------------------------------------------------
 #P B3LYP/3-21G CIS(Singlets,NStates=15) pop(full) force
 -------------------------------------------------------
 1/10=7,30=1,38=1/1,3;
 2/12=2,17=6,18=5,40=1/2;
 3/5=5,11=9,16=1,25=1,30=1,71=1,74=-5/1,2,8,3;
 4//1;
 5/5=2,38=5/2;
 8/6=1,10=1,108=15/1;
 9/15=2,41=15,42=1,48=1/14;
 10/5=4/2;
 6/7=3,18=1/1;
 7/12=6,13=5,29=1/1,2,3,16;
 1/10=7,30=1/3;
 99//99;
 Leave Link    1 at Tue Dec 15 16:16:24 2015, MaxMem=           0 cpu:         0.0
 (Enter /home/Applications/g09/g09/l101.exe)
 --------
 FuranDFT
 --------
 Symbolic Z-matrix:
 Charge =  0 Multiplicity = 1
 6                     0.9583   -0.74632   0.01244 
 6                    -0.35623  -1.08655   0.03408 
 8                    -1.14701   0.02271   0.02629 
 6                    -0.37063   1.13025   0.01335 
 6                     0.96529   0.7287    0.01795 
 1                     1.83106   1.35138  -0.03981 
 1                    -0.85948   2.02355   0.03981 
 1                    -0.82357  -2.03914   0.03944 
 1                     1.76336  -1.33642   0.04784 
 
 NAtoms=      9 NQM=        9 NQMF=       0 NMMI=      0 NMMIF=      0
                NMic=       0 NMicF=      0.
                    Isotopes and Nuclear Properties:
 (Nuclear quadrupole moments (NQMom) in fm**2, nuclear magnetic moments (NMagM)
  in nuclear magnetons)

  Atom         1           2           3           4           5           6           7           8           9
 IAtWgt=          12          12          16          12          12           1           1           1           1
 AtmWgt=  12.0000000  12.0000000  15.9949146  12.0000000  12.0000000   1.0078250   1.0078250   1.0078250   1.0078250
 NucSpn=           0           0           0           0           0           1           1           1           1
 AtZEff=   0.0000000   0.0000000   0.0000000   0.0000000   0.0000000   0.0000000   0.0000000   0.0000000   0.0000000
 NQMom=    0.0000000   0.0000000   0.0000000   0.0000000   0.0000000   0.0000000   0.0000000   0.0000000   0.0000000
 NMagM=    0.0000000   0.0000000   0.0000000   0.0000000   0.0000000   2.7928460   2.7928460   2.7928460   2.7928460
 AtZNuc=   6.0000000   6.0000000   8.0000000   6.0000000   6.0000000   1.0000000   1.0000000   1.0000000   1.0000000
 Leave Link  101 at Tue Dec 15 16:16:24 2015, MaxMem=    33554432 cpu:         0.0
 (Enter /home/Applications/g09/g09/l103.exe)

 GradGradGradGradGradGradGradGradGradGradGradGradGradGradGradGradGradGrad
 Berny optimization.
 Initialization pass.
 Trust Radius=3.00D-01 FncErr=1.00D-07 GrdErr=1.00D-07
 Number of steps in this run=      2 maximum allowed number of steps=      2.
 GradGradGradGradGradGradGradGradGradGradGradGradGradGradGradGradGradGrad

 Leave Link  103 at Tue Dec 15 16:16:24 2015, MaxMem=    33554432 cpu:         0.0
 (Enter /home/Applications/g09/g09/l202.exe)
                          Input orientation:                          
 ---------------------------------------------------------------------
 Center     Atomic      Atomic             Coordinates (Angstroms)
 Number     Number       Type             X           Y           Z
 ---------------------------------------------------------------------
      1          6           0        0.958295   -0.746324    0.012435
      2          6           0       -0.356229   -1.086547    0.034076
      3          8           0       -1.147013    0.022711    0.026294
      4          6           0       -0.370630    1.130248    0.013346
      5          6           0        0.965289    0.728700    0.017948
      6          1           0        1.831057    1.351376   -0.039805
      7          1           0       -0.859475    2.023547    0.039808
      8          1           0       -0.823568   -2.039143    0.039444
      9          1           0        1.763361   -1.336423    0.047840
 ---------------------------------------------------------------------
                    Distance matrix (angstroms):
                    1          2          3          4          5
     1  C    0.000000
     2  C    1.358011   0.000000
     3  O    2.241412   1.362297   0.000000
     4  C    2.299471   2.216939   1.352618   0.000000
     5  C    1.475051   2.245393   2.227175   1.394970   0.000000
     6  H    2.272617   3.276148   3.261690   2.213402   1.067996
     7  H    3.313189   3.150551   2.021436   1.018652   2.237604
     8  H    2.201624   1.061072   2.087111   3.201698   3.295668
     9  H    0.998800   2.134312   3.212162   3.261836   2.214169
                    6          7          8          9
     6  H    0.000000
     7  H    2.774367   0.000000
     8  H    4.306847   4.062849   0.000000
     9  H    2.690080   4.262480   2.680688   0.000000
 Stoichiometry    C4H4O
 Framework group  C1[X(C4H4O)]
 Deg. of freedom    21
 Full point group                 C1      NOp   1
 Largest Abelian subgroup         C1      NOp   1
 Largest concise Abelian subgroup C1      NOp   1
                         Standard orientation:                         
 ---------------------------------------------------------------------
 Center     Atomic      Atomic             Coordinates (Angstroms)
 Number     Number       Type             X           Y           Z
 ---------------------------------------------------------------------
      1          6           0       -0.923480    0.800700    0.007144
      2          6           0       -1.009410   -0.554554   -0.002617
      3          8           0        0.229269   -1.121560    0.003120
      4          6           0        1.170285   -0.149929    0.002709
      5          6           0        0.523621    1.086046   -0.008737
      6          1           0        0.971874    2.054273    0.038401
      7          1           0        2.139677   -0.461506   -0.026468
      8          1           0       -1.856605   -1.193391    0.002057
      9          1           0       -1.655201    1.479529   -0.029949
 ---------------------------------------------------------------------
 Rotational constants (GHZ):      9.4384980      9.1427592      4.6445561
 Leave Link  202 at Tue Dec 15 16:16:24 2015, MaxMem=    33554432 cpu:         0.0
 (Enter /home/Applications/g09/g09/l301.exe)
 Standard basis: 3-21G (6D, 7F)
 Ernie: Thresh=  0.10000D-02 Tol=  0.10000D-05 Strict=F.
 There are    53 symmetry adapted cartesian basis functions of A   symmetry.
 There are    53 symmetry adapted basis functions of A   symmetry.
    53 basis functions,    87 primitive gaussians,    53 cartesian basis functions
    18 alpha electrons       18 beta electrons
       nuclear repulsion energy       160.5626066288 Hartrees.
 IExCor=  402 DFT=T Ex+Corr=B3LYP ExCW=0 ScaHFX=  0.200000
 ScaDFX=  0.800000  0.720000  1.000000  0.810000 ScalE2=  1.000000  1.000000
 IRadAn=      0 IRanWt=     -1 IRanGd=            0 ICorTp=0 IEmpDi=  4
 NAtoms=    9 NActive=    9 NUniq=    9 SFac= 1.00D+00 NAtFMM=   60 NAOKFM=F Big=F
 Integral buffers will be    131072 words long.
 Regular integral format.
 Two-electron integral symmetry is turned on.
 Leave Link  301 at Tue Dec 15 16:16:24 2015, MaxMem=    33554432 cpu:         0.0
 (Enter /home/Applications/g09/g09/l302.exe)
 NPDir=0 NMtPBC=     1 NCelOv=     1 NCel=       1 NClECP=     1 NCelD=      1
         NCelK=      1 NCelE2=     1 NClLst=     1 CellRange=     0.0.
 One-electron integrals computed using PRISM.
 NBasis=    53 RedAO= T EigKep=  3.61D-03  NBF=    53
 NBsUse=    53 1.00D-06 EigRej= -1.00D+00 NBFU=    53
 Precomputing XC quadrature grid using
 IXCGrd= 4 IRadAn=           0 IRanWt=          -1 IRanGd=           0 AccXCQ= 0.00D+00.
 Generated NRdTot=       0 NPtTot=           0 NUsed=           0 NTot=          32
 NSgBfM=    53    53    53    53    53 MxSgAt=     9 MxSgA2=     9.
 Leave Link  302 at Tue Dec 15 16:16:24 2015, MaxMem=    33554432 cpu:         0.1
 (Enter /home/Applications/g09/g09/l308.exe)
 Leave Link  308 at Tue Dec 15 16:16:24 2015, MaxMem=    33554432 cpu:         0.0
 (Enter /home/Applications/g09/g09/l303.exe)
 DipDrv:  MaxL=1.
 Leave Link  303 at Tue Dec 15 16:16:24 2015, MaxMem=    33554432 cpu:         0.0
 (Enter /home/Applications/g09/g09/l401.exe)
 ExpMin= 1.83D-01 ExpMax= 3.22D+02 ExpMxC= 3.22D+02 IAcc=1 IRadAn=         1 AccDes= 0.00D+00
 Harris functional with IExCor=  402 and IRadAn=       1 diagonalized for initial guess.
 HarFok:  IExCor=  402 AccDes= 0.00D+00 IRadAn=         1 IDoV= 1 UseB2=F ITyADJ=14
 ICtDFT=  3500011 ScaDFX=  1.000000  1.000000  1.000000  1.000000
 FoFCou: FMM=F IPFlag=           0 FMFlag=      100000 FMFlg1=           0
         NFxFlg=           0 DoJE=T BraDBF=F KetDBF=T FulRan=T
         wScrn=  0.000000 ICntrl=     500 IOpCl=  0 I1Cent=   200000004 NGrid=           0
         NMat0=    1 NMatS0=      1 NMatT0=    0 NMatD0=    1 NMtDS0=    0 NMtDT0=    0
 Petite list used in FoFCou.
 Harris En= -228.734051841810    
 JPrj=0 DoOrth=F DoCkMO=F.
 Leave Link  401 at Tue Dec 15 16:16:24 2015, MaxMem=    33554432 cpu:         0.2
 (Enter /home/Applications/g09/g09/l502.exe)
 Closed shell SCF:
 Using DIIS extrapolation, IDIIS=  1040.
 Integral symmetry usage will be decided dynamically.
 Keep R1 ints in memory in canonical form, NReq=1925595.
 IVT=       27707 IEndB=       27707 NGot=    33554432 MDV=    32502130
 LenX=    32502130 LenY=    32498880
 Requested convergence on RMS density matrix=1.00D-08 within 128 cycles.
 Requested convergence on MAX density matrix=1.00D-06.
 Requested convergence on             energy=1.00D-06.
 No special actions if energy rises.
 FoFCou: FMM=F IPFlag=           0 FMFlag=           0 FMFlg1=           0
         NFxFlg=           0 DoJE=F BraDBF=F KetDBF=F FulRan=T
         wScrn=  0.000000 ICntrl=     600 IOpCl=  0 I1Cent=           0 NGrid=           0
         NMat0=    1 NMatS0=   1431 NMatT0=    0 NMatD0=    1 NMtDS0=    0 NMtDT0=    0
 Symmetry not used in FoFCou.
 Integral accuracy reduced to 1.0D-05 until final iterations.

 Cycle   1  Pass 0  IDiag  1:
 E= -228.663634662537    
 DIIS: error= 3.32D-02 at cycle   1 NSaved=   1.
 NSaved= 1 IEnMin= 1 EnMin= -228.663634662537     IErMin= 1 ErrMin= 3.32D-02
 ErrMax= 3.32D-02  0.00D+00 EMaxC= 1.00D-01 BMatC= 7.35D-02 BMatP= 7.35D-02
 IDIUse=3 WtCom= 6.68D-01 WtEn= 3.32D-01
 Coeff-Com:  0.100D+01
 Coeff-En:   0.100D+01
 Coeff:      0.100D+01
 Gap=     0.230 Goal=   None    Shift=    0.000
 GapD=    0.230 DampG=1.000 DampE=0.500 DampFc=0.5000 IDamp=-1.
 Damping current iteration by 5.00D-01
 RMSDP=1.16D-02 MaxDP=1.06D-01              OVMax= 2.04D-01

 Cycle   2  Pass 0  IDiag  1:
 E= -228.692827125490     Delta-E=       -0.029192462953 Rises=F Damp=T
 DIIS: error= 1.50D-02 at cycle   2 NSaved=   2.
 NSaved= 2 IEnMin= 2 EnMin= -228.692827125490     IErMin= 2 ErrMin= 1.50D-02
 ErrMax= 1.50D-02  0.00D+00 EMaxC= 1.00D-01 BMatC= 9.60D-03 BMatP= 7.35D-02
 IDIUse=3 WtCom= 8.50D-01 WtEn= 1.50D-01
 Coeff-Com:  0.118D+00 0.882D+00
 Coeff-En:   0.208D+00 0.792D+00
 Coeff:      0.132D+00 0.868D+00
 Gap=     0.245 Goal=   None    Shift=    0.000
 RMSDP=4.36D-03 MaxDP=3.60D-02 DE=-2.92D-02 OVMax= 1.76D-01

 Cycle   3  Pass 0  IDiag  1:
 E= -228.730103949095     Delta-E=       -0.037276823605 Rises=F Damp=F
 DIIS: error= 2.10D-02 at cycle   3 NSaved=   3.
 NSaved= 3 IEnMin= 3 EnMin= -228.730103949095     IErMin= 2 ErrMin= 1.50D-02
 ErrMax= 2.10D-02  0.00D+00 EMaxC= 1.00D-01 BMatC= 1.21D-02 BMatP= 9.60D-03
 IDIUse=2 WtCom= 0.00D+00 WtEn= 1.00D+00
 Coeff-En:   0.000D+00 0.000D+00 0.100D+01
 Coeff:      0.000D+00 0.000D+00 0.100D+01
 Gap=     0.238 Goal=   None    Shift=    0.000
 RMSDP=6.00D-03 MaxDP=4.72D-02 DE=-3.73D-02 OVMax= 1.30D-01

 Cycle   4  Pass 0  IDiag  1:
 E= -228.696900617684     Delta-E=        0.033203331411 Rises=F Damp=F
 DIIS: error= 4.42D-02 at cycle   4 NSaved=   4.
 NSaved= 4 IEnMin= 3 EnMin= -228.730103949095     IErMin= 2 ErrMin= 1.50D-02
 ErrMax= 4.42D-02  0.00D+00 EMaxC= 1.00D-01 BMatC= 4.78D-02 BMatP= 9.60D-03
 IDIUse=2 WtCom= 0.00D+00 WtEn= 1.00D+00
 Coeff-En:   0.000D+00 0.000D+00 0.751D+00 0.249D+00
 Coeff:      0.000D+00 0.000D+00 0.751D+00 0.249D+00
 Gap=     0.249 Goal=   None    Shift=    0.000
 RMSDP=3.03D-03 MaxDP=2.33D-02 DE= 3.32D-02 OVMax= 7.20D-02

 Cycle   5  Pass 0  IDiag  1:
 E= -228.738832314259     Delta-E=       -0.041931696575 Rises=F Damp=F
 DIIS: error= 1.02D-02 at cycle   5 NSaved=   5.
 NSaved= 5 IEnMin= 5 EnMin= -228.738832314259     IErMin= 5 ErrMin= 1.02D-02
 ErrMax= 1.02D-02  0.00D+00 EMaxC= 1.00D-01 BMatC= 2.68D-03 BMatP= 9.60D-03
 IDIUse=3 WtCom= 8.98D-01 WtEn= 1.02D-01
 Coeff-Com: -0.822D-02 0.293D-01 0.235D+00-0.949D-01 0.838D+00
 Coeff-En:   0.000D+00 0.000D+00 0.223D+00 0.000D+00 0.777D+00
 Coeff:     -0.738D-02 0.263D-01 0.234D+00-0.852D-01 0.832D+00
 Gap=     0.253 Goal=   None    Shift=    0.000
 RMSDP=1.03D-03 MaxDP=8.00D-03 DE=-4.19D-02 OVMax= 2.28D-02

 Cycle   6  Pass 0  IDiag  1:
 E= -228.741308641211     Delta-E=       -0.002476326951 Rises=F Damp=F
 DIIS: error= 6.28D-04 at cycle   6 NSaved=   6.
 NSaved= 6 IEnMin= 6 EnMin= -228.741308641211     IErMin= 6 ErrMin= 6.28D-04
 ErrMax= 6.28D-04  0.00D+00 EMaxC= 1.00D-01 BMatC= 1.37D-05 BMatP= 2.68D-03
 IDIUse=3 WtCom= 9.94D-01 WtEn= 6.28D-03
 Coeff-Com: -0.629D-02 0.155D-01 0.752D-01-0.514D-01 0.380D+00 0.587D+00
 Coeff-En:   0.000D+00 0.000D+00 0.000D+00 0.000D+00 0.000D+00 0.100D+01
 Coeff:     -0.625D-02 0.154D-01 0.747D-01-0.510D-01 0.377D+00 0.590D+00
 Gap=     0.253 Goal=   None    Shift=    0.000
 RMSDP=7.62D-05 MaxDP=6.77D-04 DE=-2.48D-03 OVMax= 1.51D-03

 Cycle   7  Pass 0  IDiag  1:
 E= -228.741321626245     Delta-E=       -0.000012985034 Rises=F Damp=F
 DIIS: error= 1.55D-04 at cycle   7 NSaved=   7.
 NSaved= 7 IEnMin= 7 EnMin= -228.741321626245     IErMin= 7 ErrMin= 1.55D-04
 ErrMax= 1.55D-04  0.00D+00 EMaxC= 1.00D-01 BMatC= 6.16D-07 BMatP= 1.37D-05
 IDIUse=3 WtCom= 9.98D-01 WtEn= 1.55D-03
 Coeff-Com: -0.275D-02 0.574D-02 0.186D-01-0.204D-01 0.136D+00 0.363D+00
 Coeff-Com:  0.501D+00
 Coeff-En:   0.000D+00 0.000D+00 0.000D+00 0.000D+00 0.000D+00 0.000D+00
 Coeff-En:   0.100D+01
 Coeff:     -0.275D-02 0.573D-02 0.186D-01-0.204D-01 0.135D+00 0.362D+00
 Coeff:      0.501D+00
 Gap=     0.253 Goal=   None    Shift=    0.000
 RMSDP=1.49D-05 MaxDP=1.97D-04 DE=-1.30D-05 OVMax= 4.43D-04

 Cycle   8  Pass 0  IDiag  1:
 E= -228.741322252167     Delta-E=       -0.000000625923 Rises=F Damp=F
 DIIS: error= 2.12D-05 at cycle   8 NSaved=   8.
 NSaved= 8 IEnMin= 8 EnMin= -228.741322252167     IErMin= 8 ErrMin= 2.12D-05
 ErrMax= 2.12D-05  0.00D+00 EMaxC= 1.00D-01 BMatC= 1.58D-08 BMatP= 6.16D-07
 IDIUse=1 WtCom= 1.00D+00 WtEn= 0.00D+00
 Coeff-Com: -0.332D-03 0.318D-03 0.305D-02-0.290D-02 0.250D-01 0.117D+00
 Coeff-Com:  0.204D+00 0.654D+00
 Coeff:     -0.332D-03 0.318D-03 0.305D-02-0.290D-02 0.250D-01 0.117D+00
 Coeff:      0.204D+00 0.654D+00
 Gap=     0.253 Goal=   None    Shift=    0.000
 RMSDP=1.98D-06 MaxDP=1.96D-05 DE=-6.26D-07 OVMax= 3.45D-05

 Initial convergence to 1.0D-05 achieved.  Increase integral accuracy.
 Cycle   9  Pass 1  IDiag  1:
 E= -228.741357258744     Delta-E=       -0.000035006577 Rises=F Damp=F
 DIIS: error= 1.12D-05 at cycle   1 NSaved=   1.
 NSaved= 1 IEnMin= 1 EnMin= -228.741357258744     IErMin= 1 ErrMin= 1.12D-05
 ErrMax= 1.12D-05  0.00D+00 EMaxC= 1.00D-01 BMatC= 7.65D-09 BMatP= 7.65D-09
 IDIUse=1 WtCom= 1.00D+00 WtEn= 0.00D+00
 Coeff-Com:  0.100D+01
 Coeff:      0.100D+01
 Gap=     0.253 Goal=   None    Shift=    0.000
 RMSDP=1.98D-06 MaxDP=1.96D-05 DE=-3.50D-05 OVMax= 3.17D-05

 Cycle  10  Pass 1  IDiag  1:
 E= -228.741357269211     Delta-E=       -0.000000010467 Rises=F Damp=F
 DIIS: error= 2.34D-06 at cycle   2 NSaved=   2.
 NSaved= 2 IEnMin= 2 EnMin= -228.741357269211     IErMin= 2 ErrMin= 2.34D-06
 ErrMax= 2.34D-06  0.00D+00 EMaxC= 1.00D-01 BMatC= 3.57D-10 BMatP= 7.65D-09
 IDIUse=1 WtCom= 1.00D+00 WtEn= 0.00D+00
 Coeff-Com:  0.428D-01 0.957D+00
 Coeff:      0.428D-01 0.957D+00
 Gap=     0.253 Goal=   None    Shift=    0.000
 RMSDP=9.81D-07 MaxDP=8.27D-06 DE=-1.05D-08 OVMax= 1.63D-05

 Cycle  11  Pass 1  IDiag  1:
 E= -228.741357268932     Delta-E=        0.000000000279 Rises=F Damp=F
 DIIS: error= 3.89D-06 at cycle   3 NSaved=   3.
 NSaved= 3 IEnMin= 2 EnMin= -228.741357269211     IErMin= 2 ErrMin= 2.34D-06
 ErrMax= 3.89D-06  0.00D+00 EMaxC= 1.00D-01 BMatC= 6.43D-10 BMatP= 3.57D-10
 IDIUse=1 WtCom= 1.00D+00 WtEn= 0.00D+00
 Coeff-Com: -0.224D-01 0.585D+00 0.437D+00
 Coeff:     -0.224D-01 0.585D+00 0.437D+00
 Gap=     0.253 Goal=   None    Shift=    0.000
 RMSDP=5.79D-07 MaxDP=7.09D-06 DE= 2.79D-10 OVMax= 1.27D-05

 Cycle  12  Pass 1  IDiag  1:
 E= -228.741357269613     Delta-E=       -0.000000000681 Rises=F Damp=F
 DIIS: error= 7.68D-07 at cycle   4 NSaved=   4.
 NSaved= 4 IEnMin= 4 EnMin= -228.741357269613     IErMin= 4 ErrMin= 7.68D-07
 ErrMax= 7.68D-07  0.00D+00 EMaxC= 1.00D-01 BMatC= 2.37D-11 BMatP= 3.57D-10
 IDIUse=1 WtCom= 1.00D+00 WtEn= 0.00D+00
 Coeff-Com: -0.158D-01 0.264D+00 0.238D+00 0.515D+00
 Coeff:     -0.158D-01 0.264D+00 0.238D+00 0.515D+00
 Gap=     0.253 Goal=   None    Shift=    0.000
 RMSDP=1.03D-07 MaxDP=8.84D-07 DE=-6.81D-10 OVMax= 2.26D-06

 Cycle  13  Pass 1  IDiag  1:
 E= -228.741357269632     Delta-E=       -0.000000000019 Rises=F Damp=F
 DIIS: error= 2.68D-07 at cycle   5 NSaved=   5.
 NSaved= 5 IEnMin= 5 EnMin= -228.741357269632     IErMin= 5 ErrMin= 2.68D-07
 ErrMax= 2.68D-07  0.00D+00 EMaxC= 1.00D-01 BMatC= 2.35D-12 BMatP= 2.37D-11
 IDIUse=1 WtCom= 1.00D+00 WtEn= 0.00D+00
 Coeff-Com: -0.595D-02 0.889D-01 0.924D-01 0.294D+00 0.531D+00
 Coeff:     -0.595D-02 0.889D-01 0.924D-01 0.294D+00 0.531D+00
 Gap=     0.253 Goal=   None    Shift=    0.000
 RMSDP=3.75D-08 MaxDP=4.15D-07 DE=-1.88D-11 OVMax= 7.02D-07

 Cycle  14  Pass 1  IDiag  1:
 E= -228.741357269637     Delta-E=       -0.000000000005 Rises=F Damp=F
 DIIS: error= 9.31D-08 at cycle   6 NSaved=   6.
 NSaved= 6 IEnMin= 6 EnMin= -228.741357269637     IErMin= 6 ErrMin= 9.31D-08
 ErrMax= 9.31D-08  0.00D+00 EMaxC= 1.00D-01 BMatC= 2.51D-13 BMatP= 2.35D-12
 IDIUse=1 WtCom= 1.00D+00 WtEn= 0.00D+00
 Coeff-Com: -0.821D-03 0.661D-02 0.147D-01 0.753D-01 0.289D+00 0.615D+00
 Coeff:     -0.821D-03 0.661D-02 0.147D-01 0.753D-01 0.289D+00 0.615D+00
 Gap=     0.253 Goal=   None    Shift=    0.000
 RMSDP=1.17D-08 MaxDP=1.15D-07 DE=-4.83D-12 OVMax= 2.78D-07

 Cycle  15  Pass 1  IDiag  1:
 E= -228.741357269635     Delta-E=        0.000000000002 Rises=F Damp=F
 DIIS: error= 2.60D-08 at cycle   7 NSaved=   7.
 NSaved= 7 IEnMin= 6 EnMin= -228.741357269637     IErMin= 7 ErrMin= 2.60D-08
 ErrMax= 2.60D-08  0.00D+00 EMaxC= 1.00D-01 BMatC= 2.79D-14 BMatP= 2.51D-13
 IDIUse=1 WtCom= 1.00D+00 WtEn= 0.00D+00
 Coeff-Com:  0.295D-04-0.414D-02 0.899D-03 0.155D-01 0.122D+00 0.345D+00
 Coeff-Com:  0.521D+00
 Coeff:      0.295D-04-0.414D-02 0.899D-03 0.155D-01 0.122D+00 0.345D+00
 Coeff:      0.521D+00
 Gap=     0.253 Goal=   None    Shift=    0.000
 RMSDP=3.08D-09 MaxDP=3.14D-08 DE= 1.99D-12 OVMax= 7.26D-08

 SCF Done:  E(RB3LYP) =  -228.741357270     A.U. after   15 cycles
            NFock= 15  Conv=0.31D-08     -V/T= 2.0078
 KE= 2.269640574841D+02 PE=-8.537261873066D+02 EE= 2.374581659240D+02
 Leave Link  502 at Tue Dec 15 16:16:29 2015, MaxMem=    33554432 cpu:         4.1
 (Enter /home/Applications/g09/g09/l801.exe)
 DoSCS=F DFT=T ScalE2(SS,OS)=  1.000000  1.000000
 ExpMin= 1.83D-01 ExpMax= 3.22D+02 ExpMxC= 3.22D+02 IAcc=3 IRadAn=         5 AccDes= 0.00D+00
 HarFok:  IExCor=  205 AccDes= 0.00D+00 IRadAn=         5 IDoV=-2 UseB2=F ITyADJ=14
 ICtDFT= 12500011 ScaDFX=  1.000000  1.000000  1.000000  1.000000
 Largest valence mixing into a core orbital is  1.73D-04
 Largest core mixing into a valence orbital is  4.71D-05
 Range of M.O.s used for correlation:     6    53
 NBasis=    53 NAE=    18 NBE=    18 NFC=     5 NFV=     0
 NROrb=     48 NOA=    13 NOB=    13 NVA=    35 NVB=    35
 Leave Link  801 at Tue Dec 15 16:16:29 2015, MaxMem=    33554432 cpu:         0.3
 (Enter /home/Applications/g09/g09/l914.exe)
 RHF ground state
 MDV=    33554432 DFT=T DoStab=F Mixed=T DoRPA=F DoScal=F NonHer=F
 Keep R1, R2, and R3 ints in memory in canonical form, NReq=5596273.
 FoFCou: FMM=F IPFlag=           0 FMFlag=           0 FMFlg1=           0
         NFxFlg=           0 DoJE=F BraDBF=F KetDBF=F FulRan=T
         wScrn=  0.000000 ICntrl=     600 IOpCl=  0 I1Cent=           0 NGrid=           0
         NMat0=    1 NMatS0=   1431 NMatT0=    0 NMatD0=    1 NMtDS0=    0 NMtDT0=    0
 Symmetry not used in FoFCou.
 Making orbital integer symmetry assigments:
 Orbital symmetries:
       Occupied  (A) (A) (A) (A) (A) (A) (A) (A) (A) (A) (A) (A)
                 (A) (A) (A) (A) (A) (A)
       Virtual   (A) (A) (A) (A) (A) (A) (A) (A) (A) (A) (A) (A)
                 (A) (A) (A) (A) (A) (A) (A) (A) (A) (A) (A) (A)
                 (A) (A) (A) (A) (A) (A) (A) (A) (A) (A) (A)
    60 initial guesses have been made.
 Convergence on wavefunction:    0.000001000000000
 Davidson Disk Diagonalization:  ConvIn= 1.00D-06 SkipCon=T Conv= 1.00D-06.
 Max sub-space:   240 roots to seek:    60 dimension of matrix:          910
 Iteration     1 Dimension    60 NMult     0 NNew     60
 CISAX will form    60 AO SS matrices at one time.
 NMat=    60 NSing=    60 JSym2X= 0.
 New state      1 was old state      3
 New state      2 was old state      1
 New state      3 was old state      5
 New state      4 was old state      6
 New state      5 was old state      7
 New state      6 was old state      4
 New state      7 was old state      9
 New state      9 was old state     12
 New state     12 was old state     13
 New state     13 was old state     15
 New state     14 was old state      2
 New state     15 was old state     18
 Excitation Energies [eV] at current iteration:
 Root      1 :     7.174863063429196
 Root      2 :     8.109208498008066
 Root      3 :     8.709373347767638
 Root      4 :     9.110454999491951
 Root      5 :     9.479493471553486
 Root      6 :     9.692306013638701
 Root      7 :     9.803997313566638
 Root      8 :     9.972873255513141
 Root      9 :    10.136317650891270
 Root     10 :    10.245465034507630
 Root     11 :    10.481148082749570
 Root     12 :    10.679077870550950
 Root     13 :    10.804313596246490
 Root     14 :    10.848301029426990
 Root     15 :    10.975318379523510
 Root     16 :    11.071736397559420
 Root     17 :    11.092158148800390
 Root     18 :    11.233085958397160
 Root     19 :    11.655699777906650
 Root     20 :    11.766682963906240
 Root     21 :    11.943372779798460
 Root     22 :    11.995274684507460
 Root     23 :    12.294907516963910
 Root     24 :    12.319620600897700
 Root     25 :    12.865361144990680
 Root     26 :    13.302994294701180
 Root     27 :    13.412396763373590
 Root     28 :    13.663335602177620
 Root     29 :    13.798639174512810
 Root     30 :    14.020896109017460
 Root     31 :    14.138351597713920
 Root     32 :    14.233751738601700
 Root     33 :    14.499434733643290
 Root     34 :    14.633411442119810
 Root     35 :    14.645579923240390
 Root     36 :    14.781247493160850
 Root     37 :    14.894489671838060
 Root     38 :    14.924603889061690
 Root     39 :    15.021852284445230
 Root     40 :    15.061290491800240
 Root     41 :    15.131339149553830
 Root     42 :    15.240952625711020
 Root     43 :    15.390424264645500
 Root     44 :    15.579430397988890
 Root     45 :    15.591236883989780
 Root     46 :    15.668082920558390
 Root     47 :    15.814071550038810
 Root     48 :    15.842382079424780
 Root     49 :    15.944326965173030
 Root     50 :    15.995426799332100
 Root     51 :    16.065429326787860
 Root     52 :    16.077556974961030
 Root     53 :    16.214646977084840
 Root     54 :    16.585875528461960
 Root     55 :    16.636985225172270
 Root     56 :    16.659694567385860
 Root     57 :    17.156252825533180
 Root     58 :    17.446496202310470
 Root     59 :    17.827045562521060
 Root     60 :    18.043416340873270
 Iteration     2 Dimension   120 NMult    60 NNew     60
 CISAX will form    60 AO SS matrices at one time.
 NMat=    60 NSing=    60 JSym2X= 0.
 Root      1 not converged, maximum delta is    0.069793216631338
 Root      2 not converged, maximum delta is    0.063528653353851
 Root      3 not converged, maximum delta is    0.014603975097546
 Root      4 not converged, maximum delta is    0.271313672435798
 New state      5 was old state      6
 Root      5 not converged, maximum delta is    0.290595386668546
 New state      6 was old state      5
 Root      6 not converged, maximum delta is    0.038227904106409
 New state      7 was old state     14
 Root      7 not converged, maximum delta is    0.205967707466368
 New state      8 was old state      7
 Root      8 not converged, maximum delta is    0.014165490400660
 New state      9 was old state      8
 Root      9 not converged, maximum delta is    0.092920963106008
 New state     10 was old state      9
 Root     10 not converged, maximum delta is    0.024680870526403
 New state     11 was old state     10
 Root     11 not converged, maximum delta is    0.033734722572917
 New state     12 was old state     11
 Root     12 not converged, maximum delta is    0.009532772498596
 New state     13 was old state     12
 Root     13 not converged, maximum delta is    0.024573147003416
 New state     14 was old state     13
 Root     14 not converged, maximum delta is    0.133543829095336
 Root     15 not converged, maximum delta is    0.087136894096120
 Excitation Energies [eV] at current iteration:
 Root      1 :     7.035294027133845   Change is   -0.139569036295352
 Root      2 :     7.316961583379055   Change is   -0.792246914629010
 Root      3 :     8.682749879327778   Change is   -0.026623468439861
 Root      4 :     9.080347962530659   Change is   -0.030107036961291
 Root      5 :     9.147243891914844   Change is   -0.545062121723857
 Root      6 :     9.458763409321888   Change is   -0.020730062231598
 Root      7 :     9.636403016773398   Change is   -1.211898012653589
 Root      8 :     9.792695608067278   Change is   -0.011301705499360
 Root      9 :     9.954047743014335   Change is   -0.018825512498806
 Root     10 :    10.123860992274470   Change is   -0.012456658616797
 Root     11 :    10.215143010512320   Change is   -0.030322023995315
 Root     12 :    10.471347060989100   Change is   -0.009801021760474
 Root     13 :    10.668133032535160   Change is   -0.010944838015785
 Root     14 :    10.796978681620110   Change is   -0.007334914626381
 Root     15 :    10.946501350233610   Change is   -0.028817029289896
 Root     16 :    11.043643393206390   Change is   -0.028093004353030
 Root     17 :    11.072002641848030   Change is   -0.020155506952362
 Root     18 :    11.213929980841520   Change is   -0.019155977555641
 Root     19 :    11.625712955446090   Change is   -0.029986822460563
 Root     20 :    11.737122710315150   Change is   -0.029560253591085
 Root     21 :    11.913093121464560   Change is   -0.030279658333897
 Root     22 :    11.963154245753770   Change is   -0.032120438753696
 Root     23 :    12.057832329611560   Change is   -0.237075187352350
 Root     24 :    12.287822492769840   Change is   -0.031798108127863
 Root     25 :    12.791320687616390   Change is   -0.074040457374294
 Root     26 :    13.050751807446470   Change is   -0.747887367066335
 Root     27 :    13.146169542205950   Change is   -0.266227221167648
 Root     28 :    13.277008468860380   Change is   -0.025985825840800
 Root     29 :    13.489834733976150   Change is   -0.173500868201467
 Root     30 :    13.884765402587950   Change is   -0.136130706429506
 Root     31 :    14.003119116606100   Change is   -0.496315617037187
 Root     32 :    14.097563328090610   Change is   -0.040788269623311
 Root     33 :    14.175016338591020   Change is   -0.058735400010671
 Root     34 :    14.392425581693520   Change is   -0.253154341546875
 Root     35 :    14.592751718976470   Change is   -0.040659723143336
 Root     36 :    14.714749187027160   Change is   -0.066498306133699
 Root     37 :    14.733956141290370   Change is   -0.160533530547688
 Root     38 :    14.817215463409860   Change is   -0.204636821035368
 Root     39 :    14.866603489120790   Change is   -0.058000399940903
 Root     40 :    15.006372304031060   Change is   -0.054918187769185
 Root     41 :    15.111643178329220   Change is   -0.019695971224613
 Root     42 :    15.159710582396410   Change is   -0.081242043314616
 Root     43 :    15.358563033557050   Change is   -0.031861231088447
 Root     44 :    15.485060338808320   Change is   -0.094370059180573
 Root     45 :    15.531052668342070   Change is   -0.413274296830954
 Root     46 :    15.555589298196230   Change is   -0.035647585793546
 Root     47 :    15.562069953639740   Change is   -0.106012966918650
 Root     48 :    15.675112685157750   Change is   -0.320314114174347
 Root     49 :    15.772723347742300   Change is   -0.041348202296504
 Root     50 :    15.833639827358600   Change is   -0.231789499429257
 Root     51 :    15.854830432566160   Change is    0.012448353141372
 Root     52 :    15.870539760065850   Change is   -0.207017214895172
 Root     53 :    16.043329674031270   Change is   -0.171317303053564
 Root     54 :    16.358969511997050   Change is   -0.278015713175226
 Root     55 :    16.392872779506300   Change is   -0.193002748955657
 Root     56 :    16.498788469878490   Change is   -0.657464355654693
 Root     57 :    16.617279759711020   Change is   -0.042414807674835
 Root     58 :    16.701477730822270   Change is   -0.745018471488199
 Root     59 :    16.777062870798040
 Root     60 :    16.945056689818840   Change is   -1.098359651054428
 Iteration     3 Dimension   135 NMult   120 NNew     15
 CISAX will form    15 AO SS matrices at one time.
 NMat=    15 NSing=    15 JSym2X= 0.
 Root      1 not converged, maximum delta is    0.001394412747135
 Root      2 not converged, maximum delta is    0.002562967552023
 Root      3 not converged, maximum delta is    0.000182679851796
 Root      4 not converged, maximum delta is    0.007233764782354
 Root      5 not converged, maximum delta is    0.007834935556448
 Root      6 not converged, maximum delta is    0.001127087652075
 Root      7 not converged, maximum delta is    0.003794009916288
 Root      8 not converged, maximum delta is    0.000156829025444
 Root      9 not converged, maximum delta is    0.000736270993175
 Root     10 not converged, maximum delta is    0.000217044077011
 Root     11 not converged, maximum delta is    0.000377127611191
 Root     12 not converged, maximum delta is    0.000164008359964
 Root     13 not converged, maximum delta is    0.000235143614551
 Root     14 not converged, maximum delta is    0.000304915554910
 Root     15 not converged, maximum delta is    0.000230463378319
 Excitation Energies [eV] at current iteration:
 Root      1 :     7.034408845126027   Change is   -0.000885182007818
 Root      2 :     7.315067370073526   Change is   -0.001894213305529
 Root      3 :     8.682728592800567   Change is   -0.000021286527210
 Root      4 :     9.079604289636332   Change is   -0.000743672894328
 Root      5 :     9.145782657311740   Change is   -0.001461234603105
 Root      6 :     9.458708640274139   Change is   -0.000054769047748
 Root      7 :     9.630680653012442   Change is   -0.005722363760957
 Root      8 :     9.792684298669732   Change is   -0.000011309397547
 Root      9 :     9.953965623899757   Change is   -0.000082119114580
 Root     10 :    10.123841221863310   Change is   -0.000019770411163
 Root     11 :    10.215077766528870   Change is   -0.000065243983453
 Root     12 :    10.471334900882110   Change is   -0.000012160106986
 Root     13 :    10.668115037351660   Change is   -0.000017995183504
 Root     14 :    10.796960487914630   Change is   -0.000018193705477
 Root     15 :    10.946478702332770   Change is   -0.000022647900837
 Iteration     4 Dimension   150 NMult   135 NNew     15
 CISAX will form    15 AO SS matrices at one time.
 NMat=    15 NSing=    15 JSym2X= 0.
 Root      1 not converged, maximum delta is    0.000038530946910
 Root      2 not converged, maximum delta is    0.000062818569056
 Root      3 not converged, maximum delta is    0.000003384535109
 Root      4 not converged, maximum delta is    0.000036210713857
 Root      5 not converged, maximum delta is    0.000058491123197
 Root      6 not converged, maximum delta is    0.000010767383966
 Root      7 not converged, maximum delta is    0.000140447305257
 Root      8 not converged, maximum delta is    0.000003224196529
 Root      9 not converged, maximum delta is    0.000013757436849
 Root     10 not converged, maximum delta is    0.000006459297635
 Root     11 not converged, maximum delta is    0.000008466695761
 Root     12 not converged, maximum delta is    0.000002936810253
 Root     13 not converged, maximum delta is    0.000004936854952
 Root     14 not converged, maximum delta is    0.000007595660925
 Root     15 not converged, maximum delta is    0.000007818343140
 Excitation Energies [eV] at current iteration:
 Root      1 :     7.034407793657419   Change is   -0.000001051468608
 Root      2 :     7.315065158690948   Change is   -0.000002211382578
 Root      3 :     8.682728585013056   Change is   -0.000000007787512
 Root      4 :     9.079603069118500   Change is   -0.000001220517833
 Root      5 :     9.145780405731632   Change is   -0.000002251580107
 Root      6 :     9.458708562740204   Change is   -0.000000077533936
 Root      7 :     9.630670849127892   Change is   -0.000009803884550
 Root      8 :     9.792684292813560   Change is   -0.000000005856171
 Root      9 :     9.953965521818692   Change is   -0.000000102081066
 Root     10 :    10.123841191722510   Change is   -0.000000030140806
 Root     11 :    10.215077716152680   Change is   -0.000000050376187
 Root     12 :    10.471334894602280   Change is   -0.000000006279834
 Root     13 :    10.668115025868950   Change is   -0.000000011482710
 Root     14 :    10.796960469787400   Change is   -0.000000018127234
 Root     15 :    10.946478673304460   Change is   -0.000000029028314
 Iteration     5 Dimension   165 NMult   150 NNew     15
 CISAX will form    15 AO SS matrices at one time.
 NMat=    15 NSing=    15 JSym2X= 0.
 Root      1 not converged, maximum delta is    0.000001436649561
 Root      2 not converged, maximum delta is    0.000002751811350
 Root      3 has converged.
 Root      4 not converged, maximum delta is    0.000001451992535
 Root      5 not converged, maximum delta is    0.000002537752353
 Root      6 has converged.
 Root      7 not converged, maximum delta is    0.000004616483132
 Root      8 has converged.
 Root      9 has converged.
 Root     10 has converged.
 Root     11 has converged.
 Root     12 has converged.
 Root     13 has converged.
 Root     14 has converged.
 Root     15 has converged.
 Excitation Energies [eV] at current iteration:
 Root      1 :     7.034407792702111   Change is   -0.000000000955308
 Root      2 :     7.315065156631471   Change is   -0.000000002059477
 Root      3 :     8.682728585010022   Change is   -0.000000000003035
 Root      4 :     9.079603068029572   Change is   -0.000000001088928
 Root      5 :     9.145780403442663   Change is   -0.000000002288970
 Root      6 :     9.458708562679165   Change is   -0.000000000061039
 Root      7 :     9.630670840685532   Change is   -0.000000008442360
 Root      8 :     9.792684292809508   Change is   -0.000000000004053
 Root      9 :     9.953965521725411   Change is   -0.000000000093280
 Root     10 :    10.123841191691720   Change is   -0.000000000030783
 Root     11 :    10.215077716104090   Change is   -0.000000000048585
 Root     12 :    10.471334894597130   Change is   -0.000000000005148
 Root     13 :    10.668115025853840   Change is   -0.000000000015110
 Root     14 :    10.796960469769350   Change is   -0.000000000018045
 Root     15 :    10.946478673275390   Change is   -0.000000000029066
 Iteration     6 Dimension   170 NMult   165 NNew      5
 CISAX will form     5 AO SS matrices at one time.
 NMat=     5 NSing=     5 JSym2X= 0.
 Root      1 has converged.
 Root      2 has converged.
 Root      3 has converged.
 Root      4 has converged.
 Root      5 has converged.
 Root      6 has converged.
 Root      7 not converged, maximum delta is    0.000001005693314
 Root      8 has converged.
 Root      9 has converged.
 Root     10 has converged.
 Root     11 has converged.
 Root     12 has converged.
 Root     13 has converged.
 Root     14 has converged.
 Root     15 has converged.
 Excitation Energies [eV] at current iteration:
 Root      1 :     7.034407792701550   Change is   -0.000000000000560
 Root      2 :     7.315065156630449   Change is   -0.000000000001023
 Root      3 :     8.682728585009995   Change is   -0.000000000000027
 Root      4 :     9.079603068028554   Change is   -0.000000000001017
 Root      5 :     9.145780403440479   Change is   -0.000000000002183
 Root      6 :     9.458708562679126   Change is   -0.000000000000038
 Root      7 :     9.630670840678155   Change is   -0.000000000007376
 Root      8 :     9.792684292809502   Change is   -0.000000000000005
 Root      9 :     9.953965521725337   Change is   -0.000000000000074
 Root     10 :    10.123841191691690   Change is   -0.000000000000035
 Root     11 :    10.215077716104040   Change is   -0.000000000000051
 Root     12 :    10.471334894597150   Change is    0.000000000000012
 Root     13 :    10.668115025853830   Change is   -0.000000000000008
 Root     14 :    10.796960469769340   Change is   -0.000000000000012
 Root     15 :    10.946478673275380   Change is   -0.000000000000011
 Convergence achieved on expansion vectors.
 ***********************************************************************
 Excited states from <AA,BB:AA,BB> singles matrix:
 ***********************************************************************
 
 1PDM for each excited state written to RWF  633
 Ground to excited state transition densities written to RWF  633
 Ground to excited state transition electric dipole moments (Au):
       state          X           Y           Z        Dip. S.      Osc.
         1         0.1748     -0.0238      0.0029      0.0311      0.0054
         2        -1.1006     -0.1186     -0.0298      1.2263      0.2198
         3         0.0078     -0.0074     -0.1376      0.0190      0.0041
         4        -0.3234     -0.4572      0.0299      0.3145      0.0700
         5        -0.6312     -0.3916      0.0338      0.5529      0.1239
         6         0.0380     -0.1215     -0.0050      0.0162      0.0038
         7        -0.4312      1.4328      0.0112      2.2390      0.5283
         8        -0.0038     -0.0015      0.0852      0.0073      0.0017
         9        -0.0009      0.1341     -0.0447      0.0200      0.0049
        10        -0.0053      0.0453      0.0377      0.0035      0.0009
        11        -0.0761      0.0240     -0.0269      0.0071      0.0018
        12        -0.0096     -0.0060     -0.0631      0.0041      0.0011
        13         0.0535      0.0125      0.0177      0.0033      0.0009
        14        -0.0034      0.0101      0.0171      0.0004      0.0001
        15        -0.0026      0.0687      0.0272      0.0055      0.0015
 Ground to excited state transition velocity dipole moments (Au):
       state          X           Y           Z        Dip. S.      Osc.
         1         0.0086     -0.0476      0.0006      0.0023      0.0060
         2         0.0026     -0.0010      0.0000      0.0000      0.0000
         3        -0.0011      0.0001      0.0772      0.0060      0.0124
         4         0.0345      0.0093      0.0046      0.0013      0.0026
         5         0.0592      0.0183     -0.0054      0.0039      0.0077
         6        -0.0003      0.0031     -0.0054      0.0000      0.0001
         7         0.0138     -0.0339     -0.0013      0.0013      0.0025
         8        -0.0002     -0.0002     -0.0333      0.0011      0.0021
         9        -0.0051     -0.0060      0.0194      0.0004      0.0008
        10        -0.0007     -0.0014     -0.0201      0.0004      0.0007
        11         0.0081      0.0001      0.0056      0.0001      0.0002
        12         0.0008      0.0004     -0.0576      0.0033      0.0057
        13        -0.0090     -0.0024     -0.0240      0.0007      0.0011
        14        -0.0001      0.0021     -0.0042      0.0000      0.0000
        15        -0.0003     -0.0112     -0.0125      0.0003      0.0005
 Ground to excited state transition magnetic dipole moments (Au):
       state          X           Y           Z
         1        -0.0063      0.0038      0.0656
         2        -0.0029     -0.0059     -0.4375
         3        -1.5907     -0.2932     -0.0092
         4         0.1223     -0.4759      0.1191
         5        -0.0889      0.2923      0.2681
         6        -0.0148      0.0222     -0.0079
         7         0.0008     -0.0949      0.1422
         8         0.0316     -0.0266      0.0119
         9         0.2063     -0.0875     -0.0264
        10         0.1081     -0.6415      0.0068
        11        -0.2621     -0.0712      0.0182
        12         0.0550      0.0059     -0.0045
        13        -0.0802     -0.1036     -0.0024
        14        -0.0112     -0.1630      0.0062
        15        -0.5966      1.4282     -0.0036
 Ground to excited state transition velocity quadrupole moments (Au):
       state          XX          YY          ZZ          XY          XZ          YZ
         1        -0.0367     -0.0106      0.0232      0.0200     -0.0004     -0.0010
         2         0.0597     -0.0927      0.0046     -0.1966     -0.0016      0.0015
         3        -0.0027      0.0006      0.0012     -0.0003      0.0219     -0.1837
         4        -0.1162      0.1115      0.0126      0.0987      0.0150      0.0144
         5        -0.1351      0.1457      0.0035      0.2241     -0.0066     -0.0143
         6        -0.0148      0.0072      0.0029     -0.0223      0.1956      0.0519
         7         0.2362     -0.1666     -0.0477      0.1929      0.0244      0.0147
         8         0.0066     -0.0071      0.0010     -0.0126     -0.0436      0.0426
         9         0.0304     -0.0293     -0.0058     -0.0106      0.0441     -0.0585
        10        -0.0024      0.0002      0.0001      0.0086      0.0127      0.0134
        11        -0.0022      0.0067     -0.0037      0.0314      0.0265     -0.1586
        12        -0.0055      0.0038     -0.0003      0.0047      0.0135      0.0130
        13        -0.0031     -0.0009     -0.0032     -0.0173     -0.0213     -0.0836
        14         0.0022     -0.0012     -0.0039      0.0115     -0.0497      0.0143
        15         0.0126     -0.0268     -0.0010      0.0039     -0.1242     -0.0598
 <0|del|b> * <b|rxdel|0> + <0|del|b> * <b|delr+rdel|0>
 Rotatory Strengths (R) in cgs (10**-40 erg-esu-cm/Gauss)
       state          XX          YY          ZZ    R(velocity)    E-M Angle
         1        -0.2038     -0.0475     -0.2873     -0.1795       93.54
         2        -0.0074     -0.0098     -0.0059     -0.0077       90.00
         3        -0.8416      1.4952      1.7605      0.8047       89.50
         4        -3.7623      5.0949     -0.5940      0.2462       88.90
         5         2.9870     -6.6744      0.8558     -0.9439       93.05
         6        -0.3774     -0.0884      0.6999      0.0780       48.18
         7         3.5986      0.2809      2.1980      2.0258       60.96
         8         0.0189     -0.8147      0.0139     -0.2607      106.13
         9         0.0733     -1.0284     -1.0578     -0.6710      102.72
        10         0.5779     -0.0523      0.7710      0.4322       87.02
        11         0.2542     -3.2918     -0.7952     -1.2776      139.34
        12        -0.0160      0.5404      0.0387      0.1877       84.50
        13         0.6099      1.0104      0.2475      0.6226       72.16
        14        -0.2794      0.0198     -0.3987     -0.2194      118.69
        15       -15.3329      0.2533    -12.7367     -9.2721      127.40
 1/2[<0|r|b>*<b|rxdel|0> + (<0|rxdel|b>*<b|r|0>)*]
 Rotatory Strengths (R) in cgs (10**-40 erg-esu-cm/Gauss)
       state          XX          YY          ZZ     R(length)
         1         0.7735      0.0647     -0.1329      0.2351
         2        -2.2768     -0.4934     -9.2087     -3.9930
         3         8.7533     -1.5317     -0.8927      2.1096
         4        27.9731   -153.8893     -2.5217    -42.8127
         5       -39.6707     80.9541     -6.4043     11.6264
         6         0.3977      1.9101     -0.0280      0.7600
         7         0.2291     96.1812     -1.1262     31.7614
         8         0.0855     -0.0287     -0.7164     -0.2199
         9         0.1346      8.2972     -0.8332      2.5329
        10         0.4040     20.5702     -0.1814      6.9309
        11       -14.1079      1.2096      0.3457     -4.1842
        12         0.3727      0.0249     -0.2002      0.0658
        13         3.0339      0.9174      0.0306      1.3273
        14        -0.0267      1.1621     -0.0748      0.3535
        15        -1.0768    -69.4256      0.0695    -23.4777
  1/2[<0|del|b>*<b|r|0> + (<0|r|b>*<b|del|0>)*] (Au)
       state          X           Y           Z        Dip. S.   Osc.(frdel)
         1         0.0015      0.0011      0.0000     -0.0026     -0.0018
         2        -0.0029      0.0001      0.0000      0.0028      0.0019
         3         0.0000      0.0000     -0.0106      0.0106      0.0071
         4        -0.0111     -0.0042      0.0001      0.0153      0.0102
         5        -0.0374     -0.0072     -0.0002      0.0447      0.0298
         6         0.0000     -0.0004      0.0000      0.0004      0.0002
         7        -0.0059     -0.0486      0.0000      0.0546      0.0364
         8         0.0000      0.0000     -0.0028      0.0028      0.0019
         9         0.0000     -0.0008     -0.0009      0.0017      0.0011
        10         0.0000     -0.0001     -0.0008      0.0008      0.0005
        11        -0.0006      0.0000     -0.0001      0.0008      0.0005
        12         0.0000      0.0000      0.0036     -0.0036     -0.0024
        13        -0.0005      0.0000     -0.0004      0.0009      0.0006
        14         0.0000      0.0000     -0.0001      0.0001      0.0000
        15         0.0000     -0.0008     -0.0003      0.0011      0.0007

 Excitation energies and oscillator strengths:
 
 Excited State   1:      Singlet-A      7.0344 eV  176.25 nm  f=0.0054  <S**2>=0.000
      17 -> 19         0.49747
      18 -> 19        -0.12740
      18 -> 20         0.47703
 This state for optimization and/or second-order correction.
 Total Energy, E(CIS) =  -228.482847529    
 Copying the excited state density for this state as the 1-particle RhoCI density.
 
 Excited State   2:      Singlet-A      7.3151 eV  169.49 nm  f=0.2198  <S**2>=0.000
      17 -> 19         0.12292
      18 -> 19         0.67027
 
 Excited State   3:      Singlet-A      8.6827 eV  142.79 nm  f=0.0041  <S**2>=0.000
      16 -> 19         0.70235
 
 Excited State   4:      Singlet-A      9.0796 eV  136.55 nm  f=0.0700  <S**2>=0.000
      17 -> 19         0.14482
      17 -> 20         0.29462
      18 -> 20        -0.16585
      18 -> 21         0.54350
      18 -> 22        -0.22425
 
 Excited State   5:      Singlet-A      9.1458 eV  135.56 nm  f=0.1239  <S**2>=0.000
      17 -> 19         0.10776
      17 -> 20         0.55650
      18 -> 20        -0.12940
      18 -> 21        -0.33263
      18 -> 22         0.14728
 
 Excited State   6:      Singlet-A      9.4587 eV  131.08 nm  f=0.0038  <S**2>=0.000
      18 -> 21         0.26160
      18 -> 22         0.63747
 
 Excited State   7:      Singlet-A      9.6307 eV  128.74 nm  f=0.5283  <S**2>=0.000
      17 -> 19        -0.40432
      17 -> 20         0.25431
      18 -> 20         0.43408
      18 -> 21         0.12887
 
 Excited State   8:      Singlet-A      9.7927 eV  126.61 nm  f=0.0017  <S**2>=0.000
      15 -> 19         0.55707
      18 -> 23        -0.40716
 
 Excited State   9:      Singlet-A      9.9540 eV  124.56 nm  f=0.0049  <S**2>=0.000
      15 -> 19         0.40797
      16 -> 20         0.12923
      17 -> 21        -0.20229
      18 -> 23         0.50148
      18 -> 24        -0.11226
 
 Excited State  10:      Singlet-A     10.1238 eV  122.47 nm  f=0.0009  <S**2>=0.000
      14 -> 19         0.23743
      15 -> 19        -0.10575
      16 -> 20         0.63216
 
 Excited State  11:      Singlet-A     10.2151 eV  121.37 nm  f=0.0018  <S**2>=0.000
      17 -> 21         0.61022
      17 -> 22        -0.23860
      18 -> 23         0.22207
 
 Excited State  12:      Singlet-A     10.4713 eV  118.40 nm  f=0.0011  <S**2>=0.000
      17 -> 21         0.20223
      17 -> 22         0.65089
      18 -> 24         0.12632
 
 Excited State  13:      Singlet-A     10.6681 eV  116.22 nm  f=0.0009  <S**2>=0.000
      14 -> 19         0.11116
      17 -> 21        -0.15353
      17 -> 22        -0.10017
      18 -> 24         0.65030
      18 -> 26         0.12486
 
 Excited State  14:      Singlet-A     10.7970 eV  114.83 nm  f=0.0001  <S**2>=0.000
      14 -> 19         0.63000
      16 -> 20        -0.23061
      17 -> 23        -0.12334
      18 -> 24        -0.11871
 
 Excited State  15:      Singlet-A     10.9465 eV  113.26 nm  f=0.0015  <S**2>=0.000
      15 -> 20         0.68840
 SavETr:  write IOETrn=   770 NScale= 10 NData=  16 NLR=1 NState=   15 LETran=     280.
 The selected state is a singlet
 CISAX will form     1 AO SS matrices at one time.
 NMat=     1 NSing=     1 JSym2X= 0.
 CISAX will form     1 AO SS matrices at one time.
 NMat=     1 NSing=     1 JSym2X= 0.
 Leave Link  914 at Tue Dec 15 16:17:04 2015, MaxMem=    33554432 cpu:        34.4
 (Enter /home/Applications/g09/g09/l1002.exe)
 Minotr:  Closed shell wavefunction.
          Computing CIS/TD-HF/TD-KS derivatives.
          Using Z-Vector for PSCF gradient.
          Skipping F1 and S1 gradient terms here.
          IDoAtm=111111111
          Frozen-core window.
          Direct CPHF calculation.
          Differentiating once with respect to electric field.
                with respect to dipole field.
          Differentiating once with respect to nuclear coordinates.
          Requested convergence is 1.0D-10 RMS, and 1.0D-09 maximum.
          NewPWx=F KeepS1=T KeepF1=T KeepIn=T MapXYZ=F SortEE=F KeepMc=T.
          MDV=      33554290 using IRadAn=       0.
 Using stored XC quadrature information.
 Keep R1 ints in memory in canonical form, NReq=1898913.
 FoFCou: FMM=F IPFlag=           0 FMFlag=           0 FMFlg1=           0
         NFxFlg=           0 DoJE=F BraDBF=F KetDBF=F FulRan=T
         wScrn=  0.000000 ICntrl=     600 IOpCl=  0 I1Cent=           0 NGrid=           0
         NMat0=    1 NMatS0=   1431 NMatT0=    0 NMatD0=    1 NMtDS0=    0 NMtDT0=    0
 Symmetry not used in FoFCou.
          Solving linear equations separately, MaxMat=       0.
          There are     1 degrees of freedom in the 1st order CPHF.  IDoFFX=0 NUNeed=     1.
 LinEq1:  Iter=  0 NonCon=     1 RMS=1.70D-02 Max=2.17D-01 NDo=     1
 AX will form     1 AO Fock derivatives at one time.
 LinEq1:  Iter=  1 NonCon=     1 RMS=7.00D-03 Max=8.10D-02 NDo=     1
 LinEq1:  Iter=  2 NonCon=     1 RMS=5.04D-03 Max=6.30D-02 NDo=     1
 LinEq1:  Iter=  3 NonCon=     1 RMS=2.25D-03 Max=2.79D-02 NDo=     1
 LinEq1:  Iter=  4 NonCon=     1 RMS=1.55D-03 Max=1.67D-02 NDo=     1
 LinEq1:  Iter=  5 NonCon=     1 RMS=5.31D-04 Max=4.30D-03 NDo=     1
 LinEq1:  Iter=  6 NonCon=     1 RMS=1.75D-04 Max=1.17D-03 NDo=     1
 LinEq1:  Iter=  7 NonCon=     1 RMS=1.25D-04 Max=1.45D-03 NDo=     1
 LinEq1:  Iter=  8 NonCon=     1 RMS=3.07D-05 Max=1.67D-04 NDo=     1
 LinEq1:  Iter=  9 NonCon=     1 RMS=3.42D-06 Max=1.97D-05 NDo=     1
 LinEq1:  Iter= 10 NonCon=     1 RMS=3.49D-07 Max=2.40D-06 NDo=     1
 LinEq1:  Iter= 11 NonCon=     1 RMS=4.86D-08 Max=2.85D-07 NDo=     1
 LinEq1:  Iter= 12 NonCon=     1 RMS=6.19D-09 Max=3.86D-08 NDo=     1
 LinEq1:  Iter= 13 NonCon=     1 RMS=9.03D-10 Max=7.14D-09 NDo=     1
 LinEq1:  Iter= 14 NonCon=     1 RMS=1.07D-10 Max=5.98D-10 NDo=     1
 LinEq1:  Iter= 15 NonCon=     0 RMS=1.09D-11 Max=7.80D-11 NDo=     1
 Linear equations converged to 1.000D-10 1.000D-09 after    15 iterations.
 End of Minotr F.D. properties file   721 does not exist.
 End of Minotr F.D. properties file   722 does not exist.
 End of Minotr F.D. properties file   788 does not exist.
 Leave Link 1002 at Tue Dec 15 16:17:14 2015, MaxMem=    33554432 cpu:         9.8
 (Enter /home/Applications/g09/g09/l601.exe)
 Copying SCF densities to generalized density rwf, IOpCl= 0 IROHF=0.

 **********************************************************************

            Population analysis using the SCF density.

 **********************************************************************

 Orbital symmetries:
       Occupied  (A) (A) (A) (A) (A) (A) (A) (A) (A) (A) (A) (A)
                 (A) (A) (A) (A) (A) (A)
       Virtual   (A) (A) (A) (A) (A) (A) (A) (A) (A) (A) (A) (A)
                 (A) (A) (A) (A) (A) (A) (A) (A) (A) (A) (A) (A)
                 (A) (A) (A) (A) (A) (A) (A) (A) (A) (A) (A)
 The electronic state is 1-A.
 Alpha  occ. eigenvalues --  -19.11239 -10.17479 -10.17405 -10.12837 -10.12018
 Alpha  occ. eigenvalues --   -1.12734  -0.79384  -0.75325  -0.60760  -0.57752
 Alpha  occ. eigenvalues --   -0.54636  -0.46135  -0.44723  -0.42830  -0.39491
 Alpha  occ. eigenvalues --   -0.35690  -0.27105  -0.23193
 Alpha virt. eigenvalues --    0.02152   0.07136   0.15117   0.15654   0.18071
 Alpha virt. eigenvalues --    0.20117   0.21767   0.22591   0.35636   0.40373
 Alpha virt. eigenvalues --    0.46148   0.68670   0.69931   0.70191   0.73597
 Alpha virt. eigenvalues --    0.77128   0.78961   0.79394   0.80852   0.83850
 Alpha virt. eigenvalues --    0.93058   1.00575   1.02609   1.06956   1.17766
 Alpha virt. eigenvalues --    1.23881   1.31961   1.38092   1.50254   1.57222
 Alpha virt. eigenvalues --    1.63401   1.74239   1.96575   2.13640   3.19137
     Molecular Orbital Coefficients:
                           1         2         3         4         5
                           O         O         O         O         O
     Eigenvalues --   -19.11239 -10.17479 -10.17405 -10.12837 -10.12018
   1 1   C  1S          0.00014  -0.00916  -0.00407  -0.06572   0.98377
   2        2S          0.00063  -0.00495  -0.00184  -0.01080   0.10985
   3        2PX         0.00094   0.00061  -0.00013  -0.00077   0.00102
   4        2PY         0.00100   0.00247   0.00153   0.00048  -0.00096
   5        2PZ         0.00003   0.00000   0.00001  -0.00001  -0.00012
   6        3S         -0.00556   0.03807  -0.00362   0.03829  -0.09835
   7        3PX        -0.00767   0.00230  -0.00470   0.02198  -0.02098
   8        3PY         0.00662  -0.02151   0.00320  -0.00690   0.02258
   9        3PZ        -0.00022  -0.00010   0.00002  -0.00004   0.00052
  10 2   C  1S         -0.00044   0.92807   0.33127   0.00028   0.00968
  11        2S         -0.00067   0.10144   0.03274  -0.00040  -0.00362
  12        2PX         0.00206   0.00258  -0.00037   0.00006  -0.00045
  13        2PY        -0.00128   0.00044  -0.00067  -0.00097  -0.00223
  14        2PZ         0.00002   0.00006   0.00003   0.00002  -0.00002
  15        3S          0.01793  -0.07475  -0.00984  -0.01006   0.03995
  16        3PX         0.01660  -0.00897   0.01230  -0.00304   0.01171
  17        3PY         0.00368  -0.02133   0.00787  -0.00248   0.02230
  18        3PZ         0.00013  -0.00027  -0.00001  -0.00017   0.00013
  19 3   O  1S          0.98280   0.00015   0.00034   0.00007   0.00009
  20        2S          0.10801   0.00106   0.00224   0.00028   0.00038
  21        2PX        -0.00077  -0.00078   0.00012   0.00002   0.00000
  22        2PY         0.00420   0.00028   0.00084  -0.00010  -0.00010
  23        2PZ        -0.00001   0.00000   0.00000   0.00001  -0.00001
  24        3S         -0.06162  -0.00035  -0.00046  -0.00367  -0.00409
  25        3PX         0.00267   0.00182   0.00037  -0.00181   0.00253
  26        3PY        -0.01372  -0.00183  -0.00460  -0.00197  -0.00151
  27        3PZ         0.00003   0.00002  -0.00002  -0.00004   0.00003
  28 4   C  1S         -0.00041  -0.33226   0.92767   0.01213   0.00162
  29        2S         -0.00056  -0.03891   0.09923  -0.00281  -0.00051
  30        2PX        -0.00164   0.00195  -0.00150   0.00112   0.00046
  31        2PY        -0.00209  -0.00006  -0.00115  -0.00147  -0.00114
  32        2PZ        -0.00002   0.00002  -0.00011   0.00000  -0.00002
  33        3S          0.01690   0.03680  -0.06285   0.03620  -0.00565
  34        3PX        -0.01493  -0.02133   0.00489  -0.01966   0.00286
  35        3PY        -0.00267   0.01226  -0.00940   0.01557   0.00059
  36        3PZ         0.00001  -0.00001   0.00037   0.00001   0.00014
  37 5   C  1S          0.00014   0.00333  -0.01216   0.98385   0.06510
  38        2S          0.00056   0.00149  -0.00491   0.10960   0.00380
  39        2PX        -0.00127   0.00052  -0.00136  -0.00086   0.00034
  40        2PY         0.00057   0.00000   0.00197  -0.00165   0.00052
  41        2PZ        -0.00003   0.00000  -0.00001   0.00013   0.00003
  42        3S         -0.00441  -0.02525   0.02633  -0.09927   0.02687
  43        3PX         0.00263  -0.00253   0.00552   0.01248  -0.01610
  44        3PY         0.00748   0.01484  -0.01266   0.02854  -0.01111
  45        3PZ         0.00019  -0.00018   0.00006  -0.00063   0.00000
  46 6   H  1S         -0.00089  -0.00002  -0.00103  -0.00389  -0.00045
  47        2S         -0.00279  -0.00172   0.00146   0.00489   0.00482
  48 7   H  1S          0.00014   0.00299  -0.00388  -0.00016  -0.00013
  49        2S          0.00412   0.00486   0.01220   0.00647   0.00031
  50 8   H  1S          0.00047  -0.00389   0.00015   0.00003  -0.00028
  51        2S          0.00472   0.00647   0.01098   0.00036   0.00565
  52 9   H  1S         -0.00107  -0.00085  -0.00086   0.00006  -0.00508
  53        2S         -0.00408   0.00280  -0.00135   0.00474   0.00581
                           6         7         8         9        10
                           O         O         O         O         O
     Eigenvalues --    -1.12734  -0.79384  -0.75325  -0.60760  -0.57752
   1 1   C  1S         -0.02508  -0.15841   0.04380   0.10705   0.05433
   2        2S          0.02452   0.16883  -0.04800  -0.10901  -0.05315
   3        2PX         0.01405   0.05106   0.04768   0.13106  -0.07122
   4        2PY        -0.02862  -0.05269   0.06779   0.01608  -0.12524
   5        2PZ        -0.00032  -0.00285   0.00083   0.00444   0.00206
   6        3S          0.04418   0.32546  -0.07281  -0.36084  -0.18201
   7        3PX         0.03615   0.03148  -0.00820   0.02748  -0.04042
   8        3PY        -0.03407  -0.02786  -0.01412   0.03604  -0.03020
   9        3PZ         0.00067  -0.00195   0.00038   0.00288   0.00104
  10 2   C  1S         -0.07397  -0.07711   0.13495  -0.00451  -0.11012
  11        2S          0.08278   0.08891  -0.14428   0.00144   0.12134
  12        2PX         0.08767  -0.01361  -0.03108   0.10641  -0.13699
  13        2PY        -0.01441   0.12689   0.02378  -0.16784  -0.05491
  14        2PZ         0.00053   0.00043  -0.00121   0.00071   0.00080
  15        3S          0.05684   0.13201  -0.33556   0.05612   0.35108
  16        3PX        -0.04429   0.00130  -0.01399   0.05690  -0.07838
  17        3PY        -0.02346   0.04019  -0.03250  -0.03058  -0.01558
  18        3PZ        -0.00017   0.00044  -0.00078   0.00053   0.00056
  19 3   O  1S         -0.21213   0.08433   0.01587   0.00241   0.04815
  20        2S          0.19257  -0.08169  -0.01485  -0.00225  -0.04801
  21        2PX        -0.01814  -0.03178   0.21583  -0.24040  -0.03098
  22        2PY         0.11002   0.02125   0.04614  -0.02415  -0.03072
  23        2PZ        -0.00040   0.00001  -0.00018   0.00009  -0.00170
  24        3S          0.67931  -0.30600  -0.06091  -0.00724  -0.21087
  25        3PX        -0.02517  -0.02433   0.18064  -0.21044  -0.02708
  26        3PY         0.14104   0.00474   0.03494  -0.02096  -0.03265
  27        3PZ        -0.00047   0.00002   0.00003   0.00020  -0.00142
  28 4   C  1S         -0.07587  -0.03147  -0.15379   0.02294  -0.10319
  29        2S          0.08450   0.03890   0.16695  -0.02249   0.11451
  30        2PX        -0.07694  -0.02443  -0.02306  -0.03003   0.16988
  31        2PY        -0.04882   0.11291  -0.00362   0.21059   0.03581
  32        2PZ        -0.00032  -0.00042  -0.00225   0.00116  -0.00508
  33        3S          0.06140   0.03636   0.36386  -0.10851   0.31397
  34        3PX         0.04503  -0.01183  -0.03239   0.00019   0.08888
  35        3PY        -0.00696   0.02695   0.03415   0.06611   0.01918
  36        3PZ        -0.00047  -0.00032  -0.00151   0.00089  -0.00336
  37 5   C  1S         -0.02509  -0.13109  -0.08669  -0.11466   0.03203
  38        2S          0.02421   0.13952   0.09326   0.11733  -0.03173
  39        2PX        -0.00187  -0.05181   0.05620   0.08565   0.13400
  40        2PY        -0.03167  -0.05167  -0.05825   0.00174  -0.06094
  41        2PZ         0.00039   0.00242   0.00168   0.00462  -0.00194
  42        3S          0.04533   0.26884   0.17055   0.37577  -0.09717
  43        3PX        -0.01512  -0.01174  -0.01810   0.01871   0.05668
  44        3PY        -0.04193  -0.03248  -0.00042  -0.03996  -0.01658
  45        3PZ        -0.00047   0.00174   0.00114   0.00283  -0.00081
  46 6   H  1S          0.00710   0.05480   0.04385   0.10673  -0.02619
  47        2S          0.01502   0.01288   0.01063   0.06149  -0.01693
  48 7   H  1S          0.01591   0.00563   0.09932  -0.06122   0.17471
  49        2S         -0.02671   0.00096   0.03656  -0.03585   0.08253
  50 8   H  1S          0.01239   0.02929  -0.08150   0.00942   0.16687
  51        2S         -0.02782   0.00697  -0.03008   0.01659   0.08255
  52 9   H  1S          0.00843   0.07855  -0.02629  -0.13207  -0.06602
  53        2S          0.01938   0.01744  -0.00439  -0.06837  -0.04096
                          11        12        13        14        15
                           O         O         O         O         O
     Eigenvalues --    -0.54636  -0.46135  -0.44723  -0.42830  -0.39491
   1 1   C  1S         -0.03503  -0.04018  -0.00589  -0.00269   0.01956
   2        2S          0.03125   0.04369   0.00611   0.00561  -0.01758
   3        2PX        -0.09312  -0.00785   0.00307   0.17086  -0.29978
   4        2PY         0.21546   0.04023  -0.00972  -0.23241  -0.10909
   5        2PZ        -0.00314  -0.01453   0.10555   0.00078  -0.00191
   6        3S          0.16167   0.12872   0.02323   0.00691  -0.11296
   7        3PX        -0.06964  -0.00410   0.00913   0.12555  -0.18834
   8        3PY         0.10446   0.03431  -0.00776  -0.12460  -0.03456
   9        3PZ        -0.00341  -0.01023   0.07649   0.00003  -0.00122
  10 2   C  1S          0.02039   0.02893   0.00180  -0.03159  -0.01604
  11        2S         -0.02566  -0.02907  -0.00127   0.03809   0.02132
  12        2PX        -0.08690   0.26464   0.03281   0.04880   0.08488
  13        2PY        -0.15399   0.03616   0.01733   0.19510   0.15864
  14        2PZ        -0.00141  -0.02076   0.18892  -0.00876  -0.00308
  15        3S         -0.03539  -0.10454  -0.00983   0.10672   0.06851
  16        3PX        -0.05925   0.16280   0.01777   0.04491   0.05121
  17        3PY        -0.12809   0.03613   0.00872   0.10583   0.15681
  18        3PZ        -0.00018  -0.01879   0.17671  -0.00946  -0.00348
  19 3   O  1S         -0.05517   0.00408  -0.00015  -0.00836   0.00174
  20        2S          0.05447  -0.00397   0.00015   0.00948  -0.00620
  21        2PX        -0.00980  -0.26286  -0.02751   0.06370  -0.03257
  22        2PY        -0.18410  -0.03555  -0.00638  -0.05756   0.16690
  23        2PZ        -0.00062  -0.04296   0.38455  -0.02455  -0.00762
  24        3S          0.21379  -0.01740   0.00019   0.02578   0.02668
  25        3PX        -0.00967  -0.24880  -0.02613   0.06983  -0.03290
  26        3PY        -0.16794  -0.03257  -0.00616  -0.05712   0.17324
  27        3PZ        -0.00043  -0.04265   0.38754  -0.02495  -0.00801
  28 4   C  1S          0.01611  -0.02896  -0.00255   0.04542   0.00018
  29        2S         -0.02073   0.03021   0.00241  -0.05351   0.00073
  30        2PX         0.14937   0.24937   0.04013   0.16762  -0.04777
  31        2PY        -0.04188   0.05134  -0.00339  -0.19359   0.03401
  32        2PZ        -0.00050  -0.02638   0.18686  -0.01102  -0.00044
  33        3S         -0.02395   0.09506   0.00997  -0.16216   0.00931
  34        3PX         0.10705   0.15270   0.02060   0.12294  -0.03911
  35        3PY        -0.07046   0.02329  -0.00197  -0.14410   0.07174
  36        3PZ        -0.00147  -0.02246   0.17501  -0.01119  -0.00132
  37 5   C  1S         -0.05205   0.04282   0.00586  -0.01511   0.02199
  38        2S          0.04908  -0.04601  -0.00617   0.01138  -0.02291
  39        2PX         0.02307  -0.03199  -0.00372  -0.09049   0.31097
  40        2PY         0.20314  -0.05454   0.00821   0.24724   0.14525
  41        2PZ         0.00321  -0.01586   0.10187   0.00020   0.00358
  42        3S          0.21396  -0.14422  -0.02276   0.08497  -0.09972
  43        3PX         0.03365  -0.01627   0.00433  -0.01527   0.19517
  44        3PY         0.10998  -0.04772   0.00926   0.13445   0.11847
  45        3PZ         0.00384  -0.01143   0.07578   0.00027   0.00236
  46 6   H  1S          0.14177  -0.08671  -0.00045   0.14231   0.16588
  47        2S          0.07614  -0.05621  -0.00310   0.11932   0.15510
  48 7   H  1S          0.06374   0.18436   0.02672   0.09074  -0.04949
  49        2S          0.02096   0.13163   0.02335   0.07294  -0.03902
  50 8   H  1S          0.06075  -0.18370  -0.02597  -0.06435  -0.10526
  51        2S          0.02338  -0.13489  -0.02221  -0.05883  -0.09441
  52 9   H  1S          0.14641   0.07095  -0.00087  -0.19503   0.08543
  53        2S          0.07431   0.04178   0.00192  -0.15823   0.07475
                          16        17        18        19        20
                           O         O         O         V         V
     Eigenvalues --    -0.35690  -0.27105  -0.23193   0.02152   0.07136
   1 1   C  1S          0.02256   0.00355   0.00075   0.00159  -0.00394
   2        2S         -0.02198  -0.00440  -0.00069  -0.00165   0.00133
   3        2PX         0.05841   0.00167   0.00413   0.00019  -0.00858
   4        2PY         0.16965  -0.00574  -0.00066  -0.00375   0.00805
   5        2PZ         0.00058  -0.30879  -0.15786  -0.14685   0.34998
   6        3S         -0.15755  -0.00902  -0.00255  -0.00731   0.04071
   7        3PX         0.08282   0.00727   0.00295   0.00630  -0.01980
   8        3PY         0.12918  -0.00527  -0.00281  -0.01006   0.02916
   9        3PZ         0.00276  -0.32650  -0.16382  -0.25747   0.67775
  10 2   C  1S         -0.02133  -0.00151  -0.00121  -0.00029  -0.00190
  11        2S          0.02606   0.00192   0.00152   0.00093  -0.00026
  12        2PX         0.05699   0.00027   0.00165   0.00173  -0.00255
  13        2PY        -0.18481   0.00389   0.00034   0.00039  -0.00283
  14        2PZ         0.00049  -0.11126  -0.31326   0.30937  -0.23586
  15        3S          0.08421   0.00406   0.00305  -0.00391   0.03349
  16        3PX        -0.00196  -0.00173   0.00159   0.00313  -0.00380
  17        3PY        -0.00693   0.00209  -0.00219  -0.00255   0.00573
  18        3PZ         0.00041  -0.07362  -0.33911   0.46529  -0.44984
  19 3   O  1S          0.06749  -0.00008   0.00070   0.00049  -0.00089
  20        2S         -0.06732   0.00005  -0.00091  -0.00058   0.00054
  21        2PX        -0.06673   0.00106  -0.00104   0.00004  -0.00020
  22        2PY         0.40173   0.00221  -0.00298   0.00039   0.00598
  23        2PZ         0.00039   0.29778  -0.03445  -0.29019   0.01733
  24        3S         -0.25368   0.00073  -0.00301  -0.00213   0.00766
  25        3PX        -0.07315   0.00072  -0.00073   0.00136   0.00061
  26        3PY         0.43562   0.00242  -0.00253   0.00142   0.00879
  27        3PZ         0.00031   0.33937  -0.04050  -0.40719   0.02433
  28 4   C  1S         -0.01427   0.00139  -0.00242  -0.00222  -0.00175
  29        2S          0.02055  -0.00181   0.00296   0.00100  -0.00049
  30        2PX         0.01387   0.00142   0.00453   0.00669   0.00934
  31        2PY        -0.20959  -0.00383   0.00137  -0.00204  -0.00155
  32        2PZ         0.00056  -0.03422   0.33056   0.33345   0.19974
  33        3S          0.04045  -0.00376   0.00573   0.02394   0.03098
  34        3PX         0.00507  -0.00117   0.00801   0.01656   0.01899
  35        3PY        -0.02436  -0.00160  -0.00208  -0.00107   0.00370
  36        3PZ         0.00084  -0.00053   0.35168   0.50578   0.37581
  37 5   C  1S          0.02046  -0.00323   0.00255  -0.00244  -0.00428
  38        2S         -0.01994   0.00402  -0.00299   0.00163   0.00116
  39        2PX        -0.12100   0.00038  -0.00350  -0.00149   0.00691
  40        2PY         0.15660   0.00731  -0.00323   0.00716   0.01489
  41        2PZ         0.00261  -0.26600   0.22390  -0.19012  -0.32711
  42        3S         -0.13165   0.00709  -0.00701   0.01881   0.04788
  43        3PX        -0.12661   0.00512  -0.00243   0.00262   0.01351
  44        3PY         0.10058   0.00845  -0.00834   0.01627   0.03429
  45        3PZ         0.00015  -0.28073   0.24093  -0.32529  -0.62838
  46 6   H  1S          0.04939   0.00182   0.00045  -0.00556  -0.01395
  47        2S          0.07456   0.00221   0.00127  -0.01812  -0.05532
  48 7   H  1S          0.08403   0.00026  -0.00025  -0.00592  -0.00680
  49        2S          0.08295   0.00149  -0.00079  -0.01961  -0.03176
  50 8   H  1S          0.08728  -0.00013  -0.00050   0.00085  -0.00394
  51        2S          0.09138  -0.00123  -0.00080   0.00084  -0.02027
  52 9   H  1S          0.03086  -0.00113   0.00081   0.00224  -0.01231
  53        2S          0.05847  -0.00078   0.00047   0.00793  -0.04846
                          21        22        23        24        25
                           V         V         V         V         V
     Eigenvalues --     0.15117   0.15654   0.18071   0.20117   0.21767
   1 1   C  1S          0.02907  -0.02200   0.06508   0.08319   0.04987
   2        2S         -0.01228   0.02751  -0.05461  -0.06731  -0.00496
   3        2PX         0.09009   0.01083  -0.11934   0.06200  -0.12813
   4        2PY        -0.11715  -0.00350  -0.02607  -0.13807  -0.10822
   5        2PZ         0.01960  -0.00239   0.00396   0.00867   0.00204
   6        3S         -0.50696   0.04347  -0.51834  -0.96589  -0.93689
   7        3PX         0.27121  -0.15728  -0.22190   0.50597  -0.87564
   8        3PY        -0.36820   0.10544  -0.32873  -0.78063  -0.36288
   9        3PZ         0.05996  -0.00675   0.01170   0.02493   0.01405
  10 2   C  1S          0.03967   0.11746  -0.01642  -0.01320   0.08306
  11        2S         -0.02549  -0.08611   0.01521   0.03039  -0.06508
  12        2PX         0.16993  -0.03339  -0.19050   0.17589  -0.09969
  13        2PY         0.02919   0.19204  -0.06002   0.04474   0.09476
  14        2PZ        -0.00809  -0.00218  -0.00043  -0.00271  -0.00188
  15        3S         -0.63032  -1.16439   0.24058  -0.33985  -0.89898
  16        3PX         0.45677   0.17911  -0.72479   0.27014  -0.15825
  17        3PY         0.02239   0.69405  -0.27696   0.00009   0.29042
  18        3PZ        -0.02637  -0.00276  -0.00371  -0.01458  -0.00872
  19 3   O  1S          0.03849  -0.10457  -0.00538   0.03129  -0.00469
  20        2S         -0.02461   0.07360   0.00526  -0.01721   0.00114
  21        2PX         0.01620  -0.04669  -0.07951   0.04758  -0.29051
  22        2PY        -0.10338   0.14031  -0.00142  -0.02339  -0.05938
  23        2PZ        -0.00128  -0.00183  -0.00337   0.00246   0.00165
  24        3S         -0.34018   0.86936   0.03473  -0.30195   0.05429
  25        3PX         0.04297  -0.06779  -0.19442   0.02873  -0.58602
  26        3PY        -0.19822   0.22987  -0.02960  -0.07458  -0.09873
  27        3PZ        -0.00269  -0.00326  -0.00684   0.00661   0.00311
  28 4   C  1S          0.02578   0.08605   0.06622   0.01439  -0.10992
  29        2S         -0.01200  -0.06516  -0.04984  -0.02622   0.08211
  30        2PX        -0.13364   0.05543  -0.24283   0.07335   0.00907
  31        2PY        -0.03067   0.16086  -0.01146  -0.10030  -0.09976
  32        2PZ         0.01416   0.00424   0.01119  -0.00461  -0.00350
  33        3S         -0.51621  -0.79739  -0.91748   0.10194   1.35809
  34        3PX        -0.28066  -0.09512  -1.03870   0.02537   0.20689
  35        3PY        -0.12876   0.52928   0.04061  -0.36535  -0.24366
  36        3PZ         0.04293   0.01041   0.03121  -0.02001  -0.01506
  37 5   C  1S          0.06147  -0.02145  -0.08011  -0.10126  -0.02701
  38        2S         -0.03758   0.02074   0.06718   0.06803  -0.00758
  39        2PX        -0.02636  -0.00151  -0.08903   0.08717  -0.21511
  40        2PY        -0.19382   0.04388  -0.04933   0.14992   0.02134
  41        2PZ        -0.02544   0.00268  -0.00091   0.01332  -0.00254
  42        3S         -0.76256   0.15647   0.62531   1.24368   0.58303
  43        3PX        -0.12203   0.03089  -0.23865   0.38711  -1.14143
  44        3PY        -0.60904   0.22292   0.15566   0.75337  -0.07863
  45        3PZ        -0.07402   0.00794  -0.00578   0.03984   0.00209
  46 6   H  1S          0.09162  -0.04249   0.00323  -0.03093   0.04071
  47        2S          1.21579  -0.38855  -0.27239  -1.50032   0.36356
  48 7   H  1S          0.02735   0.05848   0.08073   0.00033   0.03844
  49        2S          0.59558   0.76797   1.66980  -0.24802  -0.97019
  50 8   H  1S          0.04163   0.08848  -0.05299  -0.00965  -0.03660
  51        2S          0.81235   1.30527  -0.99288   0.42801   0.45277
  52 9   H  1S          0.07280  -0.04132   0.00037   0.05604  -0.05535
  53        2S          0.94311  -0.28982   0.26814   1.55211  -0.02999
                          26        27        28        29        30
                           V         V         V         V         V
     Eigenvalues --     0.22591   0.35636   0.40373   0.46148   0.68670
   1 1   C  1S         -0.08752   0.06187   0.01998  -0.12966  -0.02931
   2        2S          0.04760  -0.01993   0.01698   0.02696  -0.09229
   3        2PX        -0.20204  -0.10213   0.16583   0.20626   0.41952
   4        2PY         0.02160   0.07957   0.20732  -0.17049   0.36957
   5        2PZ        -0.00908  -0.00438  -0.00262   0.00955   0.02377
   6        3S          1.50341  -1.03738  -0.89906   2.84676   0.01946
   7        3PX        -0.90384  -0.15385   0.76553   1.88232  -0.38140
   8        3PY         0.03619   1.23213   1.71294  -1.65324  -0.40954
   9        3PZ        -0.04108  -0.00695  -0.00248  -0.01187  -0.01634
  10 2   C  1S          0.04921  -0.07108  -0.03081   0.10372  -0.02822
  11        2S         -0.02981   0.00089   0.00725  -0.03010  -0.04463
  12        2PX         0.18417   0.11157  -0.08809  -0.27563   0.46862
  13        2PY        -0.08573   0.23560   0.16477   0.04873  -0.48212
  14        2PZ         0.00023  -0.00063   0.00126  -0.00068   0.04788
  15        3S         -0.83124   1.30524   1.19535  -2.01105  -0.16607
  16        3PX         0.75395   0.72426  -0.49074  -1.08920  -0.51030
  17        3PY        -0.41772   1.03716   1.71663  -1.55023   0.55922
  18        3PZ         0.00895   0.01209   0.01249  -0.01650  -0.04004
  19 3   O  1S          0.07565   0.05905  -0.00044   0.00007   0.02263
  20        2S         -0.03316  -0.02508   0.00221   0.00015  -0.07828
  21        2PX        -0.05158   0.02462  -0.24117  -0.22976   0.08584
  22        2PY        -0.04172  -0.15804  -0.05518  -0.02098  -0.14007
[...]
               1          2          3          4          5          6
     1  C    5.237144   0.451612  -0.073666  -0.114899   0.434858  -0.028241
     2  C    0.451612   5.057450   0.294359  -0.145046  -0.126641   0.004876
     3  O   -0.073666   0.294359   8.120494   0.283676  -0.077482   0.002147
     4  C   -0.114899  -0.145046   0.283676   5.041946   0.472537  -0.028678
     5  C    0.434858  -0.126641  -0.077482   0.472537   5.229233   0.380632
     6  H   -0.028241   0.004876   0.002147  -0.028678   0.380632   0.486419
     7  H    0.002305   0.003765  -0.030123   0.393091  -0.036510  -0.000232
     8  H   -0.044033   0.387642  -0.027184   0.003558   0.003134  -0.000030
     9  H    0.393140  -0.030537   0.002384   0.004457  -0.027422  -0.000814
               7          8          9
     1  C    0.002305  -0.044033   0.393140
     2  C    0.003765   0.387642  -0.030537
     3  O   -0.030123  -0.027184   0.002384
     4  C    0.393091   0.003558   0.004457
     5  C   -0.036510   0.003134  -0.027422
     6  H   -0.000232  -0.000030  -0.000814
     7  H    0.445740  -0.000045  -0.000022
     8  H   -0.000045   0.458244  -0.000448
     9  H   -0.000022  -0.000448   0.471096
 Mulliken charges:
               1
     1  C   -0.258219
     2  C    0.102520
     3  O   -0.494604
     4  C    0.089359
     5  C   -0.252339
     6  H    0.183922
     7  H    0.222032
     8  H    0.219163
     9  H    0.188166
 Sum of Mulliken charges =   0.00000
 Mulliken charges with hydrogens summed into heavy atoms:
               1
     1  C   -0.070052
     2  C    0.321683
     3  O   -0.494604
     4  C    0.311391
     5  C   -0.068417
 Electronic spatial extent (au):  <R**2>=            291.2882
 Charge=              0.0000 electrons
 Dipole moment (field-independent basis, Debye):
    X=             -0.1610    Y=              0.6072    Z=             -0.0183  Tot=              0.6284
 Quadrupole moment (field-independent basis, Debye-Ang):
   XX=            -23.5932   YY=            -27.8828   ZZ=            -31.7593
   XY=              0.6320   XZ=              0.0225   YZ=              0.0532
 Traceless Quadrupole moment (field-independent basis, Debye-Ang):
   XX=              4.1519   YY=             -0.1377   ZZ=             -4.0142
   XY=              0.6320   XZ=              0.0225   YZ=              0.0532
 Octapole moment (field-independent basis, Debye-Ang**2):
  XXX=              2.1203  YYY=              1.4636  ZZZ=             -0.0005  XYY=             -1.7990
  XXY=             -3.9477  XXZ=             -0.2111  XZZ=              0.5751  YZZ=             -3.4202
  YYZ=              0.1158  XYZ=              0.2376
 Hexadecapole moment (field-independent basis, Debye-Ang**3):
 XXXX=           -156.4774 YYYY=           -155.4202 ZZZZ=            -30.8973 XXXY=             -3.3447
 XXXZ=             -0.1315 YYYX=              3.5587 YYYZ=              0.3202 ZZZX=              0.0372
 ZZZY=              0.0211 XXYY=            -47.4819 XXZZ=            -39.1344 YYZZ=            -34.3623
 XXYZ=             -0.0070 YYXZ=              0.3187 ZZXY=             -0.9185
 N-N= 1.605626066288D+02 E-N=-8.537261876218D+02  KE= 2.269640574841D+02
 Orbital energies and kinetic energies (alpha):
                                 1                 2
   1         O               -19.112389         28.828891
   2         O               -10.174789         15.803417
   3         O               -10.174054         15.796200
   4         O               -10.128374         15.807943
   5         O               -10.120180         15.804363
   6         O                -1.127339          2.532163
   7         O                -0.793839          1.752725
   8         O                -0.753246          1.798616
   9         O                -0.607598          1.638929
  10         O                -0.577520          1.399838
  11         O                -0.546365          1.327228
  12         O                -0.461352          1.545776
  13         O                -0.447234          1.616338
  14         O                -0.428301          1.412032
  15         O                -0.394914          1.443247
  16         O                -0.356897          2.254132
  17         O                -0.271052          1.505731
  18         O                -0.231927          1.214459
  19         V                 0.021521          1.834570
  20         V                 0.071361          1.490508
  21         V                 0.151170          1.146350
  22         V                 0.156537          1.868169
  23         V                 0.180710          1.304199
  24         V                 0.201173          1.263949
  25         V                 0.217666          1.999431
  26         V                 0.225908          1.533186
  27         V                 0.356362          2.008217
  28         V                 0.403726          1.815814
  29         V                 0.461481          2.821222
  30         V                 0.686701          2.565612
  31         V                 0.699311          2.663185
  32         V                 0.701907          2.583928
  33         V                 0.735974          2.456123
  34         V                 0.771283          2.513640
  35         V                 0.789605          2.598077
  36         V                 0.793943          2.659781
  37         V                 0.808521          2.760821
  38         V                 0.838498          2.580835
  39         V                 0.930578          2.751026
  40         V                 1.005753          3.308401
  41         V                 1.026087          3.081002
  42         V                 1.069556          3.199378
  43         V                 1.177663          2.713880
  44         V                 1.238809          2.864032
  45         V                 1.319607          2.528819
  46         V                 1.380916          2.981597
  47         V                 1.502540          4.966293
  48         V                 1.572222          3.422266
  49         V                 1.634013          3.773286
  50         V                 1.742394          4.370268
  51         V                 1.965750          4.021970
  52         V                 2.136404          4.302747
  53         V                 3.191367          6.831188
 Total kinetic energy from orbitals= 2.269640574841D+02
 No NMR shielding tensors so no spin-rotation constants.
 Leave Link  601 at Tue Dec 15 16:17:14 2015, MaxMem=    33554432 cpu:         0.1
 (Enter /home/Applications/g09/g09/l701.exe)
 Compute integral first derivatives.
 ... and contract with generalized density number  6.
 Leave Link  701 at Tue Dec 15 16:17:14 2015, MaxMem=    33554432 cpu:         0.1
 (Enter /home/Applications/g09/g09/l702.exe)
 L702 exits ... SP integral derivatives will be done elsewhere.
 Leave Link  702 at Tue Dec 15 16:17:14 2015, MaxMem=    33554432 cpu:         0.0
 (Enter /home/Applications/g09/g09/l703.exe)
 Compute integral first derivatives, UseDBF=F ICtDFT=           0.
 Integral derivatives from FoFJK, PRISM(SPDF).
 Calling FoFJK, ICntrl=  10005127 FMM=F ISym2X=0 I1Cent= 0 IOpClX= 0 NMat=1 NMatS=1 NMatT=0.
 FoFJK:  IHMeth= 1 ICntrl=10005127 DoSepK=F KAlg= 0 I1Cent=   0 FoldK=F
 IRaf=         0 NMat=   1 IRICut=       1 DoRegI=T DoRafI=F ISym2E= 0.
 FoFCou: FMM=F IPFlag=           0 FMFlag=      100000 FMFlg1=         800
         NFxFlg=           0 DoJE=F BraDBF=F KetDBF=F FulRan=T
         wScrn=  0.000000 ICntrl=10005127 IOpCl=  0 I1Cent=           0 NGrid=           0
         NMat0=    1 NMatS0=      1 NMatT0=    0 NMatD0=    1 NMtDS0=    0 NMtDT0=    0
 Symmetry not used in FoFCou.
 Leave Link  703 at Tue Dec 15 16:17:16 2015, MaxMem=    33554432 cpu:         1.2
 (Enter /home/Applications/g09/g09/l716.exe)
 Dipole        = 1.55416074D-01 3.81903442D-01-1.06523642D-02
 ***** Axes restored to original set *****
 -------------------------------------------------------------------
 Center     Atomic                   Forces (Hartrees/Bohr)
 Number     Number              X              Y              Z
 -------------------------------------------------------------------
      1        6           0.023361054    0.050665776   -0.002904172
      2        6          -0.038163209   -0.063342180    0.000781082
      3        8          -0.064950257    0.006116874    0.000199464
      4        6           0.005802946    0.002464732   -0.000435186
      5        6           0.043038230    0.003766603   -0.001022811
      6        1           0.003907748    0.004315850   -0.000397583
      7        1          -0.019282582    0.042682546    0.001035399
      8        1          -0.008321442   -0.005812557   -0.000151670
      9        1           0.054607511   -0.040857644    0.002895476
 -------------------------------------------------------------------
 Cartesian Forces:  Max     0.064950257 RMS     0.028379329
 Z-matrix is all fixed cartesians, so copy forces.
 Force constants in Cartesian coordinates: 
                1             2             3             4             5 
      1  0.999249D+00
      2 -0.822125D-01  0.778631D+00
      3  0.439541D-02 -0.978652D-02  0.200267D+00
      4 -0.510830D+00 -0.952971D-01  0.704360D-02  0.933065D+00
      5 -0.753133D-01 -0.210483D+00  0.307129D-02  0.173815D-01  0.909610D+00
      6  0.868581D-02  0.291019D-02 -0.103322D+00 -0.676408D-02 -0.684984D-02
      7 -0.772241D-02  0.298163D-01 -0.328738D-03 -0.283149D+00  0.164251D+00
      8 -0.550171D-02  0.212477D-01 -0.197655D-03  0.208119D+00 -0.382212D+00
      9  0.497079D-03 -0.116723D-02  0.740701D-02 -0.156649D-02  0.332239D-02
     10  0.979150D-02 -0.473461D-04  0.179903D-03  0.253318D-01  0.180554D-01
     11  0.325817D-01 -0.157544D-03  0.630377D-03 -0.177554D-01 -0.126554D-01
     12  0.485812D-03 -0.709391D-04 -0.155194D-02  0.133242D-03  0.129759D-03
     13 -0.158363D+00  0.827477D-02  0.435955D-03  0.874470D-02 -0.338261D-01
     14 -0.105800D-01 -0.351397D+00 -0.335992D-02 -0.410320D-04  0.156958D-03
     15  0.955262D-03 -0.321086D-02 -0.678727D-01 -0.167537D-03  0.771099D-03
     16  0.164963D-01 -0.768568D-04 -0.364520D-03  0.327547D-05  0.000000D+00
     17 -0.230446D-01  0.102446D-03  0.182543D-02  0.000000D+00  0.000000D+00
     18 -0.116614D-02 -0.476066D-04  0.142167D-01  0.470391D-04 -0.102972D-04
     19  0.000000D+00  0.000000D+00 -0.880753D-04  0.000000D+00  0.171554D-05
     20  0.102513D-05  0.000000D+00 -0.224724D-03  0.000000D+00  0.000000D+00
     21 -0.271841D-04 -0.221438D-04  0.595914D-02  0.182863D-04  0.518327D-04
     22  0.699209D-02 -0.270015D-01  0.219820D-03 -0.168256D+00 -0.109436D+00
     23 -0.342994D-02  0.132560D-01  0.583445D-04 -0.105750D+00 -0.330125D+00
     24  0.616883D-04  0.163754D-02  0.294913D-01  0.545831D-03  0.450429D-03
     25 -0.355614D+00  0.166544D+00 -0.114934D-01 -0.491055D-02  0.188865D-01
     26  0.167499D+00 -0.251200D+00  0.798338D-02 -0.665681D-02  0.257105D-01
     27 -0.138877D-01  0.975756D-02 -0.845947D-01  0.710112D-03 -0.936664D-03
                6             7             8             9            10 
      6  0.191180D+00
      7 -0.586851D-03  0.540706D+00
      8  0.248368D-02  0.780974D-02  0.754686D+00
      9 -0.483358D-01 -0.238542D-02 -0.620587D-02  0.572369D-01
     10 -0.478090D-03 -0.287076D+00 -0.216344D+00  0.468691D-02  0.897174D+00
     11  0.357827D-03 -0.174452D+00 -0.397229D+00  0.457573D-02 -0.339626D-01
     12 -0.839226D-03  0.312612D-02  0.349905D-02 -0.454267D-01 -0.706618D-02
     13 -0.614622D-03 -0.874744D-02  0.612715D-02 -0.332498D-03 -0.439846D+00
     14 -0.537942D-04 -0.290938D-01  0.203865D-01 -0.723263D-03  0.912767D-01
     15 -0.541629D-03  0.395476D-03 -0.244069D-03  0.730593D-02 -0.233135D-02
     16  0.187687D-03  0.000000D+00  0.111025D-05  0.952939D-04 -0.505843D-02
     17 -0.109641D-04  0.000000D+00  0.443210D-05  0.380413D-03  0.699073D-02
     18  0.269538D-02  0.000000D+00  0.644292D-04  0.553005D-02 -0.458314D-03
     19  0.183033D-03  0.233293D-01 -0.163654D-01 -0.989517D-03 -0.200318D+00
     20 -0.636549D-04  0.127797D-01 -0.896638D-02 -0.669605D-03  0.134031D+00
     21  0.553011D-02 -0.440955D-03  0.359667D-03  0.432456D-02  0.546300D-02
     22  0.745724D-03  0.226598D-01  0.161539D-01 -0.105402D-04  0.000000D+00
     23  0.137564D-02 -0.111160D-01 -0.792436D-02  0.302839D-04  0.000000D+00
     24 -0.747753D-01  0.127296D-03  0.122013D-03  0.445650D-02  0.170386D-04
     25 -0.135861D-02  0.000000D+00  0.000000D+00  0.517974D-05  0.000000D+00
     26 -0.149086D-03  0.565295D-05  0.723709D-05  0.457149D-03  0.000000D+00
     27  0.284083D-01  0.927619D-04  0.118757D-03  0.750157D-02 -0.129257D-04
               11            12            13            14            15 
     11  0.959376D+00
     12  0.383817D-02  0.187756D+00
     13  0.693427D-01 -0.339841D-02  0.856934D+00
     14 -0.204542D+00  0.114467D-02  0.452206D-01  0.723648D+00
     15  0.204491D-02 -0.944443D-01 -0.139740D-01 -0.965629D-02  0.175576D+00
     16 -0.168074D-01  0.188268D-02 -0.284587D+00 -0.123154D+00  0.137195D-01
     17  0.232532D-01 -0.384378D-03 -0.123986D+00 -0.202567D+00  0.926989D-02
     18 -0.124882D-02  0.240787D-01  0.162721D-01  0.112686D-01 -0.692335D-01
     19  0.141053D+00  0.497456D-02  0.794955D-02  0.264585D-01  0.960018D-03
     20 -0.368045D+00 -0.817829D-02  0.434007D-02  0.144356D-01 -0.301163D-03
     21 -0.102360D-01 -0.775590D-01  0.344435D-03  0.146568D-02  0.279015D-01
     22  0.000000D+00 -0.591011D-05  0.193343D-05  0.000000D+00  0.110787D-03
     23  0.000000D+00  0.319360D-04  0.000000D+00  0.000000D+00 -0.180273D-04
     24  0.482960D-04  0.515278D-02  0.112495D-03 -0.246259D-04  0.644604D-02
     25  0.000000D+00 -0.131915D-03  0.179125D-01 -0.861746D-04  0.331863D-03
     26  0.000000D+00 -0.996487D-05  0.245071D-01 -0.121229D-03  0.134451D-02
     27 -0.105291D-04  0.283349D-02  0.115450D-02 -0.610256D-04  0.148630D-01
               16            17            18            19            20 
     16  0.273129D+00
     17  0.140031D+00  0.179181D+00
     18 -0.150452D-01 -0.104158D-01  0.370051D-01
     19  0.252656D-05  0.100860D-04  0.146620D-03  0.169035D+00
     20  0.644652D-05  0.257345D-04  0.374101D-03 -0.151158D+00  0.362550D+00
     21 -0.170946D-03 -0.682416D-03 -0.992025D-02 -0.518664D-02  0.906334D-02
     22  0.000000D+00  0.000000D+00  0.000000D+00  0.000000D+00  0.000000D+00
     23  0.000000D+00  0.000000D+00  0.000000D+00  0.000000D+00  0.000000D+00
     24  0.000000D+00  0.000000D+00  0.000000D+00  0.000000D+00  0.000000D+00
     25  0.141741D-04  0.000000D+00  0.203555D-03  0.000000D+00  0.000000D+00
     26  0.107071D-05  0.000000D+00  0.153766D-04  0.000000D+00  0.000000D+00
     27 -0.304455D-03  0.177854D-04 -0.437230D-02  0.000000D+00  0.000000D+00
               21            22            23            24            25 
     21  0.437640D-01
     22  0.000000D+00  0.138602D+00
     23  0.000000D+00  0.120296D+00  0.324791D+00
     24  0.000000D+00 -0.856164D-03 -0.151132D-02  0.410818D-01
     25  0.000000D+00  0.000000D+00  0.000000D+00 -0.818442D-05  0.342598D+00
     26  0.000000D+00 -0.124146D-04  0.202011D-05 -0.722333D-03 -0.185344D+00
     27  0.000000D+00 -0.203717D-03  0.331489D-04 -0.118531D-01  0.124515D-01
               26            27 
     26  0.225601D+00
     27 -0.891903D-02  0.472137D-01
 Leave Link  716 at Tue Dec 15 16:17:16 2015, MaxMem=    33554432 cpu:         0.0
 (Enter /home/Applications/g09/g09/l103.exe)

 GradGradGradGradGradGradGradGradGradGradGradGradGradGradGradGradGradGrad
 Berny optimization.
 Search for a local minimum.
 Step number   1 out of a maximum of    2
 All quantities printed in internal units (Hartrees-Bohrs-Radians)
 Second derivative matrix not updated -- first step.
 ITU=  0
     Eigenvalues ---    0.01603   0.03087   0.07432   0.07835   0.08051
     Eigenvalues ---    0.08411   0.12461   0.13069   0.16512   0.24142
     Eigenvalues ---    0.26857   0.29643   0.36806   0.45571   0.66431
     Eigenvalues ---    0.90665   1.13378   1.34473   1.47706   1.50383
     Eigenvalues ---    1.66212
 Quadratic step=3.890D-01 exceeds max=3.000D-01 adjusted using Lamda=-6.646D-02.
 Angle between NR and scaled steps=   9.77 degrees.
 Angle between quadratic step and forces=  33.98 degrees.
 Linear search not attempted -- first point.
 TrRot= -0.009845 -0.001685 -0.000200 -0.651643  0.000227  0.652214
 Variable       Old X    -DE/DX   Delta X   Delta X   Delta X     New X
                                 (Linear)    (Quad)   (Total)
    X1        1.81092   0.02336   0.00000   0.06885   0.05982   1.87073
    Y1       -1.41035   0.05067   0.00000   0.00445   0.00384  -1.40651
    Z1        0.02350  -0.00290   0.00000   0.00163   0.00090   0.02440
    X2       -0.67318  -0.03816   0.00000  -0.04815  -0.05677  -0.72995
    Y2       -2.05328  -0.06334   0.00000  -0.06847  -0.07057  -2.12385
    Z2        0.06439   0.00078   0.00000  -0.00257  -0.00294   0.06146
    X3       -2.16754  -0.06495   0.00000  -0.10615  -0.11601  -2.28355
    Y3        0.04292   0.00612   0.00000  -0.00118  -0.00417   0.03875
    Z3        0.04969   0.00020   0.00000   0.00083   0.00105   0.05074
    X4       -0.70039   0.00580   0.00000  -0.01619  -0.02727  -0.72765
    Y4        2.13586   0.00246   0.00000   0.02771   0.02561   2.16147
    Z4        0.02522  -0.00044   0.00000   0.00348   0.00371   0.02893
    X5        1.82413   0.04304   0.00000   0.06827   0.05763   1.88176
    Y5        1.37704   0.00377   0.00000   0.02879   0.02819   1.40523
    Z5        0.03392  -0.00102   0.00000  -0.00530  -0.00565   0.02827
    X6        3.46020   0.00391   0.00000   0.05903   0.04769   3.50788
    Y6        2.55373   0.00432   0.00000   0.04614   0.04647   2.60020
    Z6       -0.07522  -0.00040   0.00000  -0.00761  -0.00809  -0.08331
    X7       -1.62417  -0.01928   0.00000  -0.02833  -0.04041  -1.66459
    Y7        3.82395   0.04268   0.00000   0.12003   0.11739   3.94134
    Z7        0.07523   0.00104   0.00000   0.00382   0.00446   0.07969
    X8       -1.55632  -0.00832   0.00000  -0.06555  -0.07314  -1.62946
    Y8       -3.85342  -0.00581   0.00000  -0.06783  -0.07045  -3.92387
    Z8        0.07454  -0.00015   0.00000  -0.00355  -0.00400   0.07054
    X9        3.33227   0.05461   0.00000   0.15682   0.14848   3.48075
    Y9       -2.52547  -0.04086   0.00000  -0.07660  -0.07631  -2.60178
    Z9        0.09040   0.00290   0.00000   0.01174   0.01055   0.10095
         Item               Value     Threshold  Converged?
 Maximum Force            0.064950     0.000450     NO 
 RMS     Force            0.028379     0.000300     NO 
 Maximum Displacement     0.148477     0.001800     NO 
 RMS     Displacement     0.057441     0.001200     NO 
 Predicted change in Energy=-2.133555D-02
 GradGradGradGradGradGradGradGradGradGradGradGradGradGradGradGradGradGrad

 Leave Link  103 at Tue Dec 15 16:17:16 2015, MaxMem=    33554432 cpu:         0.0
 (Enter /home/Applications/g09/g09/l9999.exe)
 1\1\GINC-DUSTIN-DESKTOP\Force\RB3LYP-FC\3-21G\C4H4O1\DUSTIN\15-Dec-201
 5\0\\#P B3LYP/3-21G CIS(Singlets,NStates=15) pop(full) force\\FuranDFT
 \\0,1\C,0.958295,-0.746324,0.012435\C,-0.356229,-1.086547,0.034076\O,-
 1.147013,0.022711,0.026294\C,-0.37063,1.130248,0.013346\C,0.965289,0.7
 287,0.017948\H,1.831057,1.351376,-0.039805\H,-0.859475,2.023547,0.0398
 08\H,-0.823568,-2.039143,0.039444\H,1.763361,-1.336423,0.04784\\Versio
 n=ES64L-G09RevD.01\State=1-A\HF=-228.7413573\RMSD=3.084e-09\RMSF=2.838
 e-02\Dipole=0.3457418,0.2248047,0.0065817\PG=C01 [X(C4H4O1)]\\@


 Cherishing children is the mark of a civilized society.
 -- Joan Ganz Cooney
 Job cpu time:       0 days  0 hours  0 minutes 50.5 seconds.
 File lengths (MBytes):  RWF=     14 Int=      0 D2E=      0 Chk=      3 Scr=      1
 Normal termination of Gaussian 09 at Tue Dec 15 16:17:16 2015.
