 Entering Gaussian System, Link 0=g09
 Input=FuranAM1_4P9.com
 Output=FuranAM1_4P9.log
 Initial command:
 /home/Applications/g09/g09/l1.exe "/home/Applications/g09/scratch/Gau-9023.inp" -scrdir="/home/Applications/g09/scratch/"
 Entering Link 1 = /home/Applications/g09/g09/l1.exe PID=      9026.
  
 Copyright (c) 1988,1990,1992,1993,1995,1998,2003,2009,2013,
            Gaussian, Inc.  All Rights Reserved.
  
 This is part of the Gaussian(R) 09 program.  It is based on
 the Gaussian(R) 03 system (copyright 2003, Gaussian, Inc.),
 the Gaussian(R) 98 system (copyright 1998, Gaussian, Inc.),
 the Gaussian(R) 94 system (copyright 1995, Gaussian, Inc.),
 the Gaussian 92(TM) system (copyright 1992, Gaussian, Inc.),
 the Gaussian 90(TM) system (copyright 1990, Gaussian, Inc.),
 the Gaussian 88(TM) system (copyright 1988, Gaussian, Inc.),
 the Gaussian 86(TM) system (copyright 1986, Carnegie Mellon
 University), and the Gaussian 82(TM) system (copyright 1983,
 Carnegie Mellon University). Gaussian is a federally registered
 trademark of Gaussian, Inc.
  
 This software contains proprietary and confidential information,
 including trade secrets, belonging to Gaussian, Inc.
  
 This software is provided under written license and may be
 used, copied, transmitted, or stored only in accord with that
 written license.
  
 The following legend is applicable only to US Government
 contracts under FAR:
  
                    RESTRICTED RIGHTS LEGEND
  
 Use, reproduction and disclosure by the US Government is
 subject to restrictions as set forth in subparagraphs (a)
 and (c) of the Commercial Computer Software - Restricted
 Rights clause in FAR 52.227-19.
  
 Gaussian, Inc.
 340 Quinnipiac St., Bldg. 40, Wallingford CT 06492
  
  
 ---------------------------------------------------------------
 Warning -- This program may not be used in any manner that
 competes with the business of Gaussian, Inc. or will provide
 assistance to any competitor of Gaussian, Inc.  The licensee
 of this program is prohibited from giving any competitor of
 Gaussian, Inc. access to this program.  By using this program,
 the user acknowledges that Gaussian, Inc. is engaged in the
 business of creating and licensing software in the field of
 computational chemistry and represents and warrants to the
 licensee that it is not a competitor of Gaussian, Inc. and that
 it will not use this program in any manner prohibited above.
 ---------------------------------------------------------------
  

 Cite this work as:
 Gaussian 09, Revision D.01,
 M. J. Frisch, G. W. Trucks, H. B. Schlegel, G. E. Scuseria, 
 M. A. Robb, J. R. Cheeseman, G. Scalmani, V. Barone, B. Mennucci, 
 G. A. Petersson, H. Nakatsuji, M. Caricato, X. Li, H. P. Hratchian, 
 A. F. Izmaylov, J. Bloino, G. Zheng, J. L. Sonnenberg, M. Hada, 
 M. Ehara, K. Toyota, R. Fukuda, J. Hasegawa, M. Ishida, T. Nakajima, 
 Y. Honda, O. Kitao, H. Nakai, T. Vreven, J. A. Montgomery, Jr., 
 J. E. Peralta, F. Ogliaro, M. Bearpark, J. J. Heyd, E. Brothers, 
 K. N. Kudin, V. N. Staroverov, T. Keith, R. Kobayashi, J. Normand, 
 K. Raghavachari, A. Rendell, J. C. Burant, S. S. Iyengar, J. Tomasi, 
 M. Cossi, N. Rega, J. M. Millam, M. Klene, J. E. Knox, J. B. Cross, 
 V. Bakken, C. Adamo, J. Jaramillo, R. Gomperts, R. E. Stratmann, 
 O. Yazyev, A. J. Austin, R. Cammi, C. Pomelli, J. W. Ochterski, 
 R. L. Martin, K. Morokuma, V. G. Zakrzewski, G. A. Voth, 
 P. Salvador, J. J. Dannenberg, S. Dapprich, A. D. Daniels, 
 O. Farkas, J. B. Foresman, J. V. Ortiz, J. Cioslowski, 
 and D. J. Fox, Gaussian, Inc., Wallingford CT, 2013.
 
 ******************************************
 Gaussian 09:  ES64L-G09RevD.01 24-Apr-2013
                15-Dec-2015 
 ******************************************
 ------------------------------------------------------------
 #P AM1(Input,print) CIS(Singlets,NStates=15) pop(full) force
 ------------------------------------------------------------
 1/10=7,30=1,38=1/1,3;
 2/12=2,17=6,18=5,40=1/2;
 3/5=2,16=1,25=1,41=700000,71=1,135=100,136=1/1,2,8,3;
 4/35=1/1;
 5/5=2,35=1,38=5/2;
 8/6=1,10=1,108=15/1;
 9/15=2,41=15,42=1,48=1,49=10/14;
 10/5=4/2;
 6/7=3,18=1/1;
 7/12=6,13=5,29=1/1,2,3,16;
 1/10=7,30=1/3;
 99//99;
 Leave Link    1 at Tue Dec 15 17:07:11 2015, MaxMem=           0 cpu:         0.0
 (Enter /home/Applications/g09/g09/l101.exe)
 -----------------
 AM1-Reparam Input
 -----------------
 Symbolic Z-matrix:
 Charge =  0 Multiplicity = 1
 6                     1.00208  -0.68519   0.04138 
 6                    -0.35835  -1.10919   0.03233 
 8                    -1.16825  -0.01454   0.02061 
 6                    -0.35647   1.11952   0.04032 
 6                     0.93617   0.73345  -0.02765 
 1                     1.80006   1.34178  -0.00898 
 1                    -0.82477   2.0605    0.02325 
 1                    -0.8684   -2.086    -0.04921 
 1                     1.81264  -1.33323  -0.02012 
 
 NAtoms=      9 NQM=        9 NQMF=       0 NMMI=      0 NMMIF=      0
                NMic=       0 NMicF=      0.
                    Isotopes and Nuclear Properties:
 (Nuclear quadrupole moments (NQMom) in fm**2, nuclear magnetic moments (NMagM)
  in nuclear magnetons)

  Atom         1           2           3           4           5           6           7           8           9
 IAtWgt=          12          12          16          12          12           1           1           1           1
 AtmWgt=  12.0000000  12.0000000  15.9949146  12.0000000  12.0000000   1.0078250   1.0078250   1.0078250   1.0078250
 NucSpn=           0           0           0           0           0           1           1           1           1
 AtZEff=   0.0000000   0.0000000   0.0000000   0.0000000   0.0000000   0.0000000   0.0000000   0.0000000   0.0000000
 NQMom=    0.0000000   0.0000000   0.0000000   0.0000000   0.0000000   0.0000000   0.0000000   0.0000000   0.0000000
 NMagM=    0.0000000   0.0000000   0.0000000   0.0000000   0.0000000   2.7928460   2.7928460   2.7928460   2.7928460
 AtZNuc=   6.0000000   6.0000000   8.0000000   6.0000000   6.0000000   1.0000000   1.0000000   1.0000000   1.0000000
 Leave Link  101 at Tue Dec 15 17:07:11 2015, MaxMem=    33554432 cpu:         0.0
 (Enter /home/Applications/g09/g09/l103.exe)

 GradGradGradGradGradGradGradGradGradGradGradGradGradGradGradGradGradGrad
 Berny optimization.
 Initialization pass.
 Trust Radius=3.00D-01 FncErr=1.00D-07 GrdErr=1.00D-07
 Number of steps in this run=      2 maximum allowed number of steps=      2.
 GradGradGradGradGradGradGradGradGradGradGradGradGradGradGradGradGradGrad

 Leave Link  103 at Tue Dec 15 17:07:11 2015, MaxMem=    33554432 cpu:         0.0
 (Enter /home/Applications/g09/g09/l202.exe)
                          Input orientation:                          
 ---------------------------------------------------------------------
 Center     Atomic      Atomic             Coordinates (Angstroms)
 Number     Number       Type             X           Y           Z
 ---------------------------------------------------------------------
      1          6           0        1.002084   -0.685192    0.041380
      2          6           0       -0.358347   -1.109187    0.032329
      3          8           0       -1.168253   -0.014535    0.020609
      4          6           0       -0.356469    1.119521    0.040324
      5          6           0        0.936172    0.733450   -0.027649
      6          1           0        1.800055    1.341784   -0.008977
      7          1           0       -0.824767    2.060497    0.023249
      8          1           0       -0.868401   -2.085997   -0.049213
      9          1           0        1.812640   -1.333230   -0.020123
 ---------------------------------------------------------------------
                    Distance matrix (angstroms):
                    1          2          3          4          5
     1  C    0.000000
     2  C    1.425000   0.000000
     3  O    2.271690   1.361745   0.000000
     4  C    2.258906   2.228723   1.394799   0.000000
     5  C    1.421849   2.252707   2.233924   1.350775   0.000000
     6  H    2.178973   3.266139   3.263637   2.168508   1.056746
     7  H    3.297957   3.203830   2.103271   1.051204   2.205573
     8  H    2.338627   1.104971   2.094216   3.247374   3.347571
     9  H    1.039585   2.183147   3.259807   3.274855   2.244865
                    6          7          8          9
     6  H    0.000000
     7  H    2.721631   0.000000
     8  H    4.344187   4.147357   0.000000
     9  H    2.675067   4.298276   2.784867   0.000000
 Stoichiometry    C4H4O
 Framework group  C1[X(C4H4O)]
 Deg. of freedom    21
 Full point group                 C1      NOp   1
 Largest Abelian subgroup         C1      NOp   1
 Largest concise Abelian subgroup C1      NOp   1
                         Standard orientation:                         
 ---------------------------------------------------------------------
 Center     Atomic      Atomic             Coordinates (Angstroms)
 Number     Number       Type             X           Y           Z
 ---------------------------------------------------------------------
      1          6           0       -0.520978    1.102256   -0.031309
      2          6           0       -1.158001   -0.172240   -0.009191
      3          8           0       -0.207656   -1.147392    0.007263
      4          6           0        1.042012   -0.528583   -0.022241
      5          6           0        0.868888    0.809823    0.035096
      6          1           0        1.608042    1.564539    0.007360
      7          1           0        1.895582   -1.141840   -0.003126
      8          1           0       -2.203763   -0.517997    0.079096
      9          1           0       -1.030141    2.006900    0.024441
 ---------------------------------------------------------------------
 Rotational constants (GHZ):      9.3416474      9.0938970      4.6114554
 Leave Link  202 at Tue Dec 15 17:07:11 2015, MaxMem=    33554432 cpu:         0.0
 (Enter /home/Applications/g09/g09/l301.exe)

 Semi-emprical parameters in input format:
 Method=8 CoreType=1 PeptideFC=0.0106250000 RIJScale=0.5404210000
 ****
 H       
 PQN=1 NValence=1 F0ss=0.4980120000 ZetaOverlap=1.0856700000 U=-0.3768230000
 Beta=-0.2268830000 CoreKO=1.0354420000 KON=0,0,0,1.0458670000 KON=1,0,1,1.0589200000
 KON=0,1,1,1.0589200000 KON=2,1,1,1.0697690000 EISol=-0.4188110042 EHeat=0.0830298228
 Alpha=1.4609850000
 GCore=0.0085280000,1.5127750000,2.2676710000
 GCore=0.0003530000,1.4551640000,3.4779940000
 GCore=-0.0011900000,0.5600570000,3.5861320000
 ****
 C       
 PQN=2,2 NValence=4 F0ss=0.4494440000 F0sp=0.4215150000 F0pp=0.3497590000 F2pp=0.1878900000
 G1sp=0.2701540000
 ZetaOverlap=1.8086650000,1.3781170000
 U=-1.7923890000,-1.4557970000
 Beta=-0.5453250000,-0.3063130000 DDN=0,1,0.7474020000 DDN=1,1,0.7268010000
 CoreKO=1.1124280000 KON=0,0,0,1.1723100000 KON=1,0,1,0.8998210000 KON=0,1,1,1.1012040000
 KON=2,1,1,0.7783930000 EISol=-4.4398989268 EHeat=0.2723305520 Alpha=1.2756240000
 DipHyp=1.4947180026
 GCore=0.0007890000,1.2095400000,2.6678360000
 GCore=0.0028980000,1.4001430000,3.2840710000
 GCore=-0.0013790000,1.3017660000,3.8739390000
 GCore=-0.0001030000,1.4001430000,4.6088130000
 ****
 O       
 PQN=2,2 NValence=6 F0ss=0.5310640000 F0sp=0.5321300000 F0pp=0.4958710000 F2pp=0.2543430000
 G1sp=0.4013240000
 ZetaOverlap=2.6354490000,2.5240390000
 U=-3.5951870000,-2.0345890000
 Beta=-1.1573400000,-1.2994290000 DDN=0,1,0.4953610000 DDN=1,1,0.5082060000
 CoreKO=0.8515990000 KON=0,0,0,0.8822960000 KON=1,0,1,0.5019540000 KON=0,1,1,0.8671530000
 KON=2,1,1,0.5515580000 EISol=-11.6164441184 EHeat=0.0949133088 Alpha=2.4031680000
 DipHyp=0.9906650029
 GCore=0.0204720000,1.2640290000,1.6023330000
 GCore=0.0051530000,1.9602000000,2.7307880000
 ****
 
 Standard basis: VSTO-6G (5D, 7F)
 Ernie: Thresh=  0.10000D-02 Tol=  0.10000D-05 Strict=F.
  NNHCO=     0 NNPyr=     0 NCTC=     0               EPep=         0.000000000
    EC=        68.555549979  ECS=         2.408551236   EG=         0.361970816
   EHC=         0.000000000  EAt=       -31.051283842  AtH=         1.516354808
 EPDDG=         0.000000000  ECC=        71.326072030 EAtT=        32.567638650
 There are    24 symmetry adapted cartesian basis functions of A   symmetry.
 There are    24 symmetry adapted basis functions of A   symmetry.
    24 basis functions,   144 primitive gaussians,    24 cartesian basis functions
    13 alpha electrons       13 beta electrons
       nuclear repulsion energy       103.8937106804 Hartrees.
 IExCor=    0 DFT=F Ex=HF Corr=None ExCW=0 ScaHFX=  1.000000
 ScaDFX=  1.000000  1.000000  1.000000  1.000000 ScalE2=  1.000000  1.000000
 IRadAn=      0 IRanWt=     -1 IRanGd=            0 ICorTp=0 IEmpDi=  4
 Integral buffers will be    131072 words long.
 Regular integral format.
 Two-electron integral symmetry is turned off.
 Leave Link  301 at Tue Dec 15 17:07:11 2015, MaxMem=    33554432 cpu:         0.0
 (Enter /home/Applications/g09/g09/l302.exe)
 Do NDO integrals.
 NPDir=0 NMtPBC=     1 NCelOv=     1 NCel=       1 NClECP=     1 NCelD=      1
         NCelK=      1 NCelE2=     1 NClLst=     1 CellRange=     0.0.
 One-electron integrals computed using PRISM.
 NBasis=    24 RedAO= F EigKep=  0.00D+00  NBF=    24
 NBsUse=    24 1.00D-04 EigRej=  0.00D+00 NBFU=    24
 Leave Link  302 at Tue Dec 15 17:07:11 2015, MaxMem=    33554432 cpu:         0.1
 (Enter /home/Applications/g09/g09/l308.exe)
 Leave Link  308 at Tue Dec 15 17:07:11 2015, MaxMem=    33554432 cpu:         0.0
 (Enter /home/Applications/g09/g09/l303.exe)
 DipDrv:  MaxL=1.
 Leave Link  303 at Tue Dec 15 17:07:11 2015, MaxMem=    33554432 cpu:         0.0
 (Enter /home/Applications/g09/g09/l401.exe)
 Simple Huckel Guess.
 JPrj=0 DoOrth=F DoCkMO=F.
 Leave Link  401 at Tue Dec 15 17:07:11 2015, MaxMem=    33554432 cpu:         0.0
 (Enter /home/Applications/g09/g09/l502.exe)
 Closed shell SCF:
 Using DIIS extrapolation, IDIIS=  1040.
 Overlap will be assumed to be unity.
 Two-electron integral symmetry not used.
 Keep J ints in memory in canonical form, NReq=888082.
 IVT=       79475 IEndB=       79475 NGot=    33554432 MDV=    33473473
 LenX=    33473473 LenY=    33472456
 Requested convergence on RMS density matrix=1.00D-08 within 128 cycles.
 Requested convergence on MAX density matrix=1.00D-06.
 Requested convergence on             energy=1.00D-06.
 No special actions if energy rises.
 FoFCou: FMM=F IPFlag=           0 FMFlag=           0 FMFlg1=           0
         NFxFlg=           0 DoJE=F BraDBF=F KetDBF=F FulRan=T
         wScrn=  0.000000 ICntrl=     600 IOpCl=  2 I1Cent=           0 NGrid=           0
         NMat0=    1 NMatS0=     54 NMatT0=    0 NMatD0=    1 NMtDS0=    0 NMtDT0=    0
 Symmetry not used in FoFCou.

 Cycle   1  Pass 1  IDiag  1:
 E=  4.43977081000809    
 DIIS: error= 1.35D-01 at cycle   1 NSaved=   1.
 NSaved= 1 IEnMin= 1 EnMin=  4.43977081000809     IErMin= 1 ErrMin= 1.35D-01
 ErrMax= 1.35D-01  0.00D+00 EMaxC= 1.00D-01 BMatC= 5.16D-01 BMatP= 5.16D-01
 IDIUse=3 WtCom= 0.00D+00 WtEn= 1.00D+00
 Coeff-Com:  0.100D+01
 Coeff-En:   0.100D+01
 Coeff:      0.100D+01
 GapD=    2.000 DampG=2.000 DampE=0.250 DampFc=0.5000 IDamp=-1.
 Damping current iteration by 5.00D-01
 RMSDP=6.62D-02 MaxDP=7.11D-01              OVMax= 0.00D+00

 Cycle   2  Pass 1  IDiag  1:
 E=  3.38474908115693     Delta-E=       -1.055021728851 Rises=F Damp=T
 DIIS: error= 7.36D-02 at cycle   2 NSaved=   2.
 NSaved= 2 IEnMin= 2 EnMin=  3.38474908115693     IErMin= 2 ErrMin= 7.36D-02
 ErrMax= 7.36D-02  0.00D+00 EMaxC= 1.00D-01 BMatC= 1.77D-01 BMatP= 5.16D-01
 IDIUse=3 WtCom= 2.64D-01 WtEn= 7.36D-01
 Coeff-Com: -0.116D+01 0.216D+01
 Coeff-En:   0.000D+00 0.100D+01
 Coeff:     -0.306D+00 0.131D+01
 RMSDP=3.76D-02 MaxDP=3.76D-01 DE=-1.06D+00 OVMax= 0.00D+00

 Cycle   3  Pass 1  IDiag  1:
 E=  2.06763124320649     Delta-E=       -1.317117837950 Rises=F Damp=F
 DIIS: error= 1.44D-02 at cycle   3 NSaved=   3.
 NSaved= 3 IEnMin= 3 EnMin=  2.06763124320649     IErMin= 3 ErrMin= 1.44D-02
 ErrMax= 1.44D-02  0.00D+00 EMaxC= 1.00D-01 BMatC= 1.07D-02 BMatP= 1.77D-01
 IDIUse=3 WtCom= 8.56D-01 WtEn= 1.44D-01
 Coeff-Com:  0.311D+00-0.696D+00 0.139D+01
 Coeff-En:   0.000D+00 0.000D+00 0.100D+01
 Coeff:      0.266D+00-0.596D+00 0.133D+01
 RMSDP=9.87D-03 MaxDP=5.26D-02 DE=-1.32D+00 OVMax= 0.00D+00

 Cycle   4  Pass 1  IDiag  3:
 E=  2.02496577010884     Delta-E=       -0.042665473098 Rises=F Damp=F
 DIIS: error= 4.19D-03 at cycle   4 NSaved=   4.
 NSaved= 4 IEnMin= 4 EnMin=  2.02496577010884     IErMin= 4 ErrMin= 4.19D-03
 ErrMax= 4.19D-03  0.00D+00 EMaxC= 1.00D-01 BMatC= 8.81D-04 BMatP= 1.07D-02
 IDIUse=3 WtCom= 9.58D-01 WtEn= 4.19D-02
 Coeff-Com: -0.585D-01 0.112D+00-0.428D+00 0.137D+01
 Coeff-En:   0.000D+00 0.000D+00 0.000D+00 0.100D+01
 Coeff:     -0.560D-01 0.107D+00-0.410D+00 0.136D+01
 Gap=     0.407 Goal=   None    Shift=    0.000
 RMSDP=3.63D-03 MaxDP=1.96D-02 DE=-4.27D-02 OVMax= 3.76D-02

 Cycle   5  Pass 1  IDiag  3:
 E=  2.02095967360458     Delta-E=       -0.004006096504 Rises=F Damp=F
 DIIS: error= 8.45D-04 at cycle   5 NSaved=   5.
 NSaved= 5 IEnMin= 5 EnMin=  2.02095967360458     IErMin= 5 ErrMin= 8.45D-04
 ErrMax= 8.45D-04  0.00D+00 EMaxC= 1.00D-01 BMatC= 2.96D-05 BMatP= 8.81D-04
 IDIUse=3 WtCom= 9.92D-01 WtEn= 8.45D-03
 Coeff-Com:  0.141D-01-0.255D-01 0.123D+00-0.527D+00 0.142D+01
 Coeff-En:   0.000D+00 0.000D+00 0.000D+00 0.000D+00 0.100D+01
 Coeff:      0.140D-01-0.253D-01 0.122D+00-0.523D+00 0.141D+01
 Gap=     0.407 Goal=   None    Shift=    0.000
 RMSDP=7.14D-04 MaxDP=3.50D-03 DE=-4.01D-03 OVMax= 6.06D-03

 Cycle   6  Pass 1  IDiag  3:
 E=  2.02081374861598     Delta-E=       -0.000145924989 Rises=F Damp=F
 DIIS: error= 1.64D-04 at cycle   6 NSaved=   6.
 NSaved= 6 IEnMin= 6 EnMin=  2.02081374861598     IErMin= 6 ErrMin= 1.64D-04
 ErrMax= 1.64D-04  0.00D+00 EMaxC= 1.00D-01 BMatC= 1.06D-06 BMatP= 2.96D-05
 IDIUse=3 WtCom= 9.98D-01 WtEn= 1.64D-03
 Coeff-Com: -0.112D-02 0.220D-02-0.248D-01 0.126D+00-0.493D+00 0.139D+01
 Coeff-En:   0.000D+00 0.000D+00 0.000D+00 0.000D+00 0.000D+00 0.100D+01
 Coeff:     -0.112D-02 0.219D-02-0.247D-01 0.126D+00-0.492D+00 0.139D+01
 Gap=     0.408 Goal=   None    Shift=    0.000
 RMSDP=1.34D-04 MaxDP=8.84D-04 DE=-1.46D-04 OVMax= 1.00D-03

 Cycle   7  Pass 1  IDiag  3:
 E=  2.02080892758147     Delta-E=       -0.000004821035 Rises=F Damp=F
 DIIS: error= 2.29D-05 at cycle   7 NSaved=   7.
 NSaved= 7 IEnMin= 7 EnMin=  2.02080892758147     IErMin= 7 ErrMin= 2.29D-05
 ErrMax= 2.29D-05  0.00D+00 EMaxC= 1.00D-01 BMatC= 2.41D-08 BMatP= 1.06D-06
 IDIUse=1 WtCom= 1.00D+00 WtEn= 0.00D+00
 Coeff-Com:  0.101D-03-0.185D-03 0.850D-02-0.477D-01 0.205D+00-0.658D+00
 Coeff-Com:  0.149D+01
 Coeff:      0.101D-03-0.185D-03 0.850D-02-0.477D-01 0.205D+00-0.658D+00
 Coeff:      0.149D+01
 Gap=     0.408 Goal=   None    Shift=    0.000
 RMSDP=1.95D-05 MaxDP=1.30D-04 DE=-4.82D-06 OVMax= 1.21D-04

 Cycle   8  Pass 1  IDiag  3:
 E=  2.02080881923914     Delta-E=       -0.000000108342 Rises=F Damp=F
 DIIS: error= 2.62D-06 at cycle   8 NSaved=   8.
 NSaved= 8 IEnMin= 8 EnMin=  2.02080881923914     IErMin= 8 ErrMin= 2.62D-06
 ErrMax= 2.62D-06  0.00D+00 EMaxC= 1.00D-01 BMatC= 4.80D-10 BMatP= 2.41D-08
 IDIUse=1 WtCom= 1.00D+00 WtEn= 0.00D+00
 Coeff-Com:  0.431D-05-0.305D-04-0.114D-02 0.742D-02-0.365D-01 0.126D+00
 Coeff-Com: -0.360D+00 0.126D+01
 Coeff:      0.431D-05-0.305D-04-0.114D-02 0.742D-02-0.365D-01 0.126D+00
 Coeff:     -0.360D+00 0.126D+01
 Gap=     0.408 Goal=   None    Shift=    0.000
 RMSDP=2.50D-06 MaxDP=1.64D-05 DE=-1.08D-07 OVMax= 1.47D-05

 Cycle   9  Pass 1  IDiag  3:
 E=  2.02080881723424     Delta-E=       -0.000000002005 Rises=F Damp=F
 DIIS: error= 6.61D-07 at cycle   9 NSaved=   9.
 NSaved= 9 IEnMin= 9 EnMin=  2.02080881723424     IErMin= 9 ErrMin= 6.61D-07
 ErrMax= 6.61D-07  0.00D+00 EMaxC= 1.00D-01 BMatC= 1.84D-11 BMatP= 4.80D-10
 IDIUse=1 WtCom= 1.00D+00 WtEn= 0.00D+00
 Coeff-Com:  0.218D-05 0.333D-06 0.791D-04-0.626D-03 0.376D-02-0.133D-01
 Coeff-Com:  0.438D-01-0.293D+00 0.126D+01
 Coeff:      0.218D-05 0.333D-06 0.791D-04-0.626D-03 0.376D-02-0.133D-01
 Coeff:      0.438D-01-0.293D+00 0.126D+01
 Gap=     0.408 Goal=   None    Shift=    0.000
 RMSDP=5.38D-07 MaxDP=3.13D-06 DE=-2.00D-09 OVMax= 3.61D-06

 Cycle  10  Pass 1  IDiag  3:
 E=  2.02080881714058     Delta-E=       -0.000000000094 Rises=F Damp=F
 DIIS: error= 2.10D-07 at cycle  10 NSaved=  10.
 NSaved=10 IEnMin=10 EnMin=  2.02080881714058     IErMin=10 ErrMin= 2.10D-07
 ErrMax= 2.10D-07  0.00D+00 EMaxC= 1.00D-01 BMatC= 1.53D-12 BMatP= 1.84D-11
 IDIUse=1 WtCom= 1.00D+00 WtEn= 0.00D+00
 Coeff-Com:  0.342D-06-0.156D-05-0.194D-04 0.166D-03-0.107D-02 0.365D-02
 Coeff-Com: -0.126D-01 0.104D+00-0.635D+00 0.154D+01
 Coeff:      0.342D-06-0.156D-05-0.194D-04 0.166D-03-0.107D-02 0.365D-02
 Coeff:     -0.126D-01 0.104D+00-0.635D+00 0.154D+01
 Gap=     0.408 Goal=   None    Shift=    0.000
 RMSDP=1.93D-07 MaxDP=1.24D-06 DE=-9.37D-11 OVMax= 1.26D-06

 Cycle  11  Pass 1  IDiag  3:
 E=  2.02080881713169     Delta-E=       -0.000000000009 Rises=F Damp=F
 DIIS: error= 4.85D-08 at cycle  11 NSaved=  11.
 NSaved=11 IEnMin=11 EnMin=  2.02080881713169     IErMin=11 ErrMin= 4.85D-08
 ErrMax= 4.85D-08  0.00D+00 EMaxC= 1.00D-01 BMatC= 7.12D-14 BMatP= 1.53D-12
 IDIUse=1 WtCom= 1.00D+00 WtEn= 0.00D+00
 Coeff-Com: -0.434D-06 0.826D-06-0.191D-05-0.563D-06 0.780D-04-0.251D-03
 Coeff-Com:  0.160D-02-0.252D-01 0.195D+00-0.649D+00 0.148D+01
 Coeff:     -0.434D-06 0.826D-06-0.191D-05-0.563D-06 0.780D-04-0.251D-03
 Coeff:      0.160D-02-0.252D-01 0.195D+00-0.649D+00 0.148D+01
 Gap=     0.408 Goal=   None    Shift=    0.000
 RMSDP=4.43D-08 MaxDP=2.90D-07 DE=-8.88D-12 OVMax= 2.79D-07

 Cycle  12  Pass 1  IDiag  3:
 E=  2.02080881713127     Delta-E=        0.000000000000 Rises=F Damp=F
 DIIS: error= 9.37D-09 at cycle  12 NSaved=  12.
 NSaved=12 IEnMin=12 EnMin=  2.02080881713127     IErMin=12 ErrMin= 9.37D-09
 ErrMax= 9.37D-09  0.00D+00 EMaxC= 1.00D-01 BMatC= 2.68D-15 BMatP= 7.12D-14
 IDIUse=1 WtCom= 1.00D+00 WtEn= 0.00D+00
 Coeff-Com:  0.415D-07-0.746D-07 0.272D-06 0.111D-05-0.281D-04 0.783D-04
 Coeff-Com: -0.545D-03 0.932D-02-0.733D-01 0.253D+00-0.676D+00 0.149D+01
 Coeff:      0.415D-07-0.746D-07 0.272D-06 0.111D-05-0.281D-04 0.783D-04
 Coeff:     -0.545D-03 0.932D-02-0.733D-01 0.253D+00-0.676D+00 0.149D+01
 Gap=     0.408 Goal=   None    Shift=    0.000
 RMSDP=8.33D-09 MaxDP=8.09D-08 DE=-4.26D-13 OVMax= 9.43D-08

 Cycle  13  Pass 2  IDiag  1:
 SCF Done:  E(RAM1) =   2.02080881713     A.U. after   13 cycles
            NFock= 12  Conv=0.83D-08     -V/T= 1.1307
 KE=-1.546378639773D+01 PE=-1.688703840268D+02 EE= 8.246126856125D+01
 Leave Link  502 at Tue Dec 15 17:07:12 2015, MaxMem=    33554432 cpu:         0.0
 (Enter /home/Applications/g09/g09/l801.exe)
 Range of M.O.s used for correlation:     1    24
 NBasis=    24 NAE=    13 NBE=    13 NFC=     0 NFV=     0
 NROrb=     24 NOA=    13 NOB=    13 NVA=    11 NVB=    11
 Leave Link  801 at Tue Dec 15 17:07:12 2015, MaxMem=    33554432 cpu:         0.0
 (Enter /home/Applications/g09/g09/l914.exe)
 RHF ground state
 MDV=    33554432 DFT=F DoStab=F Mixed=F DoRPA=F DoScal=F NonHer=F
 Making orbital integer symmetry assigments:
 Orbital symmetries:
       Occupied  (A) (A) (A) (A) (A) (A) (A) (A) (A) (A) (A) (A)
                 (A)
       Virtual   (A) (A) (A) (A) (A) (A) (A) (A) (A) (A) (A)
    60 initial guesses have been made.
 Convergence on wavefunction:    0.000001000000000
 Davidson Disk Diagonalization:  ConvIn= 1.00D-06 SkipCon=T Conv= 1.00D-06.
 Max sub-space:   240 roots to seek:    60 dimension of matrix:          286
 Iteration     1 Dimension    60 NMult     0 NNew     60
 CISAX will form    60 AO SS matrices at one time.
 NMat=    60 NSing=    60 JSym2X= 0.
 FoFJK:  IHMeth= 8 ICntrl=       0 DoSepK=F KAlg= 0 I1Cent=   0 FoldK=F
 IRaf=         1 NMat= 120 IRICut=       1 DoRegI=T DoRafI=F ISym2E= 0.
 FoFCou: FMM=F IPFlag=           0 FMFlag=      100000 FMFlg1=           0
         NFxFlg=           0 DoJE=F BraDBF=F KetDBF=F FulRan=T
         wScrn=  0.000000 ICntrl=       0 IOpCl=  0 I1Cent=           0 NGrid=           0
         NMat0=  120 NMatS0=     60 NMatT0=    0 NMatD0=  120 NMtDS0=    0 NMtDT0=    0
 Symmetry not used in FoFCou.
 New state      2 was old state      4
 New state      3 was old state      2
 New state      4 was old state      3
 New state      5 was old state      6
 New state      6 was old state      9
 New state      7 was old state      5
 New state      8 was old state      7
 New state      9 was old state      8
 New state     12 was old state     13
 New state     13 was old state     12
 Excitation Energies [eV] at current iteration:
 Root      1 :     5.528265924367945
 Root      2 :     6.893906031654486
 Root      3 :     6.931540733305022
 Root      4 :     7.260210619412122
 Root      5 :     7.758594510967192
 Root      6 :     8.139410203538981
 Root      7 :     8.676754761368965
 Root      8 :     8.795297325768511
 Root      9 :     9.269703676223092
 Root     10 :     9.864886996611924
 Root     11 :     9.965511073349193
 Root     12 :    10.182338019864930
 Root     13 :    10.236282323579010
 Root     14 :    10.304216940055680
 Root     15 :    10.379714970931800
 Root     16 :    10.728589797548030
 Root     17 :    10.870302702496980
 Root     18 :    10.982771280887520
 Root     19 :    11.185645647397940
 Root     20 :    11.567815180869490
 Root     21 :    11.671971219373040
 Root     22 :    11.753016775921520
 Root     23 :    11.832711589453280
 Root     24 :    12.020992893835840
 Root     25 :    12.056857323760500
 Root     26 :    12.243281839849240
 Root     27 :    12.354205537838460
 Root     28 :    12.719381888836660
 Root     29 :    12.742130666275630
 Root     30 :    13.111329453692900
 Root     31 :    13.307993284025320
 Root     32 :    13.345778490115980
 Root     33 :    13.474878437742110
 Root     34 :    13.665681093227560
 Root     35 :    13.737145998241220
 Root     36 :    13.881179370291630
 Root     37 :    13.945861140966530
 Root     38 :    14.036282609259360
 Root     39 :    14.308929073501290
 Root     40 :    14.485060171086710
 Root     41 :    14.611857746949130
 Root     42 :    14.730885902611180
 Root     43 :    14.875522467476980
 Root     44 :    14.924941831464780
 Root     45 :    15.261337139248700
 Root     46 :    15.312787591858270
 Root     47 :    15.410173979552020
 Root     48 :    15.583067544238900
 Root     49 :    15.825641913582310
 Root     50 :    15.848521155199950
 Root     51 :    15.966747394664780
 Root     52 :    16.283082106611430
 Root     53 :    16.508503555295120
 Root     54 :    16.595426583225940
 Root     55 :    17.006218236458450
 Root     56 :    17.208976223876400
 Root     57 :    17.514814519151870
 Root     58 :    18.019305400287280
 Root     59 :    18.114105720617780
 Root     60 :    18.239820279698480
 Iteration     2 Dimension   120 NMult    60 NNew     60
 CISAX will form    60 AO SS matrices at one time.
 NMat=    60 NSing=    60 JSym2X= 0.
 Root      1 not converged, maximum delta is    0.021206319885528
 Root      2 not converged, maximum delta is    0.122190313161590
 Root      3 not converged, maximum delta is    0.134809454341951
 Root      4 not converged, maximum delta is    0.042832351532753
 Root      5 not converged, maximum delta is    0.018501926245681
 Root      6 not converged, maximum delta is    0.030929754869045
 Root      7 not converged, maximum delta is    0.019124999635727
 Root      8 not converged, maximum delta is    0.016543566615906
 Root      9 not converged, maximum delta is    0.016799539906152
 Root     10 not converged, maximum delta is    0.052074436662990
 Root     11 not converged, maximum delta is    0.049596316101239
 Root     12 not converged, maximum delta is    0.057155338769624
 Root     13 not converged, maximum delta is    0.065478789070815
 Root     14 not converged, maximum delta is    0.064978826041224
 Root     15 not converged, maximum delta is    0.064871616013228
 Excitation Energies [eV] at current iteration:
 Root      1 :     5.462835705137498   Change is   -0.065430219230447
 Root      2 :     6.862991320579180   Change is   -0.030914711075306
 Root      3 :     6.887233500471729   Change is   -0.044307232833292
 Root      4 :     7.203853905249306   Change is   -0.056356714162816
 Root      5 :     7.741970368571906   Change is   -0.016624142395285
 Root      6 :     8.107914505470459   Change is   -0.031495698068522
 Root      7 :     8.652296794977984   Change is   -0.024457966390981
 Root      8 :     8.784022365973318   Change is   -0.011274959795192
 Root      9 :     9.255528072517746   Change is   -0.014175603705345
 Root     10 :     9.612661063954821   Change is   -0.252225932657102
 Root     11 :     9.886097349370926   Change is   -0.079413723978267
 Root     12 :    10.124513259331810   Change is   -0.057824760533121
 Root     13 :    10.154337289558630   Change is   -0.081945034020383
 Root     14 :    10.250313325678450   Change is   -0.053903614377227
 Root     15 :    10.283700833420010   Change is   -0.096014137511792
 Root     16 :    10.557305966612050   Change is   -0.171283830935986
 Root     17 :    10.806053491491030   Change is   -0.064249211005950
 Root     18 :    10.869852288419360   Change is   -0.112918992468150
 Root     19 :    10.941601655904890   Change is   -0.244043991493053
 Root     20 :    11.309405039570370   Change is   -0.258410141299129
 Root     21 :    11.554693494760550   Change is   -0.198323281160963
 Root     22 :    11.638336292461580   Change is   -0.033634926911463
 Root     23 :    11.688727313860860   Change is   -0.143984275592415
 Root     24 :    11.732906594109880   Change is   -0.323950729650621
 Root     25 :    11.894605780167120   Change is   -0.126387113668722
 Root     26 :    12.106230855822860   Change is   -0.137050984026379
 Root     27 :    12.134993481846920   Change is   -0.219212055991539
 Root     28 :    12.532833467380700   Change is   -0.186548421455965
 Root     29 :    12.601453959530960   Change is   -0.140676706744668
 Root     30 :    12.914894272139170   Change is   -0.196435181553729
 Root     31 :    12.968433803566740   Change is   -0.339559480458588
 Root     32 :    13.230088764821970   Change is   -0.115689725294013
 Root     33 :    13.290335139463520   Change is   -0.184543298278594
 Root     34 :    13.552127489223140   Change is   -0.113553604004416
 Root     35 :    13.616477347631500   Change is   -0.120668650609721
 Root     36 :    13.821957433390170   Change is   -0.059221936901458
 Root     37 :    13.852999265922800   Change is   -0.092861875043722
 Root     38 :    13.888192858893050   Change is   -0.148089750366319
 Root     39 :    14.108435219478990   Change is   -0.200493854022303
 Root     40 :    14.168780935956920   Change is   -0.316279235129783
 Root     41 :    14.369709361554990   Change is   -0.242148385394141
 Root     42 :    14.510940818349320   Change is   -0.219945084261868
 Root     43 :    14.713627881526450   Change is   -0.161894585950522
 Root     44 :    14.796337520376050   Change is   -0.128604311088721
 Root     45 :    15.033573931104310   Change is   -0.227763208144396
 Root     46 :    15.108465389890910   Change is   -0.204322201967364
 Root     47 :    15.302843753250840   Change is   -0.280223790988066
 Root     48 :    15.329365389480570   Change is   -0.080808590071454
 Root     49 :    15.604950545388350   Change is   -0.220691368193955
 Root     50 :    15.660248540239020   Change is   -0.188272614960921
 Root     51 :    15.732257263787300   Change is   -0.234490130877483
 Root     52 :    16.021598412381880   Change is   -0.573828170844063
 Root     53 :    16.033929446553570   Change is   -0.249152660057866
 Root     54 :    16.259822479080550   Change is   -0.248681076214577
 Root     55 :    16.347157530509350   Change is   -0.659060705949100
 Root     56 :    16.921597571993570   Change is   -0.287378651882832
 Root     57 :    16.966814257420020
 Root     58 :    17.030915052518950
 Root     59 :    17.306345617642810   Change is   -0.208468901509067
 Root     60 :    17.335699044884110
 Iteration     3 Dimension   135 NMult   120 NNew     15
 CISAX will form    15 AO SS matrices at one time.
 NMat=    15 NSing=    15 JSym2X= 0.
 Root      1 not converged, maximum delta is    0.001272248462772
 Root      2 not converged, maximum delta is    0.000192655351753
 Root      3 not converged, maximum delta is    0.000083663488889
 Root      4 not converged, maximum delta is    0.000063985681075
 Root      5 not converged, maximum delta is    0.000073273039545
 Root      6 not converged, maximum delta is    0.000050874057577
 Root      7 not converged, maximum delta is    0.000695597548520
 Root      8 not converged, maximum delta is    0.000158978216566
 Root      9 not converged, maximum delta is    0.000114694097890
 Root     10 not converged, maximum delta is    0.001376068600081
 Root     11 not converged, maximum delta is    0.000185338853697
 Root     12 not converged, maximum delta is    0.001056517569318
 Root     13 not converged, maximum delta is    0.000425306946656
 Root     14 not converged, maximum delta is    0.001449767107066
 Root     15 not converged, maximum delta is    0.001880119144120
 Excitation Energies [eV] at current iteration:
 Root      1 :     5.462498296500231   Change is   -0.000337408637267
 Root      2 :     6.862984850349434   Change is   -0.000006470229747
 Root      3 :     6.887230961042321   Change is   -0.000002539429408
 Root      4 :     7.203852263620599   Change is   -0.000001641628707
 Root      5 :     7.741968762466907   Change is   -0.000001606104998
 Root      6 :     8.107913531556834   Change is   -0.000000973913625
 Root      7 :     8.652236505945634   Change is   -0.000060289032349
 Root      8 :     8.784014536151810   Change is   -0.000007829821507
 Root      9 :     9.255524937000716   Change is   -0.000003135517029
 Root     10 :     9.611956114276545   Change is   -0.000704949678277
 Root     11 :     9.886091755115306   Change is   -0.000005594255620
 Root     12 :    10.124305271532440   Change is   -0.000207987799376
 Root     13 :    10.154313699769450   Change is   -0.000023589789182
 Root     14 :    10.250178829437070   Change is   -0.000134496241379
 Root     15 :    10.283324821121260   Change is   -0.000376012298750
 Iteration     4 Dimension   143 NMult   135 NNew      8
 CISAX will form     8 AO SS matrices at one time.
 NMat=     8 NSing=     8 JSym2X= 0.
 Root      1 not converged, maximum delta is    0.000093429404570
 Root      2 not converged, maximum delta is    0.000009244261232
 Root      3 not converged, maximum delta is    0.000005034488955
 Root      4 not converged, maximum delta is    0.000003565975437
 Root      5 not converged, maximum delta is    0.000003501681031
 Root      6 not converged, maximum delta is    0.000004989378955
 Root      7 not converged, maximum delta is    0.000028833765941
 Root      8 not converged, maximum delta is    0.000008001004906
 Root      9 not converged, maximum delta is    0.000007410774377
 Root     10 not converged, maximum delta is    0.000129549462188
 Root     11 not converged, maximum delta is    0.000010803118051
 Root     12 not converged, maximum delta is    0.000053125465809
 Root     13 not converged, maximum delta is    0.000029553325574
 Root     14 not converged, maximum delta is    0.000067118880339
 Root     15 not converged, maximum delta is    0.000249951537067
 Excitation Energies [eV] at current iteration:
 Root      1 :     5.462497488584105   Change is   -0.000000807916126
 Root      2 :     6.862984824264597   Change is   -0.000000026084836
 Root      3 :     6.887230955800507   Change is   -0.000000005241814
 Root      4 :     7.203852260978119   Change is   -0.000000002642479
 Root      5 :     7.741968760307587   Change is   -0.000000002159321
 Root      6 :     8.107913528331189   Change is   -0.000000003225645
 Root      7 :     8.652236353065065   Change is   -0.000000152880570
 Root      8 :     8.784014513231368   Change is   -0.000000022920443
 Root      9 :     9.255524928120211   Change is   -0.000000008880505
 Root     10 :     9.611954735697022   Change is   -0.000001378579522
 Root     11 :     9.886091743744826   Change is   -0.000000011370479
 Root     12 :    10.124304442258520   Change is   -0.000000829273912
 Root     13 :    10.154313643452800   Change is   -0.000000056316642
 Root     14 :    10.250178332599140   Change is   -0.000000496837928
 Root     15 :    10.283320727903390   Change is   -0.000004093217875
 Convergence achieved on expansion vectors.
 ***********************************************************************
 Excited states from <AA,BB:AA,BB> singles matrix:
 ***********************************************************************
 
 1PDM for each excited state written to RWF  633
 Ground to excited state transition densities written to RWF  633
 Ground to excited state transition electric dipole moments (Au):
       state          X           Y           Z        Dip. S.      Osc.
         1        -1.5646      0.4142     -0.1093      2.6314      0.3522
         2        -0.0108      0.0518     -0.0044      0.0028      0.0005
         3         0.0233     -0.0274      0.2654      0.0718      0.0121
         4         0.0167     -0.0057      0.1602      0.0260      0.0046
         5         0.0306     -0.0127      0.1735      0.0312      0.0059
         6        -0.0103      0.0060     -0.0097      0.0002      0.0000
         7         0.1378      0.7099      0.0381      0.5243      0.1111
         8         0.0041      0.0229      0.3023      0.0919      0.0198
         9        -0.0218     -0.0017      0.1273      0.0167      0.0038
        10         0.0637      0.2748     -0.0031      0.0796      0.0187
        11        -0.0097      0.0253      0.0964      0.0100      0.0024
        12         0.0711     -0.1399     -0.0519      0.0273      0.0068
        13        -0.0426     -0.0553      0.5182      0.2734      0.0680
        14        -0.4185      0.1289     -0.0717      0.1969      0.0494
        15        -0.9297      0.1071     -0.0370      0.8773      0.2210
 Ground to excited state transition velocity dipole moments (Au):
       state          X           Y           Z        Dip. S.      Osc.
         1         0.1892     -0.0557      0.0123      0.0390      0.1297
         2         0.0013     -0.0155     -0.0257      0.0009      0.0024
         3        -0.0077      0.0045     -0.1548      0.0240      0.0633
         4         0.0013      0.0097     -0.1063      0.0114      0.0287
         5        -0.0011     -0.0033     -0.0001      0.0000      0.0000
         6         0.0038      0.0066     -0.0076      0.0001      0.0003
         7        -0.0440     -0.2193     -0.0085      0.0501      0.1051
         8         0.0036     -0.0029      0.0153      0.0003      0.0005
         9         0.0032      0.0033     -0.0099      0.0001      0.0002
        10         0.0000     -0.0679      0.0231      0.0051      0.0097
        11         0.0029     -0.0028      0.0134      0.0002      0.0004
        12        -0.0172     -0.0020      0.0199      0.0007      0.0012
        13         0.0094      0.0083      0.0734      0.0055      0.0099
        14         0.0737      0.0017      0.0457      0.0075      0.0133
        15         0.1412     -0.0231     -0.0036      0.0205      0.0362
 Ground to excited state transition magnetic dipole moments (Au):
       state          X           Y           Z
         1         0.0216     -0.0057     -0.5679
         2        -0.0299     -0.8768     -0.0181
         3        -0.2741      0.2182      0.0185
         4        -0.1003      0.0593      0.0031
         5        -0.8632     -0.0089      0.0144
         6         0.1618      0.6782      0.0032
         7        -0.0147      0.1045     -0.0400
         8        -0.4455      0.1698     -0.0119
         9        -0.3128     -0.2614     -0.0057
        10         0.0162      0.0172      0.0860
        11        -0.0294     -0.1801     -0.0266
        12        -0.0505      0.1396      0.0217
        13         0.2070      0.0410     -0.0566
        14        -0.0704      0.2176     -0.1728
        15         0.0288     -0.0560     -0.5369
 Ground to excited state transition velocity quadrupole moments (Au):
       state          XX          YY          ZZ          XY          XZ          YZ
         1         0.1326     -0.1596      0.0030      0.3037      0.0098      0.0323
         2         0.0099     -0.0437     -0.0188      0.0016     -0.1790     -0.0133
         3         0.0293      0.0022     -0.0048      0.0043      0.0809     -0.1386
         4        -0.0219      0.0122      0.0139      0.0190     -0.1661     -0.0481
         5        -0.0016     -0.0109     -0.0011      0.0035     -0.0607      0.1665
         6         0.0134     -0.0015     -0.0173      0.0061     -0.4351      0.0597
         7         0.2463     -0.2569      0.0242     -0.1374     -0.0256     -0.0038
         8        -0.0142     -0.0162      0.0117     -0.0005     -0.0423     -0.1228
         9        -0.0026      0.0219     -0.0088      0.0081      0.0878     -0.1092
        10         0.0130     -0.2166     -0.0125      0.0000     -0.0065      0.0196
        11        -0.0062     -0.0125     -0.0045     -0.0048      0.2797     -0.0544
        12        -0.3662     -0.2056     -0.0327     -0.0010     -0.1845     -0.0468
        13        -0.0014     -0.0054      0.0088      0.0248     -0.0804      0.1539
        14         0.2504      0.0648      0.0511      0.0769     -0.2365     -0.0649
        15        -0.0311     -0.1360     -0.0386      0.2498      0.0715     -0.0024
 <0|del|b> * <b|rxdel|0> + <0|del|b> * <b|delr+rdel|0>
 Rotatory Strengths (R) in cgs (10**-40 erg-esu-cm/Gauss)
       state          XX          YY          ZZ    R(velocity)    E-M Angle
         1        -4.1826     -0.8458     -3.9449     -2.9911       91.30
         2        15.7438      0.6257     22.8900     13.0865       57.88
         3        -4.0699      1.3776      3.3265      0.2114       89.76
         4        -0.2423      1.9929     -1.4701      0.0935       89.52
         5        -0.2163      0.9730      1.7277      0.8281       70.71
         6         8.6040      1.0366      2.3623      4.0010       47.48
         7       -30.0369     -0.0167    -18.7156    -16.2564      150.26
         8        -0.8725     -2.4609     -1.6886     -1.6740      107.49
         9        -1.2273     -1.2429     -1.2661     -1.2455      113.74
        10         0.3836      1.9926     -0.7257      0.5502       82.59
        11         0.8654     -0.5212     -0.2056      0.0462       90.00
        12        -0.2219      2.0208      0.1458      0.6483       75.02
        13        -1.2543     -2.4316      0.1624     -1.1745       96.56
        14        -3.3807    -20.0735     -0.4091     -7.9544      120.74
        15         3.7305      6.1579      3.7860      4.5581       84.58
 1/2[<0|r|b>*<b|rxdel|0> + (<0|rxdel|b>*<b|r|0>)*]
 Rotatory Strengths (R) in cgs (10**-40 erg-esu-cm/Gauss)
       state          XX          YY          ZZ     R(length)
         1        23.9326      1.6782    -43.8948     -6.0947
         2        -0.2290     32.1014     -0.0559     10.6055
         3         4.5259      4.2314     -3.4716      1.7619
         4         1.1857      0.2395     -0.3543      0.3570
         5        18.6785     -0.0803     -1.7696      5.6096
         6         1.1841     -2.8600      0.0218     -0.5514
         7         1.4299    -52.4427      1.0756    -16.6458
         8         1.3032     -2.7470      2.5392      0.3651
         9        -4.8317     -0.3069      0.5117     -1.5423
        10        -0.7307     -3.3368      0.1874     -1.2934
        11        -0.2017      3.2164      1.8157      1.6101
        12         2.5385     13.8024      0.7973      5.7127
        13         6.2329      1.6010     20.7396      9.5245
        14       -20.8260    -19.8433     -8.7592    -16.4762
        15        18.9387      4.2403    -14.0543      3.0415
  1/2[<0|del|b>*<b|r|0> + (<0|r|b>*<b|del|0>)*] (Au)
       state          X           Y           Z        Dip. S.   Osc.(frdel)
         1        -0.2960     -0.0231     -0.0013      0.3204      0.2136
         2         0.0000     -0.0008      0.0001      0.0007      0.0005
         3        -0.0002     -0.0001     -0.0411      0.0414      0.0276
         4         0.0000     -0.0001     -0.0170      0.0171      0.0114
         5         0.0000      0.0000      0.0000      0.0000      0.0000
         6         0.0000      0.0000      0.0001     -0.0001      0.0000
         7        -0.0061     -0.1557     -0.0003      0.1621      0.1081
         8         0.0000     -0.0001      0.0046     -0.0046     -0.0031
         9        -0.0001      0.0000     -0.0013      0.0013      0.0009
        10         0.0000     -0.0187     -0.0001      0.0187      0.0125
        11         0.0000     -0.0001      0.0013     -0.0012     -0.0008
        12        -0.0012      0.0003     -0.0010      0.0020      0.0013
        13        -0.0004     -0.0005      0.0380     -0.0372     -0.0248
        14        -0.0308      0.0002     -0.0033      0.0339      0.0226
        15        -0.1313     -0.0025      0.0001      0.1337      0.0891

 Excitation energies and oscillator strengths:
 
 Excited State   1:      Singlet-A      5.4625 eV  226.97 nm  f=0.3522  <S**2>=0.000
      13 -> 14         0.69459
 This state for optimization and/or second-order correction.
 Total Energy, E(CIS) =   2.22155191482    
 Copying the excited state density for this state as the 1-particle RhoCI density.
 
 Excited State   2:      Singlet-A      6.8630 eV  180.66 nm  f=0.0005  <S**2>=0.000
      12 -> 14         0.67345
      13 -> 15         0.14505
 
 Excited State   3:      Singlet-A      6.8872 eV  180.02 nm  f=0.0121  <S**2>=0.000
      12 -> 14        -0.16434
      13 -> 15         0.62270
      13 -> 17         0.25319
 
 Excited State   4:      Singlet-A      7.2039 eV  172.11 nm  f=0.0046  <S**2>=0.000
      13 -> 16         0.62745
      13 -> 18         0.27878
 
 Excited State   5:      Singlet-A      7.7420 eV  160.15 nm  f=0.0059  <S**2>=0.000
      10 -> 14         0.69685
 
 Excited State   6:      Singlet-A      8.1079 eV  152.92 nm  f=0.0000  <S**2>=0.000
      11 -> 15         0.10986
      13 -> 15        -0.11568
      13 -> 16         0.18763
      13 -> 17         0.12901
      13 -> 18        -0.27377
      13 -> 19         0.54490
      13 -> 20         0.18500
 
 Excited State   7:      Singlet-A      8.6522 eV  143.30 nm  f=0.1111  <S**2>=0.000
      11 -> 14         0.68803
 
 Excited State   8:      Singlet-A      8.7840 eV  141.15 nm  f=0.0198  <S**2>=0.000
      11 -> 15         0.14471
      11 -> 16        -0.11389
      13 -> 15        -0.20247
      13 -> 17         0.61081
      13 -> 19        -0.17314
 
 Excited State   9:      Singlet-A      9.2555 eV  133.96 nm  f=0.0038  <S**2>=0.000
      11 -> 16        -0.13906
      13 -> 16        -0.17333
      13 -> 18         0.52419
      13 -> 19         0.37653
 
 Excited State  10:      Singlet-A      9.6120 eV  128.99 nm  f=0.0187  <S**2>=0.000
      10 -> 15        -0.23182
      10 -> 16        -0.19832
      10 -> 17        -0.18017
      10 -> 18        -0.13477
      12 -> 15         0.28291
      12 -> 16        -0.16819
      12 -> 17         0.18978
      12 -> 18        -0.21381
      12 -> 19         0.27759
 
 Excited State  11:      Singlet-A      9.8861 eV  125.41 nm  f=0.0024  <S**2>=0.000
      13 -> 18         0.18796
      13 -> 19        -0.11709
      13 -> 20         0.62606
      13 -> 21        -0.20892
 
 Excited State  12:      Singlet-A     10.1243 eV  122.46 nm  f=0.0068  <S**2>=0.000
      10 -> 15         0.15421
      11 -> 15         0.28594
      12 -> 15         0.40982
      12 -> 16         0.32324
      12 -> 17         0.13706
      12 -> 18         0.14314
 
 Excited State  13:      Singlet-A     10.1543 eV  122.10 nm  f=0.0680  <S**2>=0.000
      13 -> 20         0.17742
      13 -> 21         0.65338
 
 Excited State  14:      Singlet-A     10.2502 eV  120.96 nm  f=0.0494  <S**2>=0.000
      10 -> 16         0.15074
      11 -> 15         0.47828
      11 -> 16         0.12030
      11 -> 17         0.11601
      12 -> 16        -0.34895
      12 -> 18        -0.12460
      13 -> 15         0.10445
 
 Excited State  15:      Singlet-A     10.2833 eV  120.57 nm  f=0.2210  <S**2>=0.000
      10 -> 15         0.46010
      10 -> 17         0.21058
      11 -> 15        -0.15949
      12 -> 15         0.18565
      12 -> 16        -0.31391
      12 -> 17         0.13733
      12 -> 18        -0.15586
 SavETr:  write IOETrn=   770 NScale= 10 NData=  16 NLR=1 NState=   15 LETran=     280.
 The selected state is a singlet
 CISAX will form     1 AO SS matrices at one time.
 NMat=     1 NSing=     1 JSym2X= 0.
 Leave Link  914 at Tue Dec 15 17:07:12 2015, MaxMem=    33554432 cpu:         0.1
 (Enter /home/Applications/g09/g09/l1002.exe)
 Minotr:  Closed shell wavefunction.
          Computing CIS/TD-HF/TD-KS derivatives.
          Using Z-Vector for PSCF gradient.
          Skipping F1 and S1 gradient terms here.
          IDoAtm=111111111
          Direct CPHF calculation.
          Differentiating once with respect to electric field.
                with respect to dipole field.
          Differentiating once with respect to nuclear coordinates.
          Electric field/nuclear overlap derivatives assumed to be zero.
          Requested convergence is 1.0D-10 RMS, and 1.0D-09 maximum.
          NewPWx=T KeepS1=F KeepF1=F KeepIn=T MapXYZ=F SortEE=F KeepMc=T.
          MDV=      33495423 using IRadAn=       0.
 Keep J ints in memory in canonical form, NReq=871704.
 FoFCou: FMM=F IPFlag=           0 FMFlag=           0 FMFlg1=           0
         NFxFlg=           0 DoJE=F BraDBF=F KetDBF=F FulRan=T
         wScrn=  0.000000 ICntrl=     600 IOpCl=  2 I1Cent=           0 NGrid=           0
         NMat0=    1 NMatS0=     54 NMatT0=    0 NMatD0=    1 NMtDS0=    0 NMtDT0=    0
 Symmetry not used in FoFCou.
          Solving linear equations separately, MaxMat=       0.
          There are     1 degrees of freedom in the 1st order CPHF.  IDoFFX=0 NUNeed=     1.
 LinEq1:  Iter=  0 NonCon=     1 RMS=7.03D-03 Max=4.76D-02 NDo=     1
 AX will form     1 AO Fock derivatives at one time.
 LinEq1:  Iter=  1 NonCon=     1 RMS=5.87D-04 Max=2.14D-03 NDo=     1
 LinEq1:  Iter=  2 NonCon=     1 RMS=8.40D-05 Max=7.46D-04 NDo=     1
 LinEq1:  Iter=  3 NonCon=     1 RMS=1.00D-05 Max=3.64D-05 NDo=     1
 LinEq1:  Iter=  4 NonCon=     1 RMS=1.70D-06 Max=8.80D-06 NDo=     1
 LinEq1:  Iter=  5 NonCon=     1 RMS=1.99D-07 Max=7.15D-07 NDo=     1
 LinEq1:  Iter=  6 NonCon=     1 RMS=2.69D-08 Max=9.51D-08 NDo=     1
 LinEq1:  Iter=  7 NonCon=     1 RMS=3.15D-09 Max=9.88D-09 NDo=     1
 LinEq1:  Iter=  8 NonCon=     1 RMS=3.64D-10 Max=1.20D-09 NDo=     1
 LinEq1:  Iter=  9 NonCon=     0 RMS=4.44D-11 Max=1.44D-10 NDo=     1
 Linear equations converged to 1.000D-10 1.000D-09 after     9 iterations.
 End of Minotr F.D. properties file   721 does not exist.
 End of Minotr F.D. properties file   722 does not exist.
 End of Minotr F.D. properties file   788 does not exist.
 Leave Link 1002 at Tue Dec 15 17:07:12 2015, MaxMem=    33554432 cpu:         0.0
 (Enter /home/Applications/g09/g09/l601.exe)
 Copying SCF densities to generalized density rwf, IOpCl= 0 IROHF=0.

 **********************************************************************

            Population analysis using the SCF density.

 **********************************************************************

 Orbital symmetries:
       Occupied  (A) (A) (A) (A) (A) (A) (A) (A) (A) (A) (A) (A)
                 (A)
       Virtual   (A) (A) (A) (A) (A) (A) (A) (A) (A) (A) (A)
 The electronic state is 1-A.
 Alpha  occ. eigenvalues --   -1.92955  -1.19260  -0.94681  -0.81842  -0.79244
 Alpha  occ. eigenvalues --   -0.68570  -0.63988  -0.55355  -0.54211  -0.44440
 Alpha  occ. eigenvalues --   -0.43952  -0.41887  -0.30198
 Alpha virt. eigenvalues --    0.10588   0.18881   0.20559   0.25056   0.27345
 Alpha virt. eigenvalues --    0.28393   0.30627   0.31075   0.34825   0.43573
 Alpha virt. eigenvalues --    0.48331
     Molecular Orbital Coefficients:
                           1         2         3         4         5
                           O         O         O         O         O
     Eigenvalues --    -1.92955  -1.19260  -0.94681  -0.81842  -0.79244
   1 1   C  1S          0.07317   0.46795  -0.27917   0.29948  -0.17167
   2        1PX         0.02969   0.15354   0.19394  -0.18865  -0.25275
   3        1PY        -0.09986  -0.14020   0.07723   0.08221  -0.30345
   4        1PZ         0.00245   0.01196  -0.00873   0.00340  -0.00536
   5 2   C  1S          0.22734   0.21813  -0.51126  -0.18501   0.41122
   6        1PX         0.20077   0.18442   0.01892  -0.03963  -0.05852
   7        1PY        -0.15739   0.23613   0.02585   0.52150  -0.06046
   8        1PZ         0.00360   0.00054  -0.01171  -0.01515   0.00886
   9 3   O  1S          0.85771  -0.27053   0.01031   0.03070  -0.27177
  10        1PX         0.00509   0.03579   0.23609   0.28623   0.03918
  11        1PY         0.04732   0.15765  -0.05007  -0.05845   0.16723
  12        1PZ        -0.00051  -0.00101  -0.00071  -0.00423  -0.00181
  13 4   C  1S          0.21821   0.27009   0.53114   0.08824   0.37908
  14        1PX        -0.23170  -0.09643   0.04707  -0.24955  -0.00507
  15        1PY        -0.07473   0.29152  -0.06073  -0.43653  -0.17124
  16        1PZ         0.00626   0.00726   0.01635  -0.00252   0.01226
  17 5   C  1S          0.07902   0.50299   0.22027  -0.25641  -0.24892
  18        1PX        -0.06482  -0.17508   0.20220  -0.24262   0.05393
  19        1PY        -0.08752  -0.08456  -0.18148   0.03650  -0.37955
  20        1PZ        -0.00216  -0.01353  -0.00495   0.00388   0.00684
  21 6   H  1S          0.00564   0.15046   0.10457  -0.17750  -0.21501
  22 7   H  1S          0.04471   0.03959   0.25854   0.03726   0.20628
  23 8   H  1S          0.04457   0.01588  -0.22390  -0.10553   0.21101
  24 9   H  1S          0.00534   0.13511  -0.13767   0.20746  -0.13938
                           6         7         8         9        10
                           O         O         O         O         O
     Eigenvalues --    -0.68570  -0.63988  -0.55355  -0.54211  -0.44440
   1 1   C  1S         -0.19356  -0.03874   0.14467  -0.03034   0.11238
   2        1PX         0.17398   0.02361  -0.01563  -0.32554  -0.16699
   3        1PY        -0.20551  -0.01004   0.02816  -0.22844   0.54401
   4        1PZ        -0.04986   0.37772   0.02347  -0.01482  -0.00911
   5 2   C  1S         -0.15560  -0.03541   0.05059  -0.10076  -0.11376
   6        1PX         0.44908   0.03140   0.61878   0.06739   0.00749
   7        1PY        -0.07124  -0.00286  -0.10108   0.49443  -0.33764
   8        1PZ        -0.07796   0.55164   0.01731  -0.02668  -0.01758
   9 3   O  1S         -0.15589  -0.01865  -0.04368   0.24236  -0.03583
  10        1PX         0.03293   0.01524  -0.15832  -0.05048  -0.06134
  11        1PY         0.19725   0.02446   0.05968  -0.11024   0.05677
  12        1PZ        -0.03441   0.23981   0.00994   0.01254  -0.00298
  13 4   C  1S         -0.14759  -0.02856  -0.02430  -0.13183   0.14219
  14        1PX        -0.44283  -0.07634   0.52530   0.27143  -0.06735
  15        1PY         0.10835   0.01593  -0.23540   0.47228   0.30070
  16        1PZ        -0.06455   0.56386   0.02141   0.03597   0.01047
  17 5   C  1S         -0.14734  -0.00082  -0.13101  -0.06924  -0.11229
  18        1PX        -0.20776  -0.03920  -0.05087   0.19768  -0.07779
  19        1PY        -0.13256  -0.02578   0.08649  -0.33429  -0.37842
  20        1PZ        -0.04435   0.39827   0.02538   0.00976  -0.01202
  21 6   H  1S         -0.20241  -0.03027  -0.04827  -0.09532  -0.26598
  22 7   H  1S         -0.29128  -0.05077   0.30162  -0.06850  -0.05221
  23 8   H  1S         -0.28963  -0.01566  -0.29915  -0.14362  -0.02757
  24 9   H  1S         -0.23902  -0.02323   0.08836  -0.04159   0.41994
                          11        12        13        14        15
                           O         O         O         V         V
     Eigenvalues --    -0.43952  -0.41887  -0.30198   0.10588   0.18881
   1 1   C  1S          0.00294  -0.08455  -0.01949   0.01689  -0.16895
   2        1PX         0.06199  -0.42059  -0.01692   0.00598   0.23925
   3        1PY        -0.01968   0.13160  -0.01013   0.01572   0.31319
   4        1PZ         0.17610   0.02946   0.61579  -0.66358   0.01603
   5 2   C  1S         -0.04166   0.11863  -0.00285  -0.00650  -0.05342
   6        1PX        -0.02695   0.27320  -0.01404   0.01003   0.36875
   7        1PY         0.02462   0.03159  -0.00740   0.00463   0.32444
   8        1PZ         0.68656   0.12329  -0.33140   0.19004  -0.03175
   9 3   O  1S          0.02503  -0.09134   0.00321   0.00006   0.02622
  10        1PX        -0.00955   0.05515  -0.00427  -0.00166   0.05559
  11        1PY        -0.02605   0.15667  -0.00646  -0.00195   0.14335
  12        1PZ         0.02481  -0.00194  -0.20994  -0.00652  -0.01196
  13 4   C  1S          0.00449   0.05825   0.00664  -0.00386  -0.00360
  14        1PX         0.05986  -0.31001   0.00183  -0.00017  -0.00066
  15        1PY         0.03495  -0.03903   0.00930  -0.00504   0.14994
  16        1PZ        -0.64117  -0.10835  -0.39323  -0.22437   0.00616
  17 5   C  1S         -0.01555  -0.00491   0.02506   0.02750  -0.15188
  18        1PX        -0.08960   0.56162  -0.01237  -0.00593   0.07568
  19        1PY        -0.05510   0.19624  -0.01391  -0.01508   0.11390
  20        1PZ        -0.23289  -0.01991   0.55669   0.68615   0.00331
  21 6   H  1S         -0.07337   0.36352  -0.00667  -0.01113  -0.09779
  22 7   H  1S          0.02128  -0.12923   0.00109   0.00182   0.13201
  23 8   H  1S          0.01934  -0.11058  -0.00774   0.01803   0.67116
  24 9   H  1S         -0.02524   0.16953   0.00804  -0.01004  -0.06738
                          16        17        18        19        20
                           V         V         V         V         V
     Eigenvalues --     0.20559   0.25056   0.27345   0.28393   0.30627
   1 1   C  1S         -0.09812  -0.09602  -0.09970   0.38952   0.28175
   2        1PX        -0.15970   0.33113  -0.41021   0.18454   0.19894
   3        1PY         0.02243   0.37366   0.04234  -0.35585   0.06655
   4        1PZ        -0.01091   0.00428  -0.01030   0.00837   0.01065
   5 2   C  1S          0.05086   0.50036  -0.10672  -0.21606  -0.01717
   6        1PX        -0.14368  -0.14078   0.06747  -0.03717  -0.07389
   7        1PY         0.00156   0.25736  -0.04159  -0.18159  -0.02330
   8        1PZ         0.00667   0.00253  -0.00366   0.00564  -0.00490
   9 3   O  1S          0.01856   0.03291   0.01398  -0.00487   0.01432
  10        1PX        -0.02647   0.01791  -0.03372  -0.01391   0.00559
  11        1PY         0.09823   0.00896   0.00229  -0.03036   0.06661
  12        1PZ         0.00743   0.00117   0.01229  -0.00414   0.01669
  13 4   C  1S         -0.02611   0.21055   0.45156   0.25747   0.09996
  14        1PX        -0.25847   0.09530   0.22561  -0.00871   0.03569
  15        1PY         0.41458   0.05399   0.12961   0.17651   0.13034
  16        1PZ         0.00193  -0.00062   0.00537   0.00545  -0.00543
  17 5   C  1S         -0.13568  -0.08575  -0.00169  -0.27539  -0.58910
  18        1PX        -0.19166   0.15236  -0.41380   0.41123  -0.07940
  19        1PY         0.37332   0.13778   0.37751   0.34337  -0.20572
  20        1PZ         0.01161   0.01377   0.00059   0.02391   0.02945
  21 6   H  1S         -0.03185  -0.24379   0.04653  -0.34934   0.63225
  22 7   H  1S          0.66233  -0.22492  -0.39487  -0.08939  -0.03447
  23 8   H  1S         -0.22342  -0.40578   0.09627   0.06847  -0.03482
  24 9   H  1S         -0.08124  -0.15112  -0.21903   0.09796  -0.19561
                          21        22        23        24
                           V         V         V         V
     Eigenvalues --     0.31075   0.34825   0.43573   0.48331
   1 1   C  1S         -0.44812   0.00902   0.08800   0.01527
   2        1PX         0.23354  -0.00356  -0.04834  -0.03587
   3        1PY        -0.29026   0.00521   0.01706  -0.02487
   4        1PZ        -0.02602   0.03080   0.00028  -0.00060
   5 2   C  1S          0.04889  -0.00106  -0.14466   0.17764
   6        1PX        -0.05311   0.00083  -0.22825   0.10853
   7        1PY         0.10134  -0.00790  -0.00603  -0.22503
   8        1PZ        -0.00448  -0.23274   0.00380   0.00394
   9 3   O  1S          0.02861  -0.00149   0.13135  -0.00829
  10        1PX         0.02459   0.01008   0.18262   0.88550
  11        1PY         0.12848   0.02220   0.87701  -0.18306
  12        1PZ         0.02280   0.94572  -0.02659  -0.00419
  13 4   C  1S          0.10665  -0.00620  -0.14333  -0.15620
  14        1PX         0.10851  -0.00654   0.22188   0.16596
  15        1PY         0.07221  -0.01119  -0.05816   0.17661
  16        1PZ        -0.00402  -0.21804  -0.00066  -0.00487
  17 5   C  1S         -0.16415   0.01677   0.08482  -0.02155
  18        1PX        -0.17575   0.01598   0.04641  -0.02848
  19        1PY         0.09284  -0.00127   0.01349   0.03690
  20        1PZ         0.01420   0.03044  -0.00318   0.00206
  21 6   H  1S          0.16751  -0.01853  -0.06744  -0.00315
  22 7   H  1S         -0.09103   0.00295  -0.04909  -0.01311
  23 8   H  1S         -0.04211   0.00616  -0.04251   0.01235
  24 9   H  1S          0.70187  -0.01054  -0.06803   0.00526
     Density Matrix:
                           1         2         3         4         5
   1 1   C  1S          1.00481
   2        1PX        -0.00580   1.01498
   3        1PY         0.16713  -0.11528   1.08701
   4        1PZ        -0.01196  -0.00947  -0.00194   1.11470
   5 2   C  1S          0.30883  -0.31455  -0.44283  -0.00540   1.26183
   6        1PX         0.14232  -0.02023  -0.15963   0.00059   0.09142
   7        1PY         0.40440  -0.34719  -0.47046   0.00174  -0.24286
   8        1PZ        -0.01832   0.01133   0.01659   0.26739  -0.00300
   9 3   O  1S          0.02013  -0.02211  -0.03668   0.00093   0.00750
  10        1PX        -0.01926  -0.00188  -0.00276  -0.00368  -0.28648
  11        1PY         0.02206  -0.04474  -0.09617  -0.00137   0.29225
  12        1PZ         0.00231   0.00557   0.00435  -0.06522  -0.00832
  13 4   C  1S         -0.00696   0.01474   0.03699   0.00130   0.00617
  14        1PX         0.05227   0.01139  -0.02551   0.00350  -0.02892
  15        1PY         0.02722  -0.01246  -0.00260  -0.00128  -0.05849
  16        1PZ         0.01040   0.00523   0.00744  -0.28458   0.00295
  17 5   C  1S          0.28913   0.50389  -0.05243   0.04662  -0.00757
  18        1PX        -0.50582  -0.57329   0.08061  -0.03969   0.00246
  19        1PY         0.14215   0.19908   0.10449  -0.00534   0.03972
  20        1PZ        -0.03957  -0.04184  -0.01328   0.90852   0.00281
  21 6   H  1S          0.00185   0.02864   0.00808  -0.00702   0.08250
  22 7   H  1S          0.06906   0.05692  -0.02182   0.00375   0.04711
  23 8   H  1S          0.05915  -0.03995  -0.08494   0.00007   0.53711
  24 9   H  1S          0.56389  -0.36563   0.68354   0.02358   0.05083
                           6         7         8         9        10
   6        1PX         1.49074
   7        1PY        -0.12091   1.46446
   8        1PZ         0.02321   0.01809   1.81708
   9 3   O  1S          0.05993  -0.04192   0.00015   1.95864
  10        1PX        -0.14544   0.34311   0.00093  -0.03714   0.35270
  11        1PY         0.38605  -0.20315   0.01576  -0.25473  -0.01539
  12        1PZ         0.00155   0.01560   0.44256   0.00784  -0.00087
  13 4   C  1S          0.00730  -0.06393   0.00230   0.00326   0.35182
  14        1PX         0.00403   0.02472   0.00002  -0.06583  -0.38262
  15        1PY        -0.01845   0.01860   0.00035  -0.01840  -0.27934
  16        1PZ        -0.00010  -0.00426  -0.01591  -0.00060   0.01272
  17 5   C  1S         -0.03304   0.04011  -0.01467   0.01968   0.02659
  18        1PX         0.01548   0.00797   0.00614   0.00841   0.00219
  19        1PY         0.01455  -0.00140   0.00401  -0.03847  -0.03540
  20        1PZ        -0.00338  -0.00702  -0.24648  -0.00207  -0.00139
  21 6   H  1S          0.04345   0.05912   0.00357   0.00758   0.02658
  22 7   H  1S          0.04191  -0.02688  -0.00120   0.01235   0.04527
  23 8   H  1S         -0.71341  -0.18118   0.04310   0.01258  -0.06746
  24 9   H  1S          0.03430  -0.01078  -0.00138   0.00695  -0.02007
                          11        12        13        14        15
  11        1PY         0.28938
  12        1PZ        -0.00335   0.20735
  13 4   C  1S          0.16971  -0.01461   1.23681
  14        1PX        -0.31308   0.01741  -0.16781   1.56654
  15        1PY         0.01595   0.00742  -0.21109   0.09088   1.39568
  16        1PZ         0.00810   0.40980  -0.01145  -0.00096  -0.01019
  17 5   C  1S          0.01839  -0.00353   0.34206  -0.01062   0.46037
  18        1PX         0.00326   0.00047   0.14626   0.09873   0.14370
  19        1PY        -0.09594  -0.00372  -0.51887  -0.02121  -0.54908
  20        1PZ        -0.00194  -0.05036  -0.02153  -0.00030  -0.02394
  21 6   H  1S          0.00787  -0.00278   0.05540  -0.04796  -0.00294
  22 7   H  1S         -0.05837  -0.00017   0.54110   0.61043  -0.40943
  23 8   H  1S         -0.04320   0.00804   0.04968  -0.05304  -0.01516
  24 9   H  1S          0.01232  -0.00310   0.07761  -0.02280   0.06560
                          16        17        18        19        20
  16        1PZ         1.80389
  17 5   C  1S          0.01714   0.98529
  18        1PX         0.00177   0.06164   1.10707
  19        1PY        -0.01890   0.13820   0.11457   1.03108
  20        1PZ         0.32130   0.02092  -0.00218   0.00009   1.05255
  21 6   H  1S         -0.00064   0.54004   0.56853   0.54872  -0.00125
  22 7   H  1S          0.00155   0.06774   0.01543  -0.09801  -0.00363
  23 8   H  1S          0.00043   0.06338  -0.05589   0.00031  -0.01367
  24 9   H  1S         -0.00338  -0.00260  -0.01426   0.00606   0.00763
                          21        22        23        24
  21 6   H  1S          0.74592
  22 7   H  1S          0.00017   0.63465
  23 8   H  1S          0.01117   0.01046   0.63142
  24 9   H  1S         -0.00076   0.00983   0.00032   0.74541
    Full Mulliken population analysis:
                           1         2         3         4         5
   1 1   C  1S          1.00481
   2        1PX         0.00000   1.01498
   3        1PY         0.00000   0.00000   1.08701
   4        1PZ         0.00000   0.00000   0.00000   1.11470
   5 2   C  1S          0.00000   0.00000   0.00000   0.00000   1.26183
   6        1PX         0.00000   0.00000   0.00000   0.00000   0.00000
   7        1PY         0.00000   0.00000   0.00000   0.00000   0.00000
   8        1PZ         0.00000   0.00000   0.00000   0.00000   0.00000
   9 3   O  1S          0.00000   0.00000   0.00000   0.00000   0.00000
  10        1PX         0.00000   0.00000   0.00000   0.00000   0.00000
  11        1PY         0.00000   0.00000   0.00000   0.00000   0.00000
  12        1PZ         0.00000   0.00000   0.00000   0.00000   0.00000
  13 4   C  1S          0.00000   0.00000   0.00000   0.00000   0.00000
  14        1PX         0.00000   0.00000   0.00000   0.00000   0.00000
  15        1PY         0.00000   0.00000   0.00000   0.00000   0.00000
  16        1PZ         0.00000   0.00000   0.00000   0.00000   0.00000
  17 5   C  1S          0.00000   0.00000   0.00000   0.00000   0.00000
  18        1PX         0.00000   0.00000   0.00000   0.00000   0.00000
  19        1PY         0.00000   0.00000   0.00000   0.00000   0.00000
  20        1PZ         0.00000   0.00000   0.00000   0.00000   0.00000
  21 6   H  1S          0.00000   0.00000   0.00000   0.00000   0.00000
  22 7   H  1S          0.00000   0.00000   0.00000   0.00000   0.00000
  23 8   H  1S          0.00000   0.00000   0.00000   0.00000   0.00000
  24 9   H  1S          0.00000   0.00000   0.00000   0.00000   0.00000
                           6         7         8         9        10
   6        1PX         1.49074
   7        1PY         0.00000   1.46446
   8        1PZ         0.00000   0.00000   1.81708
   9 3   O  1S          0.00000   0.00000   0.00000   1.95864
  10        1PX         0.00000   0.00000   0.00000   0.00000   0.35270
  11        1PY         0.00000   0.00000   0.00000   0.00000   0.00000
  12        1PZ         0.00000   0.00000   0.00000   0.00000   0.00000
  13 4   C  1S          0.00000   0.00000   0.00000   0.00000   0.00000
  14        1PX         0.00000   0.00000   0.00000   0.00000   0.00000
  15        1PY         0.00000   0.00000   0.00000   0.00000   0.00000
  16        1PZ         0.00000   0.00000   0.00000   0.00000   0.00000
  17 5   C  1S          0.00000   0.00000   0.00000   0.00000   0.00000
  18        1PX         0.00000   0.00000   0.00000   0.00000   0.00000
  19        1PY         0.00000   0.00000   0.00000   0.00000   0.00000
  20        1PZ         0.00000   0.00000   0.00000   0.00000   0.00000
  21 6   H  1S          0.00000   0.00000   0.00000   0.00000   0.00000
  22 7   H  1S          0.00000   0.00000   0.00000   0.00000   0.00000
  23 8   H  1S          0.00000   0.00000   0.00000   0.00000   0.00000
  24 9   H  1S          0.00000   0.00000   0.00000   0.00000   0.00000
                          11        12        13        14        15
  11        1PY         0.28938
  12        1PZ         0.00000   0.20735
  13 4   C  1S          0.00000   0.00000   1.23681
  14        1PX         0.00000   0.00000   0.00000   1.56654
  15        1PY         0.00000   0.00000   0.00000   0.00000   1.39568
  16        1PZ         0.00000   0.00000   0.00000   0.00000   0.00000
  17 5   C  1S          0.00000   0.00000   0.00000   0.00000   0.00000
  18        1PX         0.00000   0.00000   0.00000   0.00000   0.00000
  19        1PY         0.00000   0.00000   0.00000   0.00000   0.00000
  20        1PZ         0.00000   0.00000   0.00000   0.00000   0.00000
  21 6   H  1S          0.00000   0.00000   0.00000   0.00000   0.00000
  22 7   H  1S          0.00000   0.00000   0.00000   0.00000   0.00000
  23 8   H  1S          0.00000   0.00000   0.00000   0.00000   0.00000
  24 9   H  1S          0.00000   0.00000   0.00000   0.00000   0.00000
                          16        17        18        19        20
  16        1PZ         1.80389
  17 5   C  1S          0.00000   0.98529
  18        1PX         0.00000   0.00000   1.10707
  19        1PY         0.00000   0.00000   0.00000   1.03108
  20        1PZ         0.00000   0.00000   0.00000   0.00000   1.05255
  21 6   H  1S          0.00000   0.00000   0.00000   0.00000   0.00000
  22 7   H  1S          0.00000   0.00000   0.00000   0.00000   0.00000
  23 8   H  1S          0.00000   0.00000   0.00000   0.00000   0.00000
  24 9   H  1S          0.00000   0.00000   0.00000   0.00000   0.00000
                          21        22        23        24
  21 6   H  1S          0.74592
  22 7   H  1S          0.00000   0.63465
  23 8   H  1S          0.00000   0.00000   0.63142
  24 9   H  1S          0.00000   0.00000   0.00000   0.74541
     Gross orbital populations:
                           1
   1 1   C  1S          1.00481
   2        1PX         1.01498
   3        1PY         1.08701
   4        1PZ         1.11470
   5 2   C  1S          1.26183
   6        1PX         1.49074
   7        1PY         1.46446
   8        1PZ         1.81708
   9 3   O  1S          1.95864
  10        1PX         0.35270
  11        1PY         0.28938
  12        1PZ         0.20735
  13 4   C  1S          1.23681
  14        1PX         1.56654
  15        1PY         1.39568
  16        1PZ         1.80389
  17 5   C  1S          0.98529
  18        1PX         1.10707
  19        1PY         1.03108
  20        1PZ         1.05255
  21 6   H  1S          0.74592
  22 7   H  1S          0.63465
  23 8   H  1S          0.63142
  24 9   H  1S          0.74541
          Condensed to atoms (all electrons):
               1          2          3          4          5          6
     1  C    4.221497   0.000000   0.000000   0.000000   0.000000   0.000000
     2  C    0.000000   6.034112   0.000000   0.000000   0.000000   0.000000
     3  O    0.000000   0.000000   2.808072   0.000000   0.000000   0.000000
     4  C    0.000000   0.000000   0.000000   6.002929   0.000000   0.000000
     5  C    0.000000   0.000000   0.000000   0.000000   4.175991   0.000000
     6  H    0.000000   0.000000   0.000000   0.000000   0.000000   0.745920
     7  H    0.000000   0.000000   0.000000   0.000000   0.000000   0.000000
     8  H    0.000000   0.000000   0.000000   0.000000   0.000000   0.000000
     9  H    0.000000   0.000000   0.000000   0.000000   0.000000   0.000000
               7          8          9
     1  C    0.000000   0.000000   0.000000
     2  C    0.000000   0.000000   0.000000
     3  O    0.000000   0.000000   0.000000
     4  C    0.000000   0.000000   0.000000
     5  C    0.000000   0.000000   0.000000
     6  H    0.000000   0.000000   0.000000
     7  H    0.634648   0.000000   0.000000
     8  H    0.000000   0.631417   0.000000
     9  H    0.000000   0.000000   0.745414
 Mulliken charges:
               1
     1  C   -0.221497
     2  C   -2.034112
     3  O    3.191928
     4  C   -2.002929
     5  C   -0.175991
     6  H    0.254080
     7  H    0.365352
     8  H    0.368583
     9  H    0.254586
 Sum of Mulliken charges =   0.00000
 Mulliken charges with hydrogens summed into heavy atoms:
               1
     1  C    0.033089
     2  C   -1.665529
     3  O    3.191928
     4  C   -1.637577
     5  C    0.078089
 Charge=              0.0000 electrons
 Dipole moment (field-independent basis, Debye):
    X=             -1.7753    Y=            -10.0318    Z=              0.5933  Tot=             10.2049
 N-N= 1.038937106804D+02 E-N=-1.688703840301D+02  KE=-1.546378639773D+01
 Orbital energies and kinetic energies (alpha):
                                 1                 2
   1         O                -1.929545         -1.367601
   2         O                -1.192602         -1.065975
   3         O                -0.946807         -0.863469
   4         O                -0.818422         -0.604020
   5         O                -0.792438         -0.677442
   6         O                -0.685695         -0.583497
   7         O                -0.639878         -0.515290
   8         O                -0.553554         -0.385459
   9         O                -0.542106         -0.325272
  10         O                -0.444403         -0.408469
  11         O                -0.439516         -0.324366
  12         O                -0.418871         -0.340699
  13         O                -0.301979         -0.270334
  14         V                 0.105885         -0.174897
  15         V                 0.188808         -0.159383
  16         V                 0.205586         -0.158743
  17         V                 0.250558         -0.144257
  18         V                 0.273452         -0.109739
  19         V                 0.283934         -0.100575
  20         V                 0.306269         -0.164294
  21         V                 0.310754         -0.153337
  22         V                 0.348246          0.488815
  23         V                 0.435731          0.510304
  24         V                 0.483310          0.587311
 Total kinetic energy from orbitals=-1.546378639773D+01
 Leave Link  601 at Tue Dec 15 17:07:12 2015, MaxMem=    33554432 cpu:         0.0
 (Enter /home/Applications/g09/g09/l701.exe)
 Compute integral first derivatives.
 ... and contract with generalized density number  6.
 Leave Link  701 at Tue Dec 15 17:07:12 2015, MaxMem=    33554432 cpu:         0.0
 (Enter /home/Applications/g09/g09/l702.exe)
 L702 exits ... SP integral derivatives will be done elsewhere.
 Leave Link  702 at Tue Dec 15 17:07:12 2015, MaxMem=    33554432 cpu:         0.0
 (Enter /home/Applications/g09/g09/l703.exe)
 Compute integral first derivatives, UseDBF=F ICtDFT=           0.
 Integral derivatives from FoFJK, PRISM(SPDF).
 Calling FoFJK, ICntrl=  10005127 FMM=F ISym2X=0 I1Cent= 0 IOpClX= 0 NMat=1 NMatS=1 NMatT=0.
 FoFJK:  IHMeth= 8 ICntrl=10005127 DoSepK=F KAlg= 0 I1Cent=   0 FoldK=F
 IRaf=         0 NMat=   1 IRICut=       1 DoRegI=T DoRafI=F ISym2E= 0.
 FoFCou: FMM=F IPFlag=           0 FMFlag=      100000 FMFlg1=         800
         NFxFlg=           0 DoJE=F BraDBF=F KetDBF=F FulRan=T
         wScrn=  0.000000 ICntrl=10005127 IOpCl=  0 I1Cent=           0 NGrid=           0
         NMat0=    1 NMatS0=      1 NMatT0=    0 NMatD0=    1 NMtDS0=    0 NMtDT0=    0
 Symmetry not used in FoFCou.
 Leave Link  703 at Tue Dec 15 17:07:12 2015, MaxMem=    33554432 cpu:         0.0
 (Enter /home/Applications/g09/g09/l716.exe)
 Dipole        =-7.81723291D-01-4.34331119D+00 2.18643833D-01
 ***** Axes restored to original set *****
 -------------------------------------------------------------------
 Center     Atomic                   Forces (Hartrees/Bohr)
 Number     Number              X              Y              Z
 -------------------------------------------------------------------
      1        6           0.040298482   -0.053909695    0.000268944
      2        6          -0.205449689   -0.038163428   -0.003433659
      3        8           0.142853130    0.014918981    0.009163268
      4        6          -0.272374201    0.003521316   -0.000641853
      5        6           0.146707146    0.037917909   -0.002116992
      6        1           0.074836260    0.058565722   -0.003244679
      7        1          -0.018276179    0.096552320    0.001401395
      8        1           0.007510963   -0.056054687   -0.000097476
      9        1           0.083894088   -0.063348438   -0.001298948
 -------------------------------------------------------------------
 Cartesian Forces:  Max     0.272374201 RMS     0.085859095
 Z-matrix is all fixed cartesians, so copy forces.
 Force constants in Cartesian coordinates: 
                1             2             3             4             5 
      1  0.833959D+00
      2 -0.858524D-01  0.814904D+00
      3 -0.165678D-01 -0.426369D-02  0.187339D+00
      4 -0.393687D+00 -0.836133D-01  0.114006D-02  0.808637D+00
      5 -0.612691D-01 -0.193684D+00 -0.141367D-02 -0.141964D-01  0.839148D+00
      6 -0.587518D-02 -0.352781D-02 -0.815860D-01  0.160391D-01  0.181402D-01
      7 -0.863742D-02  0.276797D-01 -0.688222D-03 -0.286864D+00  0.169445D+00
      8 -0.637169D-02  0.205026D-01 -0.701313D-04  0.211893D+00 -0.374611D+00
      9 -0.555923D-03  0.382319D-03  0.687007D-02 -0.715598D-02  0.307527D-02
     10  0.101774D-01  0.431823D-03 -0.783774D-03  0.240726D-01  0.178070D-01
     11  0.346722D-01  0.145549D-02 -0.318317D-02 -0.172393D-01 -0.127706D-01
     12 -0.334856D-02 -0.767030D-04 -0.146411D-02  0.850915D-03  0.455721D-03
     13 -0.169787D+00  0.225410D-01  0.210851D-02  0.102371D-01 -0.328928D-01
     14  0.258511D-02 -0.419990D+00  0.212333D-01  0.470192D-03 -0.152340D-02
     15  0.171328D-02  0.205084D-01 -0.820780D-01  0.114502D-05  0.120338D-03
     16  0.169937D-01  0.799171D-03  0.197767D-03  0.474762D-05 -0.105209D-04
     17 -0.242335D-01 -0.116735D-02 -0.851426D-03 -0.404886D-05  0.897237D-05
     18  0.329453D-02  0.105761D-02  0.185895D-01 -0.877429D-04  0.194441D-03
     19  0.341629D-04  0.260109D-04  0.501939D-03  0.231293D-05  0.000000D+00
     20  0.261009D-04  0.198726D-04  0.383488D-03  0.000000D+00  0.000000D+00
     21  0.501428D-03  0.381776D-03  0.736725D-02 -0.789949D-04 -0.146182D-04
     22  0.749782D-02 -0.240055D-01 -0.243840D-02 -0.156779D+00 -0.968802D-01
     23 -0.391233D-02  0.125636D-01 -0.491547D-03 -0.902856D-01 -0.279087D+00
     24 -0.329672D-04 -0.345513D-03  0.211408D-01 -0.106111D-01 -0.204654D-01
     25 -0.296551D+00  0.141993D+00  0.165299D-01 -0.562315D-02  0.179971D-01
     26  0.144356D+00 -0.234604D+00 -0.113432D-01 -0.702410D-02  0.225192D-01
     27  0.208711D-01 -0.141164D-01 -0.761783D-01 -0.973783D-04 -0.922839D-04
                6             7             8             9            10 
      6  0.158352D+00
      7 -0.531144D-02  0.518725D+00
      8  0.213760D-02 -0.282086D-01  0.689064D+00
      9 -0.404792D-01  0.885156D-02  0.320660D-02  0.498566D-01
     10  0.604515D-03 -0.257865D+00 -0.183189D+00 -0.596763D-02  0.919795D+00
     11 -0.730963D-03 -0.140048D+00 -0.339441D+00 -0.736973D-02 -0.632462D-01
     12 -0.217042D-02 -0.359262D-02 -0.548121D-02 -0.441917D-01 -0.174130D-01
     13  0.239388D-02 -0.867050D-02  0.618351D-02  0.138122D-02 -0.517097D+00
     14  0.412147D-03 -0.288517D-01  0.206061D-01  0.256116D-02  0.109900D+00
     15  0.334398D-03 -0.977649D-03  0.531995D-03  0.705317D-02  0.246507D-01
     16 -0.220752D-03  0.827999D-05 -0.961363D-05  0.212063D-03 -0.518060D-02
     17  0.188261D-03 -0.200944D-04  0.233310D-04 -0.514649D-03  0.728410D-02
     18  0.407980D-02  0.271592D-03 -0.315337D-03  0.695589D-02  0.237086D-02
     19 -0.119858D-03  0.222205D-01 -0.159215D-01  0.893059D-03 -0.173950D+00
     20  0.146323D-04  0.110721D-01 -0.793500D-02  0.537608D-03  0.110990D+00
     21  0.409357D-02  0.745306D-03 -0.622755D-03  0.513375D-02 -0.371003D-02
     22 -0.963440D-02  0.210833D-01  0.156233D-01  0.226863D-02  0.668677D-05
     23 -0.174915D-01 -0.110705D-01 -0.820736D-02 -0.154984D-02  0.398806D-05
     24 -0.615835D-01  0.737410D-03  0.592436D-03  0.437533D-02 -0.896003D-04
     25  0.212415D-02  0.000000D+00  0.000000D+00  0.730095D-04  0.402975D-04
     26  0.857460D-03  0.266870D-05 -0.154519D-05 -0.328741D-03  0.183210D-04
     27  0.189597D-01 -0.359304D-04  0.208038D-04  0.442604D-02  0.338043D-03
               11            12            13            14            15 
     11  0.885964D+00
     12  0.662093D-02  0.196382D+00
     13  0.880406D-01  0.264098D-01  0.957536D+00
     14 -0.219891D+00 -0.618314D-02  0.174035D-01  0.812405D+00
     15 -0.688749D-02 -0.108401D+00 -0.198964D-01 -0.928459D-02  0.213466D+00
     16 -0.172313D-01 -0.649541D-03 -0.298716D+00 -0.129228D+00 -0.479939D-02
     17  0.243786D-01  0.564393D-04 -0.128726D+00 -0.205868D+00 -0.253679D-02
     18  0.297082D-02  0.282130D-01 -0.942815D-02 -0.600763D-02 -0.848689D-01
     19  0.115020D+00 -0.250250D-02  0.800655D-02  0.268771D-01 -0.395489D-03
     20 -0.339710D+00  0.454545D-02  0.399319D-02  0.133080D-01  0.352328D-03
     21  0.833880D-02 -0.779779D-01  0.471207D-03 -0.375050D-02  0.302629D-01
     22  0.123740D-05 -0.346512D-03 -0.225456D-05  0.499617D-05  0.104831D-03
     23  0.000000D+00 -0.206664D-03  0.931497D-05 -0.206422D-04 -0.433121D-03
     24 -0.165808D-04  0.464314D-02 -0.974836D-04  0.216026D-03  0.453272D-02
     25  0.306816D-04  0.592072D-03  0.184928D-01  0.839689D-03 -0.400980D-03
     26  0.139492D-04  0.269181D-03  0.234478D-01  0.974042D-03 -0.237105D-02
     27  0.257379D-03  0.496671D-02 -0.334256D-02  0.803199D-03  0.196985D-01
               16            17            18            19            20 
     16  0.286869D+00
     17  0.145679D+00  0.182596D+00
     18  0.523802D-02  0.310538D-02  0.460504D-01
     19 -0.247326D-04  0.600227D-04 -0.811254D-03  0.143711D+00
     20 -0.188960D-04  0.458581D-04 -0.619808D-03 -0.126062D+00  0.334271D+00
     21 -0.363014D-03  0.880986D-03 -0.119072D-01  0.243410D-02 -0.521369D-02
     22  0.000000D+00  0.000000D+00  0.000000D+00  0.000000D+00  0.000000D+00
     23  0.000000D+00  0.000000D+00  0.000000D+00  0.000000D+00  0.000000D+00
     24  0.000000D+00  0.000000D+00  0.000000D+00  0.000000D+00  0.000000D+00
     25  0.458762D-04 -0.391240D-04 -0.847858D-03  0.000000D+00  0.000000D+00
     26  0.208573D-04 -0.177875D-04 -0.385472D-03  0.000000D+00  0.000000D+00
     27  0.384842D-03 -0.328200D-03 -0.711242D-02  0.000000D+00  0.000000D+00
               21            22            23            24            25 
     21  0.430277D-01
     22  0.000000D+00  0.128197D+00
     23  0.000000D+00  0.105244D+00  0.274802D+00
     24  0.000000D+00  0.102129D-01  0.194827D-01  0.341124D-01
     25  0.000000D+00 -0.275479D-05  0.113817D-04 -0.119113D-03  0.283599D+00
     26  0.000000D+00  0.124041D-04 -0.512487D-04  0.536331D-03 -0.160834D+00
     27  0.000000D+00 -0.167003D-03  0.689993D-03 -0.722096D-02 -0.179512D-01
               26            27 
     26  0.211167D+00
     27  0.127655D-01  0.424607D-01
 Leave Link  716 at Tue Dec 15 17:07:12 2015, MaxMem=    33554432 cpu:         0.0
 (Enter /home/Applications/g09/g09/l103.exe)

 GradGradGradGradGradGradGradGradGradGradGradGradGradGradGradGradGradGrad
 Berny optimization.
 Search for a local minimum.
 Step number   1 out of a maximum of    2
 All quantities printed in internal units (Hartrees-Bohrs-Radians)
 Second derivative matrix not updated -- first step.
 ITU=  0
     Eigenvalues ---    0.01745   0.02832   0.07108   0.07639   0.07940
     Eigenvalues ---    0.08289   0.12937   0.13594   0.16052   0.24017
     Eigenvalues ---    0.26526   0.27624   0.38480   0.44344   0.65018
     Eigenvalues ---    0.85256   1.08517   1.29563   1.38490   1.45821
     Eigenvalues ---    1.62366
 Quadratic step=1.274D+00 exceeds max=3.000D-01 adjusted using Lamda=-7.795D-01.
 Angle between NR and scaled steps=  27.10 degrees.
 Angle between quadratic step and forces=  21.77 degrees.
 Linear search not attempted -- first point.
 TrRot= -0.005236 -0.001610  0.000435 -0.899671  0.000172  0.899337
 Variable       Old X    -DE/DX   Delta X   Delta X   Delta X     New X
                                 (Linear)    (Quad)   (Total)
    X1        1.89366   0.04030   0.00000   0.02580   0.02013   1.91379
    Y1       -1.29483  -0.05391   0.00000  -0.05043  -0.05270  -1.34752
    Z1        0.07820   0.00027   0.00000  -0.00257  -0.00252   0.07568
    X2       -0.67718  -0.20545   0.00000  -0.11255  -0.11850  -0.79568
    Y2       -2.09606  -0.03816   0.00000  -0.04482  -0.04617  -2.14223
    Z2        0.06109  -0.00343   0.00000  -0.00224  -0.00200   0.05909
    X3       -2.20768   0.14285   0.00000   0.07394   0.06870  -2.13898
    Y3       -0.02747   0.01492   0.00000   0.00640   0.00549  -0.02197
    Z3        0.03895   0.00916   0.00000   0.00705   0.00771   0.04665
    X4       -0.67363  -0.27237   0.00000  -0.13555  -0.14006  -0.81369
    Y4        2.11559   0.00352   0.00000   0.02880   0.02745   2.14304
    Z4        0.07620  -0.00064   0.00000  -0.00501  -0.00420   0.07200
    X5        1.76911   0.14671   0.00000   0.06804   0.06327   1.83238
    Y5        1.38602   0.03792   0.00000   0.04141   0.03920   1.42522
    Z5       -0.05225  -0.00212   0.00000   0.00312   0.00356  -0.04869
    X6        3.40161   0.07484   0.00000   0.08622   0.08186   3.48347
    Y6        2.53560   0.05857   0.00000   0.06833   0.06556   2.60116
    Z6       -0.01696  -0.00324   0.00000  -0.00310  -0.00269  -0.01965
    X7       -1.55858  -0.01828   0.00000  -0.03644  -0.04034  -1.59892
    Y7        3.89378   0.09655   0.00000   0.10385   0.10277   3.99654
    Z7        0.04393   0.00140   0.00000   0.00021   0.00135   0.04529
    X8       -1.64104   0.00751   0.00000  -0.00721  -0.01380  -1.65484
    Y8       -3.94196  -0.05605   0.00000  -0.07204  -0.07309  -4.01505
    Z8       -0.09300  -0.00010   0.00000  -0.00102  -0.00095  -0.09395
    X9        3.42539   0.08389   0.00000   0.08484   0.07874   3.50413
    Y9       -2.51944  -0.06335   0.00000  -0.06573  -0.06851  -2.58795
    Z9       -0.03803  -0.00130   0.00000   0.00004  -0.00025  -0.03827
         Item               Value     Threshold  Converged?
 Maximum Force            0.272374     0.000450     NO 
 RMS     Force            0.085859     0.000300     NO 
 Maximum Displacement     0.140064     0.001800     NO 
 RMS     Displacement     0.057651     0.001200     NO 
 Predicted change in Energy=-9.724553D-02
 GradGradGradGradGradGradGradGradGradGradGradGradGradGradGradGradGradGrad

 Leave Link  103 at Tue Dec 15 17:07:12 2015, MaxMem=    33554432 cpu:         0.0
 (Enter /home/Applications/g09/g09/l9999.exe)
 1\1\GINC-DUSTIN-DESKTOP\Force\RAM1-FC\STO-3G\C4H4O1\DUSTIN\15-Dec-2015
 \0\\#P AM1(Input,print) CIS(Singlets,NStates=15) pop(full) force\\AM1-
 Reparam Input\\0,1\C,1.002084,-0.685192,0.04138\C,-0.358347,-1.109187,
 0.032329\O,-1.168253,-0.014535,0.020609\C,-0.356469,1.119521,0.040324\
 C,0.936172,0.73345,-0.027649\H,1.800055,1.341784,-0.008977\H,-0.824767
 ,2.060497,0.023249\H,-0.868401,-2.085997,-0.049213\H,1.81264,-1.33323,
 -0.020123\\Version=ES64L-G09RevD.01\State=1-A\HF=2.0208088\RMSD=8.328e
 -09\RMSF=8.586e-02\Dipole=-4.4142545,-0.0741327,-0.1791926\PG=C01 [X(C
 4H4O1)]\\@


 Everything starts as somebody's daydream.
                           -- Larry Niven
 Job cpu time:       0 days  0 hours  0 minutes  0.7 seconds.
 File lengths (MBytes):  RWF=      7 Int=      0 D2E=      0 Chk=      2 Scr=      1
 Normal termination of Gaussian 09 at Tue Dec 15 17:07:12 2015.
