 Entering Gaussian System, Link 0=g09
 Input=FuranDFT_70.com
 Output=FuranDFT_70.log
 Initial command:
 /home/Applications/g09/g09/l1.exe "/home/Applications/g09/scratch/Gau-6175.inp" -scrdir="/home/Applications/g09/scratch/"
 Entering Link 1 = /home/Applications/g09/g09/l1.exe PID=      6177.
  
 Copyright (c) 1988,1990,1992,1993,1995,1998,2003,2009,2013,
            Gaussian, Inc.  All Rights Reserved.
  
 This is part of the Gaussian(R) 09 program.  It is based on
 the Gaussian(R) 03 system (copyright 2003, Gaussian, Inc.),
 the Gaussian(R) 98 system (copyright 1998, Gaussian, Inc.),
 the Gaussian(R) 94 system (copyright 1995, Gaussian, Inc.),
 the Gaussian 92(TM) system (copyright 1992, Gaussian, Inc.),
 the Gaussian 90(TM) system (copyright 1990, Gaussian, Inc.),
 the Gaussian 88(TM) system (copyright 1988, Gaussian, Inc.),
 the Gaussian 86(TM) system (copyright 1986, Carnegie Mellon
 University), and the Gaussian 82(TM) system (copyright 1983,
 Carnegie Mellon University). Gaussian is a federally registered
 trademark of Gaussian, Inc.
  
 This software contains proprietary and confidential information,
 including trade secrets, belonging to Gaussian, Inc.
  
 This software is provided under written license and may be
 used, copied, transmitted, or stored only in accord with that
 written license.
  
 The following legend is applicable only to US Government
 contracts under FAR:
  
                    RESTRICTED RIGHTS LEGEND
  
 Use, reproduction and disclosure by the US Government is
 subject to restrictions as set forth in subparagraphs (a)
 and (c) of the Commercial Computer Software - Restricted
 Rights clause in FAR 52.227-19.
  
 Gaussian, Inc.
 340 Quinnipiac St., Bldg. 40, Wallingford CT 06492
  
  
 ---------------------------------------------------------------
 Warning -- This program may not be used in any manner that
 competes with the business of Gaussian, Inc. or will provide
 assistance to any competitor of Gaussian, Inc.  The licensee
 of this program is prohibited from giving any competitor of
 Gaussian, Inc. access to this program.  By using this program,
 the user acknowledges that Gaussian, Inc. is engaged in the
 business of creating and licensing software in the field of
 computational chemistry and represents and warrants to the
 licensee that it is not a competitor of Gaussian, Inc. and that
 it will not use this program in any manner prohibited above.
 ---------------------------------------------------------------
  

 Cite this work as:
 Gaussian 09, Revision D.01,
 M. J. Frisch, G. W. Trucks, H. B. Schlegel, G. E. Scuseria, 
 M. A. Robb, J. R. Cheeseman, G. Scalmani, V. Barone, B. Mennucci, 
 G. A. Petersson, H. Nakatsuji, M. Caricato, X. Li, H. P. Hratchian, 
 A. F. Izmaylov, J. Bloino, G. Zheng, J. L. Sonnenberg, M. Hada, 
 M. Ehara, K. Toyota, R. Fukuda, J. Hasegawa, M. Ishida, T. Nakajima, 
 Y. Honda, O. Kitao, H. Nakai, T. Vreven, J. A. Montgomery, Jr., 
 J. E. Peralta, F. Ogliaro, M. Bearpark, J. J. Heyd, E. Brothers, 
 K. N. Kudin, V. N. Staroverov, T. Keith, R. Kobayashi, J. Normand, 
 K. Raghavachari, A. Rendell, J. C. Burant, S. S. Iyengar, J. Tomasi, 
 M. Cossi, N. Rega, J. M. Millam, M. Klene, J. E. Knox, J. B. Cross, 
 V. Bakken, C. Adamo, J. Jaramillo, R. Gomperts, R. E. Stratmann, 
 O. Yazyev, A. J. Austin, R. Cammi, C. Pomelli, J. W. Ochterski, 
 R. L. Martin, K. Morokuma, V. G. Zakrzewski, G. A. Voth, 
 P. Salvador, J. J. Dannenberg, S. Dapprich, A. D. Daniels, 
 O. Farkas, J. B. Foresman, J. V. Ortiz, J. Cioslowski, 
 and D. J. Fox, Gaussian, Inc., Wallingford CT, 2013.
 
 ******************************************
 Gaussian 09:  ES64L-G09RevD.01 24-Apr-2013
                15-Dec-2015 
 ******************************************
 -------------------------------------------------------
 #P B3LYP/3-21G CIS(Singlets,NStates=15) pop(full) force
 -------------------------------------------------------
 1/10=7,30=1,38=1/1,3;
 2/12=2,17=6,18=5,40=1/2;
 3/5=5,11=9,16=1,25=1,30=1,71=1,74=-5/1,2,8,3;
 4//1;
 5/5=2,38=5/2;
 8/6=1,10=1,108=15/1;
 9/15=2,41=15,42=1,48=1/14;
 10/5=4/2;
 6/7=3,18=1/1;
 7/12=6,13=5,29=1/1,2,3,16;
 1/10=7,30=1/3;
 99//99;
 Leave Link    1 at Tue Dec 15 16:24:49 2015, MaxMem=           0 cpu:         0.0
 (Enter /home/Applications/g09/g09/l101.exe)
 --------
 FuranDFT
 --------
 Symbolic Z-matrix:
 Charge =  0 Multiplicity = 1
 6                     0.93161  -0.744     0.00821 
 6                    -0.3651   -1.08296   0.00448 
 8                    -1.20557   0.02245  -0.00868 
 6                    -0.33138   1.05665   0.01686 
 6                     0.9379    0.67766   0.04094 
 1                     1.80556   1.32223   0.04502 
 1                    -0.88858   2.09304  -0.025 
 1                    -0.7932   -2.07036   0.01238 
 1                     1.83452  -1.39159  -0.00229 
 
 NAtoms=      9 NQM=        9 NQMF=       0 NMMI=      0 NMMIF=      0
                NMic=       0 NMicF=      0.
                    Isotopes and Nuclear Properties:
 (Nuclear quadrupole moments (NQMom) in fm**2, nuclear magnetic moments (NMagM)
  in nuclear magnetons)

  Atom         1           2           3           4           5           6           7           8           9
 IAtWgt=          12          12          16          12          12           1           1           1           1
 AtmWgt=  12.0000000  12.0000000  15.9949146  12.0000000  12.0000000   1.0078250   1.0078250   1.0078250   1.0078250
 NucSpn=           0           0           0           0           0           1           1           1           1
 AtZEff=   0.0000000   0.0000000   0.0000000   0.0000000   0.0000000   0.0000000   0.0000000   0.0000000   0.0000000
 NQMom=    0.0000000   0.0000000   0.0000000   0.0000000   0.0000000   0.0000000   0.0000000   0.0000000   0.0000000
 NMagM=    0.0000000   0.0000000   0.0000000   0.0000000   0.0000000   2.7928460   2.7928460   2.7928460   2.7928460
 AtZNuc=   6.0000000   6.0000000   8.0000000   6.0000000   6.0000000   1.0000000   1.0000000   1.0000000   1.0000000
 Leave Link  101 at Tue Dec 15 16:24:49 2015, MaxMem=    33554432 cpu:         0.0
 (Enter /home/Applications/g09/g09/l103.exe)

 GradGradGradGradGradGradGradGradGradGradGradGradGradGradGradGradGradGrad
 Berny optimization.
 Initialization pass.
 Trust Radius=3.00D-01 FncErr=1.00D-07 GrdErr=1.00D-07
 Number of steps in this run=      2 maximum allowed number of steps=      2.
 GradGradGradGradGradGradGradGradGradGradGradGradGradGradGradGradGradGrad

 Leave Link  103 at Tue Dec 15 16:24:49 2015, MaxMem=    33554432 cpu:         0.0
 (Enter /home/Applications/g09/g09/l202.exe)
                          Input orientation:                          
 ---------------------------------------------------------------------
 Center     Atomic      Atomic             Coordinates (Angstroms)
 Number     Number       Type             X           Y           Z
 ---------------------------------------------------------------------
      1          6           0        0.931612   -0.744002    0.008207
      2          6           0       -0.365104   -1.082964    0.004476
      3          8           0       -1.205568    0.022446   -0.008677
      4          6           0       -0.331380    1.056649    0.016859
      5          6           0        0.937901    0.677659    0.040935
      6          1           0        1.805562    1.322230    0.045024
      7          1           0       -0.888577    2.093041   -0.024997
      8          1           0       -0.793197   -2.070357    0.012380
      9          1           0        1.834522   -1.391592   -0.002290
 ---------------------------------------------------------------------
                    Distance matrix (angstroms):
                    1          2          3          4          5
     1  C    0.000000
     2  C    1.340292   0.000000
     3  O    2.270521   1.388699   0.000000
     4  C    2.199447   2.139915   1.354412   0.000000
     5  C    1.422052   2.190649   2.241924   1.324873   0.000000
     6  H    2.243760   3.240122   3.280126   2.153566   1.080890
     7  H    3.370905   3.218991   2.094782   1.177425   2.311639
     8  H    2.175822   1.076230   2.133147   3.160927   3.247939
     9  H    1.111184   2.221182   3.352863   3.268850   2.255570
                    6          7          8          9
     6  H    0.000000
     7  H    2.803112   0.000000
     8  H    4.273671   4.164658   0.000000
     9  H    2.714389   4.422494   2.714009   0.000000
 Stoichiometry    C4H4O
 Framework group  C1[X(C4H4O)]
 Deg. of freedom    21
 Full point group                 C1      NOp   1
 Largest Abelian subgroup         C1      NOp   1
 Largest concise Abelian subgroup C1      NOp   1
                         Standard orientation:                         
 ---------------------------------------------------------------------
 Center     Atomic      Atomic             Coordinates (Angstroms)
 Number     Number       Type             X           Y           Z
 ---------------------------------------------------------------------
      1          6           0       -1.137190    0.380335    0.010335
      2          6           0       -0.696027   -0.885175   -0.005211
      3          8           0        0.690219   -0.967181    0.003865
      4          6           0        1.061751    0.335255   -0.003555
      5          6           0        0.039693    1.178220   -0.013275
      6          1           0        0.091382    2.257813   -0.001811
      7          1           0        2.232895    0.449551    0.037523
      8          1           0       -1.277352   -1.790679   -0.025039
      9          1           0       -2.178041    0.768954    0.028640
 ---------------------------------------------------------------------
 Rotational constants (GHZ):      9.7597030      9.1213746      4.7154722
 Leave Link  202 at Tue Dec 15 16:24:50 2015, MaxMem=    33554432 cpu:         0.0
 (Enter /home/Applications/g09/g09/l301.exe)
 Standard basis: 3-21G (6D, 7F)
 Ernie: Thresh=  0.10000D-02 Tol=  0.10000D-05 Strict=F.
 There are    53 symmetry adapted cartesian basis functions of A   symmetry.
 There are    53 symmetry adapted basis functions of A   symmetry.
    53 basis functions,    87 primitive gaussians,    53 cartesian basis functions
    18 alpha electrons       18 beta electrons
       nuclear repulsion energy       161.1811495713 Hartrees.
 IExCor=  402 DFT=T Ex+Corr=B3LYP ExCW=0 ScaHFX=  0.200000
 ScaDFX=  0.800000  0.720000  1.000000  0.810000 ScalE2=  1.000000  1.000000
 IRadAn=      0 IRanWt=     -1 IRanGd=            0 ICorTp=0 IEmpDi=  4
 NAtoms=    9 NActive=    9 NUniq=    9 SFac= 1.00D+00 NAtFMM=   60 NAOKFM=F Big=F
 Integral buffers will be    131072 words long.
 Regular integral format.
 Two-electron integral symmetry is turned on.
 Leave Link  301 at Tue Dec 15 16:24:50 2015, MaxMem=    33554432 cpu:         0.0
 (Enter /home/Applications/g09/g09/l302.exe)
 NPDir=0 NMtPBC=     1 NCelOv=     1 NCel=       1 NClECP=     1 NCelD=      1
         NCelK=      1 NCelE2=     1 NClLst=     1 CellRange=     0.0.
 One-electron integrals computed using PRISM.
 NBasis=    53 RedAO= T EigKep=  3.05D-03  NBF=    53
 NBsUse=    53 1.00D-06 EigRej= -1.00D+00 NBFU=    53
 Precomputing XC quadrature grid using
 IXCGrd= 4 IRadAn=           0 IRanWt=          -1 IRanGd=           0 AccXCQ= 0.00D+00.
 Generated NRdTot=       0 NPtTot=           0 NUsed=           0 NTot=          32
 NSgBfM=    53    53    53    53    53 MxSgAt=     9 MxSgA2=     9.
 Leave Link  302 at Tue Dec 15 16:24:50 2015, MaxMem=    33554432 cpu:         0.1
 (Enter /home/Applications/g09/g09/l308.exe)
 Leave Link  308 at Tue Dec 15 16:24:50 2015, MaxMem=    33554432 cpu:         0.0
 (Enter /home/Applications/g09/g09/l303.exe)
 DipDrv:  MaxL=1.
 Leave Link  303 at Tue Dec 15 16:24:50 2015, MaxMem=    33554432 cpu:         0.0
 (Enter /home/Applications/g09/g09/l401.exe)
 ExpMin= 1.83D-01 ExpMax= 3.22D+02 ExpMxC= 3.22D+02 IAcc=1 IRadAn=         1 AccDes= 0.00D+00
 Harris functional with IExCor=  402 and IRadAn=       1 diagonalized for initial guess.
 HarFok:  IExCor=  402 AccDes= 0.00D+00 IRadAn=         1 IDoV= 1 UseB2=F ITyADJ=14
 ICtDFT=  3500011 ScaDFX=  1.000000  1.000000  1.000000  1.000000
 FoFCou: FMM=F IPFlag=           0 FMFlag=      100000 FMFlg1=           0
         NFxFlg=           0 DoJE=T BraDBF=F KetDBF=T FulRan=T
         wScrn=  0.000000 ICntrl=     500 IOpCl=  0 I1Cent=   200000004 NGrid=           0
         NMat0=    1 NMatS0=      1 NMatT0=    0 NMatD0=    1 NMtDS0=    0 NMtDT0=    0
 Petite list used in FoFCou.
 Harris En= -228.728566792406    
 JPrj=0 DoOrth=F DoCkMO=F.
 Leave Link  401 at Tue Dec 15 16:24:50 2015, MaxMem=    33554432 cpu:         0.3
 (Enter /home/Applications/g09/g09/l502.exe)
 Closed shell SCF:
 Using DIIS extrapolation, IDIIS=  1040.
 Integral symmetry usage will be decided dynamically.
 Keep R1 ints in memory in canonical form, NReq=1925595.
 IVT=       27707 IEndB=       27707 NGot=    33554432 MDV=    32502130
 LenX=    32502130 LenY=    32498880
 Requested convergence on RMS density matrix=1.00D-08 within 128 cycles.
 Requested convergence on MAX density matrix=1.00D-06.
 Requested convergence on             energy=1.00D-06.
 No special actions if energy rises.
 FoFCou: FMM=F IPFlag=           0 FMFlag=           0 FMFlg1=           0
         NFxFlg=           0 DoJE=F BraDBF=F KetDBF=F FulRan=T
         wScrn=  0.000000 ICntrl=     600 IOpCl=  0 I1Cent=           0 NGrid=           0
         NMat0=    1 NMatS0=   1431 NMatT0=    0 NMatD0=    1 NMtDS0=    0 NMtDT0=    0
 Symmetry not used in FoFCou.
 Integral accuracy reduced to 1.0D-05 until final iterations.

 Cycle   1  Pass 0  IDiag  1:
 E= -228.653285125039    
 DIIS: error= 3.43D-02 at cycle   1 NSaved=   1.
 NSaved= 1 IEnMin= 1 EnMin= -228.653285125039     IErMin= 1 ErrMin= 3.43D-02
 ErrMax= 3.43D-02  0.00D+00 EMaxC= 1.00D-01 BMatC= 8.16D-02 BMatP= 8.16D-02
 IDIUse=3 WtCom= 6.57D-01 WtEn= 3.43D-01
 Coeff-Com:  0.100D+01
 Coeff-En:   0.100D+01
 Coeff:      0.100D+01
 Gap=     0.231 Goal=   None    Shift=    0.000
 GapD=    0.231 DampG=1.000 DampE=0.500 DampFc=0.5000 IDamp=-1.
 Damping current iteration by 5.00D-01
 RMSDP=1.27D-02 MaxDP=1.21D-01              OVMax= 2.08D-01

 Cycle   2  Pass 0  IDiag  1:
 E= -228.684225152446     Delta-E=       -0.030940027406 Rises=F Damp=T
 DIIS: error= 1.58D-02 at cycle   2 NSaved=   2.
 NSaved= 2 IEnMin= 2 EnMin= -228.684225152446     IErMin= 2 ErrMin= 1.58D-02
 ErrMax= 1.58D-02  0.00D+00 EMaxC= 1.00D-01 BMatC= 9.92D-03 BMatP= 8.16D-02
 IDIUse=3 WtCom= 8.42D-01 WtEn= 1.58D-01
 Coeff-Com:  0.138D+00 0.862D+00
 Coeff-En:   0.238D+00 0.762D+00
 Coeff:      0.154D+00 0.846D+00
 Gap=     0.248 Goal=   None    Shift=    0.000
 RMSDP=4.50D-03 MaxDP=3.46D-02 DE=-3.09D-02 OVMax= 1.75D-01

 Cycle   3  Pass 0  IDiag  1:
 E= -228.728101560564     Delta-E=       -0.043876408119 Rises=F Damp=F
 DIIS: error= 2.05D-02 at cycle   3 NSaved=   3.
 NSaved= 3 IEnMin= 3 EnMin= -228.728101560564     IErMin= 2 ErrMin= 1.58D-02
 ErrMax= 2.05D-02  0.00D+00 EMaxC= 1.00D-01 BMatC= 1.14D-02 BMatP= 9.92D-03
 IDIUse=2 WtCom= 0.00D+00 WtEn= 1.00D+00
 Coeff-En:   0.000D+00 0.000D+00 0.100D+01
 Coeff:      0.000D+00 0.000D+00 0.100D+01
 Gap=     0.243 Goal=   None    Shift=    0.000
 RMSDP=5.67D-03 MaxDP=4.65D-02 DE=-4.39D-02 OVMax= 1.20D-01

 Cycle   4  Pass 0  IDiag  1:
 E= -228.699938783919     Delta-E=        0.028162776646 Rises=F Damp=F
 DIIS: error= 4.11D-02 at cycle   4 NSaved=   4.
 NSaved= 4 IEnMin= 3 EnMin= -228.728101560564     IErMin= 2 ErrMin= 1.58D-02
 ErrMax= 4.11D-02  0.00D+00 EMaxC= 1.00D-01 BMatC= 4.35D-02 BMatP= 9.92D-03
 IDIUse=2 WtCom= 0.00D+00 WtEn= 1.00D+00
 Coeff-En:   0.000D+00 0.000D+00 0.745D+00 0.255D+00
 Coeff:      0.000D+00 0.000D+00 0.745D+00 0.255D+00
 Gap=     0.254 Goal=   None    Shift=    0.000
 RMSDP=2.87D-03 MaxDP=2.33D-02 DE= 2.82D-02 OVMax= 6.61D-02

 Cycle   5  Pass 0  IDiag  1:
 E= -228.736213605040     Delta-E=       -0.036274821122 Rises=F Damp=F
 DIIS: error= 9.21D-03 at cycle   5 NSaved=   5.
 NSaved= 5 IEnMin= 5 EnMin= -228.736213605040     IErMin= 5 ErrMin= 9.21D-03
 ErrMax= 9.21D-03  0.00D+00 EMaxC= 1.00D-01 BMatC= 2.29D-03 BMatP= 9.92D-03
 IDIUse=3 WtCom= 9.08D-01 WtEn= 9.21D-02
 Coeff-Com: -0.114D-01 0.331D-01 0.227D+00-0.957D-01 0.847D+00
 Coeff-En:   0.000D+00 0.000D+00 0.203D+00 0.000D+00 0.797D+00
 Coeff:     -0.103D-01 0.300D-01 0.225D+00-0.869D-01 0.842D+00
 Gap=     0.258 Goal=   None    Shift=    0.000
 RMSDP=9.41D-04 MaxDP=7.55D-03 DE=-3.63D-02 OVMax= 1.99D-02

 Cycle   6  Pass 0  IDiag  1:
 E= -228.738235050259     Delta-E=       -0.002021445218 Rises=F Damp=F
 DIIS: error= 5.88D-04 at cycle   6 NSaved=   6.
 NSaved= 6 IEnMin= 6 EnMin= -228.738235050259     IErMin= 6 ErrMin= 5.88D-04
 ErrMax= 5.88D-04  0.00D+00 EMaxC= 1.00D-01 BMatC= 1.02D-05 BMatP= 2.29D-03
 IDIUse=3 WtCom= 9.94D-01 WtEn= 5.88D-03
 Coeff-Com: -0.598D-02 0.126D-01 0.351D-01-0.393D-01 0.266D+00 0.732D+00
 Coeff-En:   0.000D+00 0.000D+00 0.000D+00 0.000D+00 0.000D+00 0.100D+01
 Coeff:     -0.595D-02 0.125D-01 0.349D-01-0.391D-01 0.264D+00 0.734D+00
 Gap=     0.258 Goal=   None    Shift=    0.000
 RMSDP=6.75D-05 MaxDP=5.39D-04 DE=-2.02D-03 OVMax= 1.24D-03

 Cycle   7  Pass 0  IDiag  1:
 E= -228.738245244662     Delta-E=       -0.000010194403 Rises=F Damp=F
 DIIS: error= 3.50D-05 at cycle   7 NSaved=   7.
 NSaved= 7 IEnMin= 7 EnMin= -228.738245244662     IErMin= 7 ErrMin= 3.50D-05
 ErrMax= 3.50D-05  0.00D+00 EMaxC= 1.00D-01 BMatC= 6.96D-08 BMatP= 1.02D-05
 IDIUse=1 WtCom= 1.00D+00 WtEn= 0.00D+00
 Coeff-Com: -0.168D-02 0.299D-02 0.940D-02-0.106D-01 0.809D-01 0.337D+00
 Coeff-Com:  0.582D+00
 Coeff:     -0.168D-02 0.299D-02 0.940D-02-0.106D-01 0.809D-01 0.337D+00
 Coeff:      0.582D+00
 Gap=     0.258 Goal=   None    Shift=    0.000
 RMSDP=5.50D-06 MaxDP=6.62D-05 DE=-1.02D-05 OVMax= 1.38D-04

 Initial convergence to 1.0D-05 achieved.  Increase integral accuracy.
 Cycle   8  Pass 1  IDiag  1:
 E= -228.738277077547     Delta-E=       -0.000031832885 Rises=F Damp=F
 DIIS: error= 1.59D-05 at cycle   1 NSaved=   1.
 NSaved= 1 IEnMin= 1 EnMin= -228.738277077547     IErMin= 1 ErrMin= 1.59D-05
 ErrMax= 1.59D-05  0.00D+00 EMaxC= 1.00D-01 BMatC= 1.12D-08 BMatP= 1.12D-08
 IDIUse=1 WtCom= 1.00D+00 WtEn= 0.00D+00
 Coeff-Com:  0.100D+01
 Coeff:      0.100D+01
 Gap=     0.258 Goal=   None    Shift=    0.000
 RMSDP=5.50D-06 MaxDP=6.62D-05 DE=-3.18D-05 OVMax= 1.12D-04

 Cycle   9  Pass 1  IDiag  1:
 E= -228.738277072371     Delta-E=        0.000000005176 Rises=F Damp=F
 DIIS: error= 2.26D-05 at cycle   2 NSaved=   2.
 NSaved= 2 IEnMin= 1 EnMin= -228.738277077547     IErMin= 1 ErrMin= 1.59D-05
 ErrMax= 2.26D-05  0.00D+00 EMaxC= 1.00D-01 BMatC= 1.78D-08 BMatP= 1.12D-08
 IDIUse=1 WtCom= 1.00D+00 WtEn= 0.00D+00
 Coeff-Com:  0.567D+00 0.433D+00
 Coeff:      0.567D+00 0.433D+00
 Gap=     0.258 Goal=   None    Shift=    0.000
 RMSDP=3.12D-06 MaxDP=3.73D-05 DE= 5.18D-09 OVMax= 8.33D-05

 Cycle  10  Pass 1  IDiag  1:
 E= -228.738277091167     Delta-E=       -0.000000018796 Rises=F Damp=F
 DIIS: error= 4.11D-06 at cycle   3 NSaved=   3.
 NSaved= 3 IEnMin= 3 EnMin= -228.738277091167     IErMin= 3 ErrMin= 4.11D-06
 ErrMax= 4.11D-06  0.00D+00 EMaxC= 1.00D-01 BMatC= 5.80D-10 BMatP= 1.12D-08
 IDIUse=1 WtCom= 1.00D+00 WtEn= 0.00D+00
 Coeff-Com:  0.189D-01 0.149D+00 0.832D+00
 Coeff:      0.189D-01 0.149D+00 0.832D+00
 Gap=     0.258 Goal=   None    Shift=    0.000
 RMSDP=5.78D-07 MaxDP=5.64D-06 DE=-1.88D-08 OVMax= 1.29D-05

 Cycle  11  Pass 1  IDiag  1:
 E= -228.738277091568     Delta-E=       -0.000000000401 Rises=F Damp=F
 DIIS: error= 2.99D-06 at cycle   4 NSaved=   4.
 NSaved= 4 IEnMin= 4 EnMin= -228.738277091568     IErMin= 4 ErrMin= 2.99D-06
 ErrMax= 2.99D-06  0.00D+00 EMaxC= 1.00D-01 BMatC= 2.48D-10 BMatP= 5.80D-10
 IDIUse=1 WtCom= 1.00D+00 WtEn= 0.00D+00
 Coeff-Com: -0.140D-01 0.812D-01 0.546D+00 0.387D+00
 Coeff:     -0.140D-01 0.812D-01 0.546D+00 0.387D+00
 Gap=     0.258 Goal=   None    Shift=    0.000
 RMSDP=2.74D-07 MaxDP=3.61D-06 DE=-4.01D-10 OVMax= 5.61D-06

 Cycle  12  Pass 1  IDiag  1:
 E= -228.738277091762     Delta-E=       -0.000000000194 Rises=F Damp=F
 DIIS: error= 3.54D-07 at cycle   5 NSaved=   5.
 NSaved= 5 IEnMin= 5 EnMin= -228.738277091762     IErMin= 5 ErrMin= 3.54D-07
 ErrMax= 3.54D-07  0.00D+00 EMaxC= 1.00D-01 BMatC= 4.24D-12 BMatP= 2.48D-10
 IDIUse=1 WtCom= 1.00D+00 WtEn= 0.00D+00
 Coeff-Com: -0.794D-02 0.366D-01 0.240D+00 0.196D+00 0.536D+00
 Coeff:     -0.794D-02 0.366D-01 0.240D+00 0.196D+00 0.536D+00
 Gap=     0.258 Goal=   None    Shift=    0.000
 RMSDP=5.26D-08 MaxDP=7.16D-07 DE=-1.94D-10 OVMax= 1.10D-06

 Cycle  13  Pass 1  IDiag  1:
 E= -228.738277091768     Delta-E=       -0.000000000006 Rises=F Damp=F
 DIIS: error= 9.52D-08 at cycle   6 NSaved=   6.
 NSaved= 6 IEnMin= 6 EnMin= -228.738277091768     IErMin= 6 ErrMin= 9.52D-08
 ErrMax= 9.52D-08  0.00D+00 EMaxC= 1.00D-01 BMatC= 4.74D-13 BMatP= 4.24D-12
 IDIUse=1 WtCom= 1.00D+00 WtEn= 0.00D+00
 Coeff-Com: -0.190D-02 0.612D-02 0.316D-01 0.338D-01 0.271D+00 0.660D+00
 Coeff:     -0.190D-02 0.612D-02 0.316D-01 0.338D-01 0.271D+00 0.660D+00
 Gap=     0.258 Goal=   None    Shift=    0.000
 RMSDP=1.30D-08 MaxDP=1.54D-07 DE=-5.68D-12 OVMax= 3.70D-07

 Cycle  14  Pass 1  IDiag  1:
 E= -228.738277091767     Delta-E=        0.000000000001 Rises=F Damp=F
 DIIS: error= 1.79D-08 at cycle   7 NSaved=   7.
 NSaved= 7 IEnMin= 6 EnMin= -228.738277091768     IErMin= 7 ErrMin= 1.79D-08
 ErrMax= 1.79D-08  0.00D+00 EMaxC= 1.00D-01 BMatC= 2.21D-14 BMatP= 4.74D-13
 IDIUse=1 WtCom= 1.00D+00 WtEn= 0.00D+00
 Coeff-Com: -0.389D-03 0.784D-03 0.104D-02 0.355D-02 0.964D-01 0.296D+00
 Coeff-Com:  0.602D+00
 Coeff:     -0.389D-03 0.784D-03 0.104D-02 0.355D-02 0.964D-01 0.296D+00
 Coeff:      0.602D+00
 Gap=     0.258 Goal=   None    Shift=    0.000
 RMSDP=3.66D-09 MaxDP=4.09D-08 DE= 9.09D-13 OVMax= 6.03D-08

 SCF Done:  E(RB3LYP) =  -228.738277092     A.U. after   14 cycles
            NFock= 14  Conv=0.37D-08     -V/T= 2.0082
 KE= 2.268883475037D+02 PE=-8.549007933669D+02 EE= 2.380930192001D+02
 Leave Link  502 at Tue Dec 15 16:24:55 2015, MaxMem=    33554432 cpu:         4.9
 (Enter /home/Applications/g09/g09/l801.exe)
 DoSCS=F DFT=T ScalE2(SS,OS)=  1.000000  1.000000
 ExpMin= 1.83D-01 ExpMax= 3.22D+02 ExpMxC= 3.22D+02 IAcc=3 IRadAn=         5 AccDes= 0.00D+00
 HarFok:  IExCor=  205 AccDes= 0.00D+00 IRadAn=         5 IDoV=-2 UseB2=F ITyADJ=14
 ICtDFT= 12500011 ScaDFX=  1.000000  1.000000  1.000000  1.000000
 Largest valence mixing into a core orbital is  1.77D-04
 Largest core mixing into a valence orbital is  4.75D-05
 Range of M.O.s used for correlation:     6    53
 NBasis=    53 NAE=    18 NBE=    18 NFC=     5 NFV=     0
 NROrb=     48 NOA=    13 NOB=    13 NVA=    35 NVB=    35
 Leave Link  801 at Tue Dec 15 16:24:55 2015, MaxMem=    33554432 cpu:         0.2
 (Enter /home/Applications/g09/g09/l914.exe)
 RHF ground state
 MDV=    33554432 DFT=T DoStab=F Mixed=T DoRPA=F DoScal=F NonHer=F
 Keep R1, R2, and R3 ints in memory in canonical form, NReq=5596273.
 FoFCou: FMM=F IPFlag=           0 FMFlag=           0 FMFlg1=           0
         NFxFlg=           0 DoJE=F BraDBF=F KetDBF=F FulRan=T
         wScrn=  0.000000 ICntrl=     600 IOpCl=  0 I1Cent=           0 NGrid=           0
         NMat0=    1 NMatS0=   1431 NMatT0=    0 NMatD0=    1 NMtDS0=    0 NMtDT0=    0
 Symmetry not used in FoFCou.
 Making orbital integer symmetry assigments:
 Orbital symmetries:
       Occupied  (A) (A) (A) (A) (A) (A) (A) (A) (A) (A) (A) (A)
                 (A) (A) (A) (A) (A) (A)
       Virtual   (A) (A) (A) (A) (A) (A) (A) (A) (A) (A) (A) (A)
                 (A) (A) (A) (A) (A) (A) (A) (A) (A) (A) (A) (A)
                 (A) (A) (A) (A) (A) (A) (A) (A) (A) (A) (A)
    60 initial guesses have been made.
 Convergence on wavefunction:    0.000001000000000
 Davidson Disk Diagonalization:  ConvIn= 1.00D-06 SkipCon=T Conv= 1.00D-06.
 Max sub-space:   240 roots to seek:    60 dimension of matrix:          910
 Iteration     1 Dimension    60 NMult     0 NNew     60
 CISAX will form    60 AO SS matrices at one time.
 NMat=    60 NSing=    60 JSym2X= 0.
 New state      1 was old state      2
 New state      2 was old state      1
 New state      3 was old state      4
 New state      4 was old state      5
 New state      5 was old state      7
 New state      6 was old state      8
 New state      7 was old state      9
 New state      8 was old state     11
 New state      9 was old state     12
 New state     10 was old state     13
 New state     11 was old state     10
 New state     12 was old state      6
 New state     13 was old state     16
 New state     14 was old state      3
 New state     15 was old state     14
 Excitation Energies [eV] at current iteration:
 Root      1 :     7.609142962316200
 Root      2 :     8.096332562552492
 Root      3 :     8.278035916096526
 Root      4 :     8.903985808135397
 Root      5 :     9.203870595270011
 Root      6 :     9.585236312089540
 Root      7 :     9.758728225725873
 Root      8 :     9.962611798638290
 Root      9 :    10.201569401197740
 Root     10 :    10.356850474036450
 Root     11 :    10.389148390030850
 Root     12 :    10.405949287030520
 Root     13 :    10.904670451191650
 Root     14 :    10.973685732559120
 Root     15 :    11.023213312177470
 Root     16 :    11.113576576311340
 Root     17 :    11.202143955901890
 Root     18 :    11.435659657662570
 Root     19 :    11.547776114841690
 Root     20 :    11.647030187489370
 Root     21 :    12.104450618977000
 Root     22 :    12.138322539938810
 Root     23 :    12.168957565205190
 Root     24 :    12.478631489280360
 Root     25 :    12.840697027010740
 Root     26 :    13.014152299469660
 Root     27 :    13.133145340958200
 Root     28 :    13.373663101318190
 Root     29 :    13.574100942388560
 Root     30 :    13.664937784998280
 Root     31 :    13.878379698592930
 Root     32 :    13.956445689048300
 Root     33 :    14.002946213744020
 Root     34 :    14.006816359299410
 Root     35 :    14.155587460775770
 Root     36 :    14.205599389624930
 Root     37 :    14.321778524349440
 Root     38 :    14.578464084589620
 Root     39 :    14.675876113863730
 Root     40 :    14.767605040930060
 Root     41 :    14.831975779510340
 Root     42 :    15.046146009409290
 Root     43 :    15.141693996960480
 Root     44 :    15.315025970307770
 Root     45 :    15.337937254174240
 Root     46 :    15.393010012996460
 Root     47 :    15.460014159822700
 Root     48 :    15.561904067723620
 Root     49 :    15.706519646684470
 Root     50 :    15.815122475112920
 Root     51 :    15.937941695982710
 Root     52 :    16.075299945867780
 Root     53 :    16.085796044942830
 Root     54 :    16.276214466785350
 Root     55 :    16.337502478402430
 Root     56 :    16.571766201889870
 Root     57 :    16.594544043001350
 Root     58 :    16.845513970161830
 Root     59 :    17.448195729326550
 Root     60 :    19.555789843755160
 Iteration     2 Dimension   120 NMult    60 NNew     60
 CISAX will form    60 AO SS matrices at one time.
 NMat=    60 NSing=    60 JSym2X= 0.
 New state      1 was old state      2
 Root      1 not converged, maximum delta is    0.266083198124311
 New state      2 was old state      1
 Root      2 not converged, maximum delta is    0.367742869445428
 Root      3 not converged, maximum delta is    0.011447209209394
 Root      4 not converged, maximum delta is    0.022994200740655
 Root      5 not converged, maximum delta is    0.015919570123116
 Root      6 not converged, maximum delta is    0.065687840756478
 Root      7 not converged, maximum delta is    0.151884179063280
 New state      8 was old state     12
 Root      8 not converged, maximum delta is    0.202567801444258
 New state      9 was old state      8
 Root      9 not converged, maximum delta is    0.143247536160747
 New state     10 was old state     14
 Root     10 not converged, maximum delta is    0.287712625817276
 New state     11 was old state      9
 Root     11 not converged, maximum delta is    0.162726966370620
 New state     12 was old state     10
 Root     12 not converged, maximum delta is    0.151627689839466
 New state     13 was old state     11
 Root     13 not converged, maximum delta is    0.037539109337189
 New state     14 was old state     13
 Root     14 not converged, maximum delta is    0.114779947362039
 Root     15 not converged, maximum delta is    0.186287262674858
 Excitation Energies [eV] at current iteration:
 Root      1 :     7.284192734791998   Change is   -0.812139827760494
 Root      2 :     7.518610015876162   Change is   -0.090532946440038
 Root      3 :     8.270454143602750   Change is   -0.007581772493776
 Root      4 :     8.883087544524933   Change is   -0.020898263610463
 Root      5 :     9.173999554526782   Change is   -0.029871040743228
 Root      6 :     9.570635318907094   Change is   -0.014600993182447
 Root      7 :     9.735443099315438   Change is   -0.023285126410436
 Root      8 :     9.851059130746544   Change is   -0.554890156283972
 Root      9 :     9.945331934434517   Change is   -0.017279864203773
 Root     10 :    10.012666086395370   Change is   -0.961019646163746
 Root     11 :    10.201815396526700   Change is    0.000245995328962
 Root     12 :    10.336747554564730   Change is   -0.020102919471722
 Root     13 :    10.370393476423990   Change is   -0.018754913606862
 Root     14 :    10.896363865708580   Change is   -0.008306585483063
 Root     15 :    10.982788091591720   Change is   -0.040425220585747
 Root     16 :    11.104975794530570   Change is   -0.008600781780774
 Root     17 :    11.139982594154010   Change is   -0.062161361747883
 Root     18 :    11.410303709248810   Change is   -0.025355948413761
 Root     19 :    11.538431231852970   Change is   -0.009344882988717
 Root     20 :    11.624211785396330   Change is   -0.022818402093044
 Root     21 :    11.974055241816400   Change is   -0.130395377160603
 Root     22 :    12.105173097225140   Change is   -0.033149442713667
 Root     23 :    12.133112037833960   Change is   -0.035845527371230
 Root     24 :    12.383013748755580   Change is   -0.095617740524780
 Root     25 :    12.824957404756280   Change is   -0.015739622254457
 Root     26 :    12.832855094153720   Change is   -0.300290246804487
 Root     27 :    12.952210705178320   Change is   -0.061941594291340
 Root     28 :    13.133420014417000   Change is   -0.240243086901192
 Root     29 :    13.479055130681140   Change is   -0.095045811707422
 Root     30 :    13.559097920051190   Change is   -0.319281778541737
 Root     31 :    13.594574948799840   Change is   -0.070362836198434
 Root     32 :    13.674274783922580   Change is   -0.282170905125722
 Root     33 :    13.925333621934190   Change is   -0.077612591809830
 Root     34 :    13.977760169022070   Change is   -0.029056190277338
 Root     35 :    14.085525172560700   Change is   -0.070062288215070
 Root     36 :    14.164628916047380   Change is   -0.040970473577543
 Root     37 :    14.240720988900190   Change is   -0.081057535449247
 Root     38 :    14.397995914598130   Change is   -0.180468169991494
 Root     39 :    14.564333621112040   Change is   -0.267642158398294
 Root     40 :    14.640804609288990   Change is   -0.035071504574744
 Root     41 :    14.735357948459970   Change is   -0.032247092470094
 Root     42 :    14.906287571994420   Change is   -0.139858437414866
 Root     43 :    14.921243869689380   Change is   -0.471766143307086
 Root     44 :    15.020913913194760   Change is   -0.120780083765721
 Root     45 :    15.227700030282220   Change is   -0.087325940025552
 Root     46 :    15.272685975127840   Change is   -0.065251279046393
 Root     47 :    15.368753177726000   Change is   -0.091260982096708
 Root     48 :    15.409647194266660   Change is   -0.927855284135766
 Root     49 :    15.465804376387430   Change is   -0.096099691336189
 Root     50 :    15.582859879944080   Change is   -0.123659766740397
 Root     51 :    15.766042676880090   Change is   -1.079471293281742
 Root     52 :    15.775619480019160   Change is   -0.039502995093754
 Root     53 :    15.966726522630340   Change is    0.028784826647628
 Root     54 :    15.977583595101010   Change is   -0.108212449841818
 Root     55 :    16.007365851597320   Change is   -0.067934094270466
 Root     56 :    16.129740851212610   Change is   -0.146473615572735
 Root     57 :    16.336742809137490   Change is   -1.111452920189057
 Root     58 :    16.467750822526640   Change is   -0.126793220474709
 Root     59 :    16.479077656700940   Change is   -0.092688545188924
 Root     60 :    16.881050482829640   Change is   -2.674739360925526
 Iteration     3 Dimension   135 NMult   120 NNew     15
 CISAX will form    15 AO SS matrices at one time.
 NMat=    15 NSing=    15 JSym2X= 0.
 Root      1 not converged, maximum delta is    0.002564047332044
 Root      2 not converged, maximum delta is    0.001147304789185
 Root      3 not converged, maximum delta is    0.000121773767541
 Root      4 not converged, maximum delta is    0.000182489069774
 Root      5 not converged, maximum delta is    0.000387108142750
 Root      6 not converged, maximum delta is    0.000648748683708
 Root      7 not converged, maximum delta is    0.002665094480186
 Root      8 not converged, maximum delta is    0.003247580369972
 Root      9 not converged, maximum delta is    0.006808259740101
 Root     10 not converged, maximum delta is    0.010585538119941
 Root     11 not converged, maximum delta is    0.002596102612721
 Root     12 not converged, maximum delta is    0.000300763226340
 Root     13 not converged, maximum delta is    0.000342349028653
 Root     14 not converged, maximum delta is    0.000144404968937
 Root     15 not converged, maximum delta is    0.000757432920231
 Excitation Energies [eV] at current iteration:
 Root      1 :     7.282502978958295   Change is   -0.001689755833704
 Root      2 :     7.517682890697436   Change is   -0.000927125178726
 Root      3 :     8.270446044901758   Change is   -0.000008098700992
 Root      4 :     8.883071608086203   Change is   -0.000015936438730
 Root      5 :     9.173967752642787   Change is   -0.000031801883996
 Root      6 :     9.570581897311319   Change is   -0.000053421595775
 Root      7 :     9.735249298324371   Change is   -0.000193800991067
 Root      8 :     9.849316233887727   Change is   -0.001742896858818
 Root      9 :     9.944859155851251   Change is   -0.000472778583267
 Root     10 :    10.009224177008320   Change is   -0.003441909387050
 Root     11 :    10.201466465815230   Change is   -0.000348930711467
 Root     12 :    10.336716732494860   Change is   -0.000030822069866
 Root     13 :    10.370354910739290   Change is   -0.000038565684703
 Root     14 :    10.896353296955220   Change is   -0.000010568753362
 Root     15 :    10.982726316919700   Change is   -0.000061774672027
 Iteration     4 Dimension   150 NMult   135 NNew     15
 CISAX will form    15 AO SS matrices at one time.
 NMat=    15 NSing=    15 JSym2X= 0.
 Root      1 not converged, maximum delta is    0.000075125575449
 Root      2 not converged, maximum delta is    0.000040193125817
 Root      3 not converged, maximum delta is    0.000004003637416
 Root      4 not converged, maximum delta is    0.000003850563792
 Root      5 not converged, maximum delta is    0.000004320854504
 Root      6 not converged, maximum delta is    0.000014200339136
 Root      7 not converged, maximum delta is    0.000028041268531
 Root      8 not converged, maximum delta is    0.000088907121710
 Root      9 not converged, maximum delta is    0.000038229329734
 Root     10 not converged, maximum delta is    0.000109639911300
 Root     11 not converged, maximum delta is    0.000034616612454
 Root     12 not converged, maximum delta is    0.000006533330567
 Root     13 not converged, maximum delta is    0.000006424057111
 Root     14 not converged, maximum delta is    0.000005445151601
 Root     15 not converged, maximum delta is    0.000023468382710
 Excitation Energies [eV] at current iteration:
 Root      1 :     7.282501370770610   Change is   -0.000001608187685
 Root      2 :     7.517681686989016   Change is   -0.000001203708421
 Root      3 :     8.270446036452361   Change is   -0.000000008449398
 Root      4 :     8.883071595452654   Change is   -0.000000012633550
 Root      5 :     9.173967737464574   Change is   -0.000000015178212
 Root      6 :     9.570581823364590   Change is   -0.000000073946729
 Root      7 :     9.735249025217625   Change is   -0.000000273106745
 Root      8 :     9.849313612826620   Change is   -0.000002621061106
 Root      9 :     9.944858435795995   Change is   -0.000000720055256
 Root     10 :    10.009218690573530   Change is   -0.000005486434794
 Root     11 :    10.201465927850260   Change is   -0.000000537964974
 Root     12 :    10.336716699628240   Change is   -0.000000032866628
 Root     13 :    10.370354880180640   Change is   -0.000000030558649
 Root     14 :    10.896353285095450   Change is   -0.000000011859767
 Root     15 :    10.982726234931930   Change is   -0.000000081987764
 Iteration     5 Dimension   165 NMult   150 NNew     15
 CISAX will form    15 AO SS matrices at one time.
 NMat=    15 NSing=    15 JSym2X= 0.
 Root      1 not converged, maximum delta is    0.000001765201085
 Root      2 not converged, maximum delta is    0.000001905051316
 Root      3 has converged.
 Root      4 has converged.
 Root      5 has converged.
 Root      6 has converged.
 Root      7 has converged.
 Root      8 not converged, maximum delta is    0.000002617672992
 Root      9 not converged, maximum delta is    0.000001428748952
 Root     10 not converged, maximum delta is    0.000004224284527
 Root     11 not converged, maximum delta is    0.000001389462248
 Root     12 has converged.
 Root     13 not converged, maximum delta is    0.000001002896015
 Root     14 has converged.
 Root     15 has converged.
 Excitation Energies [eV] at current iteration:
 Root      1 :     7.282501369204989   Change is   -0.000000001565620
 Root      2 :     7.517681685834669   Change is   -0.000000001154347
 Root      3 :     8.270446036443504   Change is   -0.000000000008856
 Root      4 :     8.883071595442214   Change is   -0.000000000010439
 Root      5 :     9.173967737453076   Change is   -0.000000000011500
 Root      6 :     9.570581823299051   Change is   -0.000000000065539
 Root      7 :     9.735249024930221   Change is   -0.000000000287405
 Root      8 :     9.849313610148998   Change is   -0.000000002677622
 Root      9 :     9.944858434840128   Change is   -0.000000000955867
 Root     10 :    10.009218683440350   Change is   -0.000000007133175
 Root     11 :    10.201465927124950   Change is   -0.000000000725311
 Root     12 :    10.336716699590200   Change is   -0.000000000038034
 Root     13 :    10.370354880144100   Change is   -0.000000000036543
 Root     14 :    10.896353285082210   Change is   -0.000000000013240
 Root     15 :    10.982726234875510   Change is   -0.000000000056417
 Iteration     6 Dimension   171 NMult   165 NNew      6
 CISAX will form     6 AO SS matrices at one time.
 NMat=     6 NSing=     6 JSym2X= 0.
 Root      1 has converged.
 Root      2 has converged.
 Root      3 has converged.
 Root      4 has converged.
 Root      5 has converged.
 Root      6 has converged.
 Root      7 has converged.
 Root      8 has converged.
 Root      9 has converged.
 Root     10 has converged.
 Root     11 has converged.
 Root     12 has converged.
 Root     13 has converged.
 Root     14 has converged.
 Root     15 has converged.
 Excitation Energies [eV] at current iteration:
 Root      1 :     7.282501369204372   Change is   -0.000000000000618
 Root      2 :     7.517681685834214   Change is   -0.000000000000455
 Root      3 :     8.270446036443511   Change is    0.000000000000006
 Root      4 :     8.883071595442196   Change is   -0.000000000000018
 Root      5 :     9.173967737453077   Change is    0.000000000000002
 Root      6 :     9.570581823298996   Change is   -0.000000000000056
 Root      7 :     9.735249024929940   Change is   -0.000000000000281
 Root      8 :     9.849313610146654   Change is   -0.000000000002346
 Root      9 :     9.944858434839173   Change is   -0.000000000000955
 Root     10 :    10.009218683433400   Change is   -0.000000000006951
 Root     11 :    10.201465927124200   Change is   -0.000000000000743
 Root     12 :    10.336716699590170   Change is   -0.000000000000027
 Root     13 :    10.370354880144050   Change is   -0.000000000000047
 Root     14 :    10.896353285082190   Change is   -0.000000000000024
 Root     15 :    10.982726234875510   Change is   -0.000000000000009
 Convergence achieved on expansion vectors.
 ***********************************************************************
 Excited states from <AA,BB:AA,BB> singles matrix:
 ***********************************************************************
 
 1PDM for each excited state written to RWF  633
 Ground to excited state transition densities written to RWF  633
 Ground to excited state transition electric dipole moments (Au):
       state          X           Y           Z        Dip. S.      Osc.
         1         0.8582      0.5707      0.0041      1.0622      0.1895
         2        -0.2668     -0.2538      0.0018      0.1356      0.0250
         3         0.0188     -0.0232     -0.0157      0.0011      0.0002
         4        -0.0306     -0.0165      0.0459      0.0033      0.0007
         5        -0.0189     -0.0308     -0.1771      0.0327      0.0073
         6        -0.0842     -0.0763     -0.0399      0.0145      0.0034
         7        -0.2401     -0.0072     -0.0224      0.0582      0.0139
         8         0.7407      0.1280     -0.0425      0.5668      0.1368
         9        -0.3572      0.3487     -0.0678      0.2538      0.0618
        10        -0.5592      1.2180      0.0311      1.7973      0.4407
        11        -0.2053      0.3552     -0.0303      0.1692      0.0423
        12         0.0367     -0.0429     -0.0084      0.0033      0.0008
        13         0.0496     -0.0514      0.0735      0.0105      0.0027
        14         0.0070     -0.0304      0.0652      0.0052      0.0014
        15         0.0165      0.0442     -0.2069      0.0450      0.0121
 Ground to excited state transition velocity dipole moments (Au):
       state          X           Y           Z        Dip. S.      Osc.
         1        -0.0058     -0.0243      0.0015      0.0006      0.0016
         2         0.0383     -0.0415      0.0005      0.0032      0.0077
         3         0.0034     -0.0059     -0.0130      0.0002      0.0005
         4         0.0007      0.0006     -0.0264      0.0007      0.0014
         5         0.0033      0.0016      0.0893      0.0080      0.0158
         6         0.0086      0.0079     -0.0377      0.0016      0.0030
         7         0.0213      0.0091      0.0136      0.0007      0.0013
         8        -0.0739     -0.0386     -0.0019      0.0070      0.0128
         9         0.0179     -0.0027      0.0130      0.0005      0.0009
        10        -0.0085     -0.0469     -0.0017      0.0023      0.0041
        11         0.0042     -0.0129     -0.0200      0.0006      0.0010
        12        -0.0023      0.0014      0.0010      0.0000      0.0000
        13        -0.0063     -0.0005     -0.0272      0.0008      0.0014
        14        -0.0019      0.0045     -0.0012      0.0000      0.0000
        15        -0.0052     -0.0036     -0.0143      0.0002      0.0004
 Ground to excited state transition magnetic dipole moments (Au):
       state          X           Y           Z
         1        -0.0260     -0.0333      0.5129
         2         0.0107     -0.0103     -0.1911
         3        -0.2345      0.4414     -0.0128
         4         0.1066     -0.1774     -0.0429
         5        -1.3122     -0.9929     -0.0132
         6        -0.1645     -0.0913      0.0352
         7         0.0137      0.0425      0.0960
         8         0.0040      0.0240     -0.2976
         9        -0.0031      0.1100     -0.0302
        10        -0.0683     -0.0108     -0.1001
        11         0.0331      0.1057     -0.0054
        12         0.6181     -0.7014     -0.0099
        13        -0.2640      0.1403      0.0386
        14         0.4680     -0.5192      0.0384
        15        -0.0040      0.0313      0.0524
 Ground to excited state transition velocity quadrupole moments (Au):
       state          XX          YY          ZZ          XY          XZ          YZ
         1        -0.2163      0.1713      0.0146      0.0705     -0.0033     -0.0028
         2         0.0824     -0.1120      0.0271     -0.0339      0.0047      0.0015
         3        -0.0088     -0.0060      0.0017     -0.0045     -0.0926     -0.0314
         4         0.0280     -0.0113     -0.0051     -0.0071     -0.1177     -0.0271
         5         0.0157     -0.0133      0.0004     -0.0068      0.1154     -0.1866
         6        -0.0348      0.0298      0.0005      0.0062      0.1123      0.0128
         7        -0.0817      0.0979     -0.0071      0.0734     -0.0434     -0.1039
         8         0.2976     -0.3032      0.0102     -0.1999     -0.0057     -0.0073
         9         0.0298      0.0060     -0.0233      0.1146     -0.0136      0.0581
        10         0.2525     -0.1686     -0.0628      0.2335      0.0097     -0.0409
        11         0.0631     -0.0363     -0.0199      0.0806     -0.0212      0.0705
        12         0.0110     -0.0177      0.0024     -0.0157      0.0720      0.0426
        13        -0.0019     -0.0019      0.0021     -0.0205      0.0104     -0.0916
        14        -0.0148      0.0133     -0.0008     -0.0102      0.1195      0.1247
        15         0.0018      0.0032     -0.0035      0.0074      0.0765     -0.0835
 <0|del|b> * <b|rxdel|0> + <0|del|b> * <b|delr+rdel|0>
 Rotatory Strengths (R) in cgs (10**-40 erg-esu-cm/Gauss)
       state          XX          YY          ZZ    R(velocity)    E-M Angle
         1         2.0995      1.0795      1.3508      1.5099       82.36
         2         0.6607      0.5051      0.7490      0.6382       86.03
         3        -3.4238     -0.9236     -3.2097     -2.5191      116.25
         4         1.3917      1.0882     -0.0842      0.7986       78.58
         5        -3.7209     -5.7383     -5.3196     -4.9263       92.75
         6        -3.1763     -2.4080     -1.3655     -2.3166      117.23
         7         3.0460     -1.5986      2.4709      1.3061       45.88
         8        -0.2068      0.4222     -1.5050     -0.4298       91.52
         9         0.7384     -0.8644     -1.3128     -0.4796      106.99
        10         0.7127      1.4284      0.2762      0.8058       77.50
        11        -2.9600      2.0248     -1.1738     -0.7030      114.70
        12        -1.0326     -1.4104     -2.0543     -1.4991      154.15
        13        -0.5218      0.5903      0.9372      0.3352       86.31
        14        -2.5729     -1.0462     -2.1688     -1.9293      158.49
        15        -0.6052     -0.1654     -0.6997     -0.4901      151.56
 1/2[<0|r|b>*<b|rxdel|0> + (<0|rxdel|b>*<b|r|0>)*]
 Rotatory Strengths (R) in cgs (10**-40 erg-esu-cm/Gauss)
       state          XX          YY          ZZ     R(length)
         1        15.7594     13.4286     -1.4940      9.2313
         2         2.0254     -1.8514      0.2440      0.1393
         3         3.1093      7.2412     -0.1427      3.4026
         4         2.3092     -2.0746      1.3946      0.5431
         5       -17.5530    -21.6381     -1.6553    -13.6155
         6        -9.7941     -4.9245      0.9919     -4.5756
         7         2.3208      0.2167      1.5240      1.3538
         8        -2.0810     -2.1712     -8.9442     -4.3988
         9        -0.7740    -27.1226     -1.4478     -9.7815
        10       -27.0206      9.3172      2.2056     -5.1659
        11         4.8032    -26.5562     -0.1150     -7.2893
        12       -16.0634    -21.2928     -0.0586    -12.4716
        13         9.2607      5.0945     -2.0061      4.1164
        14        -2.3283    -11.1599     -1.7695     -5.0859
        15         0.0472     -0.9774      7.6656      2.2451
  1/2[<0|del|b>*<b|r|0> + (<0|r|b>*<b|del|0>)*] (Au)
       state          X           Y           Z        Dip. S.   Osc.(frdel)
         1        -0.0050     -0.0139      0.0000      0.0188      0.0126
         2        -0.0102      0.0105      0.0000     -0.0003     -0.0002
         3         0.0001      0.0001      0.0002     -0.0004     -0.0003
         4         0.0000      0.0000     -0.0012      0.0012      0.0008
         5        -0.0001      0.0000     -0.0158      0.0159      0.0106
         6        -0.0007     -0.0006      0.0015     -0.0002     -0.0001
         7        -0.0051     -0.0001     -0.0003      0.0055      0.0037
         8        -0.0548     -0.0049      0.0001      0.0596      0.0397
         9        -0.0064     -0.0009     -0.0009      0.0082      0.0055
        10         0.0048     -0.0572     -0.0001      0.0524      0.0350
        11        -0.0009     -0.0046      0.0006      0.0048      0.0032
        12        -0.0001     -0.0001      0.0000      0.0002      0.0001
        13        -0.0003      0.0000     -0.0020      0.0023      0.0015
        14         0.0000     -0.0001     -0.0001      0.0002      0.0002
        15        -0.0001     -0.0002      0.0030     -0.0027     -0.0018

 Excitation energies and oscillator strengths:
 
 Excited State   1:      Singlet-A      7.2825 eV  170.25 nm  f=0.1895  <S**2>=0.000
      17 -> 19         0.16655
      18 -> 19         0.65130
      18 -> 20         0.14043
 This state for optimization and/or second-order correction.
 Total Energy, E(CIS) =  -228.470650079    
 Copying the excited state density for this state as the 1-particle RhoCI density.
 
 Excited State   2:      Singlet-A      7.5177 eV  164.92 nm  f=0.0250  <S**2>=0.000
      17 -> 19         0.48580
      18 -> 19        -0.21299
      18 -> 20         0.45441
 
 Excited State   3:      Singlet-A      8.2704 eV  149.91 nm  f=0.0002  <S**2>=0.000
      18 -> 21         0.69346
 
 Excited State   4:      Singlet-A      8.8831 eV  139.57 nm  f=0.0007  <S**2>=0.000
      18 -> 22         0.68948
 
 Excited State   5:      Singlet-A      9.1740 eV  135.15 nm  f=0.0073  <S**2>=0.000
      16 -> 19         0.69308
 
 Excited State   6:      Singlet-A      9.5706 eV  129.55 nm  f=0.0034  <S**2>=0.000
      17 -> 20        -0.13727
      17 -> 21         0.54461
      18 -> 23        -0.38959
 
 Excited State   7:      Singlet-A      9.7352 eV  127.36 nm  f=0.0139  <S**2>=0.000
      15 -> 19         0.15336
      17 -> 20        -0.21408
      17 -> 21         0.35616
      18 -> 23         0.53028
 
 Excited State   8:      Singlet-A      9.8493 eV  125.88 nm  f=0.1368  <S**2>=0.000
      15 -> 19         0.16508
      17 -> 19         0.10497
      17 -> 20         0.60312
      17 -> 21         0.22649
 
 Excited State   9:      Singlet-A      9.9449 eV  124.67 nm  f=0.0618  <S**2>=0.000
      15 -> 19         0.62614
      17 -> 19        -0.14475
      18 -> 20         0.16000
      18 -> 23        -0.16871
 
 Excited State  10:      Singlet-A     10.0092 eV  123.87 nm  f=0.4407  <S**2>=0.000
      13 -> 25         0.10207
      15 -> 19        -0.20273
      17 -> 19        -0.37736
      17 -> 20         0.18592
      17 -> 22        -0.18336
      18 -> 20         0.42445
 
 Excited State  11:      Singlet-A     10.2015 eV  121.54 nm  f=0.0423  <S**2>=0.000
      17 -> 19        -0.11005
      17 -> 22         0.66582
      18 -> 20         0.12086
 
 Excited State  12:      Singlet-A     10.3367 eV  119.95 nm  f=0.0008  <S**2>=0.000
      14 -> 19         0.66032
      16 -> 20        -0.16813
      18 -> 24         0.15756
 
 Excited State  13:      Singlet-A     10.3704 eV  119.56 nm  f=0.0027  <S**2>=0.000
      14 -> 19        -0.15705
      18 -> 24         0.67041
 
 Excited State  14:      Singlet-A     10.8964 eV  113.79 nm  f=0.0014  <S**2>=0.000
      13 -> 19         0.53193
      16 -> 20         0.40230
      18 -> 25        -0.19308
 
 Excited State  15:      Singlet-A     10.9827 eV  112.89 nm  f=0.0121  <S**2>=0.000
      16 -> 20         0.18859
      18 -> 25         0.65166
 SavETr:  write IOETrn=   770 NScale= 10 NData=  16 NLR=1 NState=   15 LETran=     280.
 The selected state is a singlet
 CISAX will form     1 AO SS matrices at one time.
 NMat=     1 NSing=     1 JSym2X= 0.
 CISAX will form     1 AO SS matrices at one time.
 NMat=     1 NSing=     1 JSym2X= 0.
 Leave Link  914 at Tue Dec 15 16:25:29 2015, MaxMem=    33554432 cpu:        33.4
 (Enter /home/Applications/g09/g09/l1002.exe)
 Minotr:  Closed shell wavefunction.
          Computing CIS/TD-HF/TD-KS derivatives.
          Using Z-Vector for PSCF gradient.
          Skipping F1 and S1 gradient terms here.
          IDoAtm=111111111
          Frozen-core window.
          Direct CPHF calculation.
          Differentiating once with respect to electric field.
                with respect to dipole field.
          Differentiating once with respect to nuclear coordinates.
          Requested convergence is 1.0D-10 RMS, and 1.0D-09 maximum.
          NewPWx=F KeepS1=T KeepF1=T KeepIn=T MapXYZ=F SortEE=F KeepMc=T.
          MDV=      33554290 using IRadAn=       0.
 Using stored XC quadrature information.
 Keep R1 ints in memory in canonical form, NReq=1898913.
 FoFCou: FMM=F IPFlag=           0 FMFlag=           0 FMFlg1=           0
         NFxFlg=           0 DoJE=F BraDBF=F KetDBF=F FulRan=T
         wScrn=  0.000000 ICntrl=     600 IOpCl=  0 I1Cent=           0 NGrid=           0
         NMat0=    1 NMatS0=   1431 NMatT0=    0 NMatD0=    1 NMtDS0=    0 NMtDT0=    0
 Symmetry not used in FoFCou.
          Solving linear equations separately, MaxMat=       0.
          There are     1 degrees of freedom in the 1st order CPHF.  IDoFFX=0 NUNeed=     1.
 LinEq1:  Iter=  0 NonCon=     1 RMS=3.71D-02 Max=4.85D-01 NDo=     1
 AX will form     1 AO Fock derivatives at one time.
 LinEq1:  Iter=  1 NonCon=     1 RMS=2.33D-02 Max=4.49D-01 NDo=     1
 LinEq1:  Iter=  2 NonCon=     1 RMS=1.72D-02 Max=2.85D-01 NDo=     1
 LinEq1:  Iter=  3 NonCon=     1 RMS=5.93D-03 Max=6.16D-02 NDo=     1
 LinEq1:  Iter=  4 NonCon=     1 RMS=4.12D-03 Max=4.68D-02 NDo=     1
 LinEq1:  Iter=  5 NonCon=     1 RMS=1.12D-03 Max=1.72D-02 NDo=     1
 LinEq1:  Iter=  6 NonCon=     1 RMS=5.55D-04 Max=4.48D-03 NDo=     1
 LinEq1:  Iter=  7 NonCon=     1 RMS=2.04D-04 Max=1.65D-03 NDo=     1
 LinEq1:  Iter=  8 NonCon=     1 RMS=7.53D-05 Max=5.56D-04 NDo=     1
 LinEq1:  Iter=  9 NonCon=     1 RMS=1.70D-05 Max=1.28D-04 NDo=     1
 LinEq1:  Iter= 10 NonCon=     1 RMS=1.76D-06 Max=1.04D-05 NDo=     1
 LinEq1:  Iter= 11 NonCon=     1 RMS=2.28D-07 Max=1.46D-06 NDo=     1
 LinEq1:  Iter= 12 NonCon=     1 RMS=2.99D-08 Max=2.06D-07 NDo=     1
 LinEq1:  Iter= 13 NonCon=     1 RMS=3.95D-09 Max=1.96D-08 NDo=     1
 LinEq1:  Iter= 14 NonCon=     1 RMS=3.95D-10 Max=2.70D-09 NDo=     1
 LinEq1:  Iter= 15 NonCon=     0 RMS=5.20D-11 Max=4.20D-10 NDo=     1
 Linear equations converged to 1.000D-10 1.000D-09 after    15 iterations.
 End of Minotr F.D. properties file   721 does not exist.
 End of Minotr F.D. properties file   722 does not exist.
 End of Minotr F.D. properties file   788 does not exist.
 Leave Link 1002 at Tue Dec 15 16:25:39 2015, MaxMem=    33554432 cpu:        10.1
 (Enter /home/Applications/g09/g09/l601.exe)
 Copying SCF densities to generalized density rwf, IOpCl= 0 IROHF=0.

 **********************************************************************

            Population analysis using the SCF density.

 **********************************************************************

 Orbital symmetries:
       Occupied  (A) (A) (A) (A) (A) (A) (A) (A) (A) (A) (A) (A)
                 (A) (A) (A) (A) (A) (A)
       Virtual   (A) (A) (A) (A) (A) (A) (A) (A) (A) (A) (A) (A)
                 (A) (A) (A) (A) (A) (A) (A) (A) (A) (A) (A) (A)
                 (A) (A) (A) (A) (A) (A) (A) (A) (A) (A) (A)
 The electronic state is 1-A.
 Alpha  occ. eigenvalues --  -19.11683 -10.18035 -10.17356 -10.12827 -10.12177
 Alpha  occ. eigenvalues --   -1.12940  -0.81917  -0.74394  -0.60068  -0.56689
 Alpha  occ. eigenvalues --   -0.54191  -0.45030  -0.43196  -0.41584  -0.39743
 Alpha  occ. eigenvalues --   -0.37170  -0.28452  -0.23499
 Alpha virt. eigenvalues --    0.02267   0.08721   0.11459   0.13580   0.16707
 Alpha virt. eigenvalues --    0.18443   0.21504   0.23555   0.35931   0.43281
 Alpha virt. eigenvalues --    0.46603   0.68211   0.69836   0.70872   0.75697
 Alpha virt. eigenvalues --    0.76586   0.78982   0.81089   0.82051   0.83848
 Alpha virt. eigenvalues --    0.94489   0.97313   0.98415   1.01543   1.19392
 Alpha virt. eigenvalues --    1.19953   1.34870   1.36940   1.49993   1.56687
 Alpha virt. eigenvalues --    1.62834   1.73068   1.94305   2.12552   3.19119
     Molecular Orbital Coefficients:
                           1         2         3         4         5
                           O         O         O         O         O
     Eigenvalues --   -19.11683 -10.18035 -10.17356 -10.12827 -10.12177
   1 1   C  1S          0.00019   0.00006  -0.01163   0.98174   0.09151
   2        2S          0.00086   0.00010  -0.00579   0.11003   0.00638
   3        2PX         0.00070  -0.00026  -0.00055   0.00222  -0.00089
   4        2PY         0.00116   0.00026   0.00306  -0.00078  -0.00032
   5        2PZ         0.00000  -0.00001   0.00003  -0.00007   0.00002
   6        3S         -0.00552  -0.01848   0.03811  -0.10769   0.02739
   7        3PX        -0.00992  -0.00962   0.00865  -0.03299   0.01869
   8        3PY         0.00309   0.00837  -0.01822   0.01166   0.00483
   9        3PZ        -0.00001   0.00020  -0.00028   0.00075  -0.00029
  10 2   C  1S         -0.00048  -0.02810   0.98505   0.01122   0.00106
  11        2S         -0.00069  -0.00640   0.10671  -0.00363  -0.00092
  12        2PX         0.00227  -0.00063   0.00191   0.00047   0.00068
  13        2PY        -0.00039  -0.00105   0.00127  -0.00222  -0.00113
  14        2PZ         0.00000  -0.00002   0.00000  -0.00004   0.00001
  15        3S          0.01738   0.02064  -0.07641   0.04279  -0.00403
  16        3PX         0.01388   0.00895   0.00279   0.00178  -0.00158
  17        3PY         0.00898   0.02004  -0.01895   0.02508  -0.00001
  18        3PZ         0.00022   0.00027  -0.00019   0.00031  -0.00010
  19 3   O  1S          0.98280   0.00029   0.00024   0.00008   0.00010
  20        2S          0.10788   0.00199   0.00188   0.00040   0.00048
  21        2PX        -0.00241  -0.00001  -0.00099   0.00003  -0.00001
  22        2PY         0.00371   0.00076   0.00034  -0.00002  -0.00007
  23        2PZ        -0.00004   0.00000  -0.00003  -0.00001   0.00000
  24        3S         -0.06101  -0.00123  -0.00053  -0.00327  -0.00454
  25        3PX         0.00778   0.00158   0.00242   0.00279   0.00016
  26        3PY        -0.01206  -0.00333  -0.00273  -0.00029  -0.00285
  27        3PZ         0.00013  -0.00001   0.00014   0.00002   0.00002
  28 4   C  1S         -0.00039   0.98513   0.02687  -0.00052   0.00797
  29        2S         -0.00027   0.10676  -0.00049  -0.00020  -0.00431
  30        2PX        -0.00083  -0.00260   0.00097   0.00036   0.00230
  31        2PY        -0.00268  -0.00177  -0.00008  -0.00076  -0.00167
  32        2PZ         0.00002   0.00004   0.00005  -0.00003   0.00005
  33        3S          0.01782  -0.07709   0.01815  -0.01211   0.04393
  34        3PX        -0.00946   0.02034  -0.01923   0.00609  -0.02498
  35        3PY        -0.01004  -0.00878  -0.00003   0.00070   0.00802
  36        3PZ        -0.00003   0.00007  -0.00037   0.00019  -0.00024
  37 5   C  1S          0.00016  -0.00836  -0.00029  -0.09198   0.98170
  38        2S          0.00076  -0.00565  -0.00014  -0.01416   0.10963
  39        2PX        -0.00135  -0.00291  -0.00033   0.00077   0.00010
  40        2PY        -0.00019   0.00164   0.00046   0.00120  -0.00214
  41        2PZ        -0.00002  -0.00001  -0.00001  -0.00001   0.00007
  42        3S         -0.00291   0.04093  -0.01726   0.04724  -0.10293
  43        3PX         0.00084   0.01473  -0.00414  -0.01192  -0.00207
  44        3PY         0.00868  -0.01526   0.01045  -0.02247   0.03184
  45        3PZ         0.00011   0.00020  -0.00002   0.00029  -0.00056
  46 6   H  1S         -0.00107  -0.00114  -0.00046   0.00008  -0.00362
  47        2S         -0.00330   0.00194  -0.00155   0.00395   0.00466
  48 7   H  1S         -0.00015  -0.00240   0.00121  -0.00013  -0.00004
  49        2S          0.00202   0.00606   0.00616  -0.00045   0.00475
  50 8   H  1S          0.00056   0.00155  -0.00322  -0.00043  -0.00003
  51        2S          0.00442   0.00775   0.00947   0.00481   0.00105
  52 9   H  1S         -0.00112  -0.00059  -0.00092  -0.00322  -0.00060
  53        2S         -0.00374  -0.00207   0.00184   0.00352   0.00420
                           6         7         8         9        10
                           O         O         O         O         O
     Eigenvalues --    -1.12940  -0.81917  -0.74394  -0.60068  -0.56689
   1 1   C  1S         -0.02734   0.14497  -0.07241  -0.10583   0.06217
   2        2S          0.02653  -0.15619   0.07876   0.10763  -0.06121
   3        2PX         0.02655  -0.09207  -0.00914  -0.06692  -0.01477
   4        2PY        -0.02012   0.01883  -0.10067  -0.06371  -0.20708
   5        2PZ        -0.00037   0.00214  -0.00083   0.00010  -0.00057
   6        3S          0.04052  -0.28116   0.14492   0.37197  -0.22355
   7        3PX         0.04293  -0.03630   0.00704   0.01106  -0.00731
   8        3PY        -0.01520   0.01433   0.01474  -0.04130  -0.07687
   9        3PZ        -0.00018   0.00146  -0.00024  -0.00074   0.00018
  10 2   C  1S         -0.07207   0.06112  -0.14866   0.02291  -0.10272
  11        2S          0.07992  -0.07096   0.15937  -0.01921   0.11327
  12        2PX         0.08196   0.05809   0.00774  -0.15609  -0.12173
  13        2PY         0.02131  -0.11050   0.01750   0.15333  -0.03632
  14        2PZ         0.00053  -0.00043   0.00063   0.00147  -0.00169
  15        3S          0.05960  -0.09352   0.37598  -0.12524   0.32091
  16        3PX        -0.02836   0.00432  -0.00327  -0.06311  -0.07796
  17        3PY        -0.02746  -0.03743   0.04272   0.02846  -0.00059
  18        3PZ        -0.00060  -0.00049   0.00045   0.00029  -0.00117
  19 3   O  1S         -0.20924  -0.09124  -0.00533   0.00269   0.06080
  20        2S          0.18981   0.08768   0.00441  -0.00160  -0.06120
  21        2PX        -0.06112   0.01731  -0.15921   0.22856   0.00350
  22        2PY         0.09915  -0.00969  -0.11596   0.16046   0.04941
  23        2PZ        -0.00108  -0.00029  -0.00030   0.00179  -0.00041
  24        3S          0.66894   0.33096   0.02040  -0.01176  -0.25412
  25        3PX        -0.08021   0.00469  -0.13256   0.20014   0.00476
  26        3PY         0.12432   0.00498  -0.09331   0.13762   0.03956
  27        3PZ        -0.00144  -0.00029  -0.00042   0.00180  -0.00055
  28 4   C  1S         -0.07974   0.05292   0.14343  -0.01947  -0.10657
  29        2S          0.08805  -0.06326  -0.15542   0.01612   0.11800
  30        2PX        -0.05076   0.08977   0.03547   0.09630   0.03794
  31        2PY        -0.07914  -0.10170   0.00128  -0.20846   0.07092
  32        2PZ         0.00047   0.00051  -0.00107   0.00310   0.00098
  33        3S          0.05980  -0.06947  -0.35732   0.11514   0.33367
  34        3PX         0.02822   0.02535   0.04250   0.00851   0.00965
  35        3PY         0.01795  -0.01726  -0.01881  -0.06723   0.05468
  36        3PZ         0.00052   0.00035  -0.00028   0.00118   0.00128
  37 5   C  1S         -0.02892   0.14594   0.08147   0.09705   0.05492
  38        2S          0.02816  -0.15639  -0.08870  -0.09822  -0.05312
  39        2PX         0.01130   0.01486  -0.09631  -0.10586   0.20379
  40        2PY        -0.03388   0.09001   0.02858  -0.04184  -0.06649
  41        2PZ         0.00047  -0.00229  -0.00114  -0.00045  -0.00185
  42        3S          0.04251  -0.29317  -0.16350  -0.34723  -0.19763
  43        3PX        -0.00440  -0.00232   0.01736  -0.04398   0.07041
  44        3PY        -0.04738   0.04731   0.00378   0.02388  -0.02344
  45        3PZ        -0.00017  -0.00170  -0.00085  -0.00127  -0.00175
  46 6   H  1S          0.00795  -0.05340  -0.04176  -0.09561  -0.07244
  47        2S          0.01652  -0.01320  -0.00980  -0.05523  -0.04196
  48 7   H  1S          0.01171  -0.00744  -0.06654   0.04227   0.10249
  49        2S         -0.01253  -0.00118  -0.02888   0.03264   0.06105
  50 8   H  1S          0.01138  -0.01962   0.08625  -0.03650   0.13785
  51        2S         -0.02212  -0.00758   0.03147  -0.02784   0.07314
  52 9   H  1S          0.00704  -0.04971   0.03390   0.09760  -0.07733
  53        2S          0.01627  -0.01092   0.00757   0.05870  -0.04580
                          11        12        13        14        15
                           O         O         O         O         O
     Eigenvalues --    -0.54191  -0.45030  -0.43196  -0.41584  -0.39743
   1 1   C  1S         -0.02695  -0.00330  -0.04432  -0.00867  -0.01719
   2        2S          0.02339   0.00295   0.04486   0.01436   0.01951
   3        2PX        -0.16443  -0.00109  -0.14898   0.15129   0.26862
   4        2PY         0.07858  -0.00572   0.06311  -0.18952   0.14414
   5        2PZ         0.00257   0.11728  -0.00390  -0.01071  -0.00735
   6        3S          0.13726   0.01488   0.16461   0.01917   0.09931
   7        3PX        -0.10633   0.00376  -0.12062   0.11520   0.18109
   8        3PY         0.03742  -0.00250   0.04096  -0.08558   0.05140
   9        3PZ         0.00153   0.08340  -0.00280  -0.00816  -0.00569
  10 2   C  1S         -0.01861   0.00111   0.03349  -0.02810   0.00726
  11        2S          0.01845  -0.00071  -0.03736   0.03608  -0.01093
  12        2PX        -0.11542   0.01617   0.17668   0.06593  -0.03229
  13        2PY        -0.17466   0.01444   0.04131   0.26960  -0.10987
  14        2PZ        -0.00156   0.18491  -0.01028  -0.00626  -0.00493
  15        3S          0.08627  -0.00680  -0.10459   0.09412  -0.04445
  16        3PX        -0.06073   0.00980   0.12284   0.05927   0.01508
  17        3PY        -0.14526   0.00864   0.03234   0.17208  -0.13626
  18        3PZ        -0.00141   0.17432  -0.01117  -0.00764  -0.00353
  19 3   O  1S         -0.03871  -0.00020  -0.00203  -0.00237  -0.01318
  20        2S          0.03731   0.00019   0.00142   0.00246   0.01864
  21        2PX         0.11413  -0.01945  -0.18905  -0.03805   0.12371
  22        2PY        -0.13246  -0.01219  -0.16132  -0.06464  -0.20505
  23        2PZ         0.00187   0.37177  -0.02976  -0.01949   0.00365
  24        3S          0.14461   0.00031   0.00393   0.00552   0.01195
  25        3PX         0.10272  -0.01913  -0.18200  -0.03107   0.13043
  26        3PY        -0.12192  -0.01187  -0.15628  -0.06028  -0.21590
  27        3PZ         0.00180   0.37253  -0.03050  -0.02018   0.00399
  28 4   C  1S         -0.01555  -0.00190  -0.04745   0.02228   0.00115
  29        2S          0.01492   0.00132   0.05060  -0.03252  -0.00496
  30        2PX         0.17511   0.01647   0.09449   0.26499   0.11402
  31        2PY         0.03135   0.01593   0.19270  -0.00300   0.02287
  32        2PZ         0.00333   0.19977  -0.01412  -0.00599   0.00526
  33        3S          0.06739   0.01039   0.16590  -0.07078  -0.02193
  34        3PX         0.14622   0.01191   0.08262   0.19621   0.13212
  35        3PY        -0.01535   0.00869   0.11076  -0.00451  -0.04975
  36        3PZ         0.00313   0.18361  -0.01279  -0.00682   0.00506
  37 5   C  1S         -0.03853   0.00430   0.04651   0.00756  -0.01864
  38        2S          0.03561  -0.00421  -0.04775  -0.01364   0.02060
  39        2PX        -0.00681   0.00487   0.09183  -0.07327  -0.21616
  40        2PY         0.19496   0.00079  -0.12932   0.20096  -0.22246
  41        2PZ         0.00129   0.12246  -0.00897  -0.00732   0.00276
  42        3S          0.18354  -0.01725  -0.15864   0.00071   0.11636
  43        3PX         0.01501   0.00512   0.04715  -0.00021  -0.10306
  44        3PY         0.11738   0.00366  -0.09868   0.12819  -0.17069
  45        3PZ         0.00085   0.08636  -0.00697  -0.00583   0.00176
  46 6   H  1S          0.13025  -0.00344  -0.13798   0.12710  -0.14638
  47        2S          0.07061  -0.00372  -0.10548   0.11601  -0.13765
  48 7   H  1S          0.09364   0.01680   0.12762   0.14556   0.08819
  49        2S          0.04894   0.01305   0.10926   0.13818   0.08393
  50 8   H  1S          0.12208  -0.01688  -0.13159  -0.14882   0.07488
  51        2S          0.05683  -0.01272  -0.10182  -0.13505   0.06357
  52 9   H  1S          0.11133   0.00412   0.15754  -0.13150  -0.12660
  53        2S          0.06316   0.00418   0.12458  -0.12331  -0.12542
                          16        17        18        19        20
                           O         O         O         V         V
     Eigenvalues --    -0.37170  -0.28452  -0.23499   0.02267   0.08721
   1 1   C  1S          0.01600   0.00102  -0.00048   0.00115  -0.00413
   2        2S         -0.01561  -0.00149   0.00057  -0.00140   0.00469
   3        2PX         0.02306  -0.00861   0.00707  -0.00747  -0.00832
   4        2PY         0.20114   0.00253   0.00296  -0.00298   0.00848
   5        2PZ        -0.00012  -0.28935   0.18777  -0.19737  -0.32704
   6        3S         -0.12750  -0.00399   0.00205  -0.00004   0.02290
   7        3PX         0.03249  -0.00540   0.00652  -0.01093  -0.03532
   8        3PY         0.16057   0.00465   0.00354  -0.01667   0.02390
   9        3PZ         0.00113  -0.29732   0.19922  -0.34178  -0.66989
  10 2   C  1S         -0.02330   0.00026  -0.00064   0.00180  -0.00165
  11        2S          0.02508  -0.00060   0.00048  -0.00078   0.00129
  12        2PX         0.14189   0.00181   0.00045  -0.00687  -0.00792
  13        2PY        -0.15983   0.00006  -0.00746  -0.00639  -0.00518
  14        2PZ        -0.00570  -0.08391   0.32715   0.32943   0.20092
  15        3S          0.10649   0.00093   0.00387  -0.02183   0.03010
  16        3PX         0.02677  -0.00060  -0.00019  -0.01132  -0.01883
  17        3PY        -0.01488   0.00297  -0.00586  -0.01918  -0.00520
  18        3PZ        -0.00449  -0.04001   0.34878   0.50607   0.40938
  19 3   O  1S          0.07478  -0.00015   0.00169  -0.00108  -0.00121
  20        2S         -0.07433   0.00001  -0.00147   0.00100  -0.00006
  21        2PX        -0.23123  -0.00573  -0.00097  -0.00192  -0.00833
  22        2PY         0.28043   0.00359   0.00182   0.00060   0.00292
  23        2PZ        -0.00491   0.32124   0.01712  -0.28645   0.01999
  24        3S         -0.29118   0.00177  -0.00900   0.00747   0.01559
  25        3PX        -0.24520  -0.00651  -0.00059  -0.00372  -0.01455
  26        3PY         0.30247   0.00385   0.00229  -0.00021   0.00817
  27        3PZ        -0.00547   0.36153   0.02107  -0.39616   0.03045
  28 4   C  1S         -0.02343  -0.00037  -0.00153   0.00165  -0.00879
  29        2S          0.02441   0.00046   0.00142  -0.00125   0.00826
  30        2PX         0.14573   0.00125   0.00926  -0.01114   0.01907
  31        2PY        -0.16455   0.00027  -0.00580  -0.00030   0.00569
  32        2PZ         0.00787  -0.05875  -0.32284   0.31007  -0.23961
  33        3S          0.10522   0.00269   0.00744  -0.00220   0.07048
  34        3PX         0.05541   0.00032   0.00898  -0.03024   0.05763
  35        3PY         0.00388   0.00172  -0.00390   0.00382   0.01879
  36        3PZ         0.00487  -0.01342  -0.33360   0.46884  -0.47228
  37 5   C  1S          0.01909  -0.00103  -0.00119  -0.00323   0.00224
  38        2S         -0.02032   0.00136   0.00115   0.00377  -0.00280
  39        2PX        -0.19794  -0.00120  -0.00758  -0.00275  -0.00440
  40        2PY         0.06139  -0.00012  -0.00090  -0.00291   0.00658
  41        2PZ         0.00411  -0.27768  -0.20827  -0.15378   0.34553
  42        3S         -0.12328   0.00071   0.00614   0.01279   0.00115
  43        3PX        -0.16850  -0.00038  -0.00588  -0.01657  -0.00684
  44        3PY         0.01379   0.00037  -0.00080   0.00809  -0.00105
  45        3PZ         0.00238  -0.28733  -0.22108  -0.26624   0.70916
  46 6   H  1S          0.01807  -0.00104  -0.00166  -0.00206  -0.00167
  47        2S          0.04306  -0.00056  -0.00209  -0.01203  -0.01656
  48 7   H  1S          0.12161   0.00068   0.00074   0.00590  -0.01255
  49        2S          0.12618   0.00105   0.00156   0.02268  -0.09312
  50 8   H  1S          0.07940  -0.00056   0.00186  -0.00174  -0.00406
  51        2S          0.08509  -0.00038   0.00288  -0.00666  -0.02943
  52 9   H  1S          0.01835   0.00258  -0.00254  -0.00150  -0.00803
  53        2S          0.03351   0.00409  -0.00399  -0.00315  -0.05788
                          21        22        23        24        25
                           V         V         V         V         V
     Eigenvalues --     0.11459   0.13580   0.16707   0.18443   0.21504
   1 1   C  1S          0.06084  -0.03999  -0.01967  -0.08469  -0.08330
   2        2S         -0.04061   0.03418   0.03300   0.07311   0.03292
   3        2PX         0.10663  -0.13973   0.14181  -0.12405   0.01646
   4        2PY        -0.08137   0.01500  -0.01353   0.04195   0.16093
   5        2PZ        -0.02328   0.00517  -0.00202   0.00552  -0.00659
   6        3S         -0.64460   0.35062  -0.10919   0.70660   1.28158
   7        3PX         0.33629  -0.54596   0.14982  -0.78842   0.28685
   8        3PY        -0.26048   0.02828   0.00713   0.20752   0.81301
   9        3PZ        -0.05593   0.01147  -0.00526   0.02556  -0.02379
  10 2   C  1S          0.02887   0.08447   0.09859   0.04987  -0.06484
  11        2S         -0.01712  -0.06737  -0.06559  -0.05700   0.04692
  12        2PX         0.05572  -0.19076   0.09024  -0.02733   0.20738
  13        2PY         0.06096   0.02156   0.24949  -0.04726  -0.02527
  14        2PZ         0.01551  -0.00409   0.00560  -0.00261   0.00686
  15        3S         -0.44640  -0.62570  -1.18196  -0.24631   0.71446
  16        3PX         0.14124  -0.34651   0.43147   0.14558   0.51311
  17        3PY         0.09882   0.23281   0.87179   0.02918   0.03178
  18        3PZ         0.03505  -0.00626   0.01952  -0.00512   0.01878
  19 3   O  1S          0.01366  -0.08727  -0.04411   0.01176   0.00552
  20        2S         -0.00653   0.06405   0.03106  -0.00893  -0.00165
  21        2PX         0.04666  -0.15185  -0.04375  -0.08032   0.25735
  22        2PY        -0.05869   0.09616   0.03853  -0.08818   0.18162
  23        2PZ         0.00405   0.00416  -0.00502  -0.00044  -0.00258
  24        3S         -0.13309   0.70615   0.37220  -0.09311  -0.06148
  25        3PX         0.08731  -0.24584  -0.05383  -0.10013   0.52084
  26        3PY        -0.11938   0.15331   0.08983  -0.12303   0.34576
  27        3PZ         0.00685   0.00674  -0.00950  -0.00163  -0.00294
  28 4   C  1S          0.07021   0.08485  -0.00434  -0.05941   0.09525
  29        2S         -0.04910  -0.05659   0.00033   0.06229  -0.06227
  30        2PX        -0.22058  -0.15010   0.18203  -0.05214  -0.02707
  31        2PY        -0.08146   0.07537   0.12775  -0.05617   0.13629
  32        2PZ        -0.02545  -0.01497   0.00685   0.00530  -0.00242
  33        3S         -0.76297  -0.75252   0.14306   0.27798  -1.19720
  34        3PX        -0.53373  -0.55044   0.51693   0.15672   0.00538
  35        3PY        -0.21635   0.19688   0.40164   0.02804   0.21472
  36        3PZ        -0.05684  -0.03613   0.01792   0.02058  -0.00443
  37 5   C  1S          0.01829  -0.05083   0.02952   0.10434   0.05145
  38        2S          0.00110   0.04324  -0.02829  -0.08676  -0.01753
  39        2PX         0.02825  -0.01174   0.00214  -0.01170   0.21040
  40        2PY        -0.15935   0.02705   0.05023  -0.19193   0.03130
  41        2PZ         0.02442   0.00643  -0.00524  -0.00944  -0.00015
  42        3S         -0.38005   0.44459  -0.17866  -0.98471  -0.76039
  43        3PX         0.01605  -0.09159   0.04555  -0.10714   1.06809
  44        3PY        -0.35576   0.18958   0.02932  -1.06736   0.18051
  45        3PZ         0.05651   0.02138  -0.01118  -0.02512  -0.00637
  46 6   H  1S          0.08119  -0.04273  -0.01559   0.07608  -0.02887
  47        2S          0.74860  -0.49094  -0.00406   1.67903   0.03772
  48 7   H  1S          0.10139   0.09614  -0.03357  -0.01519  -0.03555
  49        2S          1.07592   1.00423  -0.66186  -0.26431   0.46031
  50 8   H  1S          0.03717   0.03691   0.09573   0.00727   0.03914
  51        2S          0.46371   0.34062   1.76202   0.21225   0.02302
  52 9   H  1S          0.08759  -0.08463   0.00119  -0.05566   0.04137
  53        2S          0.89255  -0.86498   0.25663  -1.19984  -0.50223
                          26        27        28        29        30
                           V         V         V         V         V
     Eigenvalues --     0.23555   0.35931   0.43281   0.46603   0.68211
   1 1   C  1S         -0.04394   0.07752  -0.02053   0.11974   0.02752
   2        2S          0.00936  -0.02841   0.02622  -0.01361  -0.09676
   3        2PX        -0.17429  -0.14656   0.12771  -0.16049   0.04919
   4        2PY        -0.09562   0.07319   0.22152   0.14784   0.46347
   5        2PZ        -0.00313   0.00345  -0.00294   0.00372  -0.00268
   6        3S          0.91786  -1.54868   0.11437  -3.40959  -0.32213
   7        3PX        -0.56868  -0.66103   0.71673  -2.36815  -0.22896
   8        3PY        -0.57196   1.42214   1.73108   0.89648  -0.15540
   9        3PZ        -0.01348   0.01667  -0.01020   0.04945   0.00268
  10 2   C  1S          0.03612  -0.08212  -0.00571  -0.09225  -0.04608
  11        2S         -0.02181   0.00596   0.00254   0.02617  -0.02853
  12        2PX         0.25479  -0.00111  -0.19578   0.29022   0.30163
  13        2PY         0.03249   0.26961   0.07519   0.00403  -0.12213
  14        2PZ         0.00347   0.00481   0.00230   0.00517  -0.01029
  15        3S         -0.87896   1.70750   0.77236   2.07052   0.26666
  16        3PX         0.98266   0.02226  -1.12380   0.01319  -0.35745
  17        3PY        -0.10664   1.52194   0.83309   2.03780   0.63339
  18        3PZ         0.00592   0.02282   0.01435   0.02246   0.01496
  19 3   O  1S          0.09803   0.04277   0.00530  -0.00415   0.02227
  20        2S         -0.04842  -0.02026   0.00101  -0.00006  -0.08374
  21        2PX         0.01438   0.08653  -0.23316   0.11184   0.11325
  22        2PY        -0.10279  -0.14283  -0.15636   0.07351  -0.21798
  23        2PZ         0.00276  -0.00015  -0.00498   0.00023  -0.00092
  24        3S         -1.02363  -0.53354  -0.09755   0.06322   0.24784
  25        3PX         0.08271   0.24266  -0.55878   0.11013   0.05839
  26        3PY        -0.29247  -0.39657  -0.38576   0.12013  -0.10199
  27        3PZ         0.00594   0.00069  -0.00592  -0.00384  -0.00285
  28 4   C  1S         -0.01437  -0.08000   0.01331   0.09505  -0.04464
  29        2S          0.01624   0.00735  -0.00039  -0.02362  -0.04639
  30        2PX        -0.05255  -0.22249   0.03242   0.14224  -0.01266
  31        2PY        -0.24117   0.09925  -0.21391   0.23389  -0.49093
  32        2PZ        -0.00254  -0.00348   0.00495   0.00717  -0.00512
  33        3S         -0.13928   1.71889  -0.99888  -2.30855   0.05412
[...]
               1          2          3          4          5          6
     1  C    5.252958   0.464077  -0.072585  -0.146696   0.426130  -0.025514
     2  C    0.464077   5.127462   0.289379  -0.168707  -0.147846   0.005408
     3  O   -0.072585   0.289379   8.096678   0.289740  -0.078223   0.001936
     4  C   -0.146696  -0.168707   0.289740   5.091960   0.464706  -0.027651
     5  C    0.426130  -0.147846  -0.078223   0.464706   5.274651   0.381018
     6  H   -0.025514   0.005408   0.001936  -0.027651   0.381018   0.475832
     7  H    0.002820   0.004607  -0.028953   0.374699  -0.033241  -0.000569
     8  H   -0.046011   0.385928  -0.023846   0.004207   0.004033  -0.000042
     9  H    0.378970  -0.024053   0.001513   0.005052  -0.026864  -0.001308
               7          8          9
     1  C    0.002820  -0.046011   0.378970
     2  C    0.004607   0.385928  -0.024053
     3  O   -0.028953  -0.023846   0.001513
     4  C    0.374699   0.004207   0.005052
     5  C   -0.033241   0.004033  -0.026864
     6  H   -0.000569  -0.000042  -0.001308
     7  H    0.480413  -0.000057  -0.000027
     8  H   -0.000057   0.462187  -0.000724
     9  H   -0.000027  -0.000724   0.475249
 Mulliken charges:
               1
     1  C   -0.234148
     2  C    0.063745
     3  O   -0.475640
     4  C    0.112690
     5  C   -0.264364
     6  H    0.190891
     7  H    0.200308
     8  H    0.214326
     9  H    0.192192
 Sum of Mulliken charges =   0.00000
 Mulliken charges with hydrogens summed into heavy atoms:
               1
     1  C   -0.041956
     2  C    0.278071
     3  O   -0.475640
     4  C    0.312998
     5  C   -0.073473
 Electronic spatial extent (au):  <R**2>=            290.0689
 Charge=              0.0000 electrons
 Dipole moment (field-independent basis, Debye):
    X=             -0.5611    Y=              0.7122    Z=              0.0331  Tot=              0.9073
 Quadrupole moment (field-independent basis, Debye-Ang):
   XX=            -25.0014   YY=            -27.0029   ZZ=            -31.8050
   XY=              1.8186   XZ=              0.0714   YZ=              0.1116
 Traceless Quadrupole moment (field-independent basis, Debye-Ang):
   XX=              2.9350   YY=              0.9336   ZZ=             -3.8686
   XY=              1.8186   XZ=              0.0714   YZ=              0.1116
 Octapole moment (field-independent basis, Debye-Ang**2):
  XXX=              3.8733  YYY=             -1.5279  ZZZ=              0.0717  XYY=             -3.5903
  XXY=              0.5336  XXZ=              0.3312  XZZ=              1.8786  YZZ=             -2.8016
  YYZ=             -0.0343  XYZ=             -0.0655
 Hexadecapole moment (field-independent basis, Debye-Ang**3):
 XXXX=           -148.3165 YYYY=           -148.0007 ZZZZ=            -30.7993 XXXY=             -2.4183
 XXXZ=              0.3478 YYYX=              4.2276 YYYZ=              0.3052 ZZZX=              0.0931
 ZZZY=              0.0854 XXYY=            -54.4247 XXZZ=            -38.3229 YYZZ=            -35.5404
 XXYZ=              0.3012 YYXZ=              0.1043 ZZXY=             -1.7914
 N-N= 1.611811495713D+02 E-N=-8.549007946963D+02  KE= 2.268883475037D+02
 Orbital energies and kinetic energies (alpha):
                                 1                 2
   1         O               -19.116827         28.829520
   2         O               -10.180353         15.801685
   3         O               -10.173564         15.799989
   4         O               -10.128265         15.805284
   5         O               -10.121771         15.804757
   6         O                -1.129405          2.501219
   7         O                -0.819166          1.827253
   8         O                -0.743938          1.809108
   9         O                -0.600685          1.717007
  10         O                -0.566888          1.524136
  11         O                -0.541911          1.164801
  12         O                -0.450297          1.564830
  13         O                -0.431957          1.485049
  14         O                -0.415842          1.327525
  15         O                -0.397434          1.522011
  16         O                -0.371703          2.146604
  17         O                -0.284520          1.581479
  18         O                -0.234993          1.231917
  19         V                 0.022666          1.826010
  20         V                 0.087208          1.499172
  21         V                 0.114587          1.127028
  22         V                 0.135801          1.776117
  23         V                 0.167071          1.291290
  24         V                 0.184431          1.375321
  25         V                 0.215043          2.166733
  26         V                 0.235546          1.748207
  27         V                 0.359309          1.932990
  28         V                 0.432814          1.974352
  29         V                 0.466027          2.361956
  30         V                 0.682108          2.567227
  31         V                 0.698364          2.494872
  32         V                 0.708716          2.761202
  33         V                 0.756972          2.608140
  34         V                 0.765864          2.486963
  35         V                 0.789816          2.596703
  36         V                 0.810887          2.704149
  37         V                 0.820508          2.515810
  38         V                 0.838478          2.611877
  39         V                 0.944895          2.909096
  40         V                 0.973132          3.019714
  41         V                 0.984149          3.366227
  42         V                 1.015427          3.138866
  43         V                 1.193922          2.879807
  44         V                 1.199532          2.748665
  45         V                 1.348696          2.605923
  46         V                 1.369401          2.816733
  47         V                 1.499926          4.949216
  48         V                 1.566867          3.321217
  49         V                 1.628340          3.826029
  50         V                 1.730682          4.310540
  51         V                 1.943046          4.258043
  52         V                 2.125517          4.056482
  53         V                 3.191188          6.839848
 Total kinetic energy from orbitals= 2.268883475037D+02
 No NMR shielding tensors so no spin-rotation constants.
 Leave Link  601 at Tue Dec 15 16:25:39 2015, MaxMem=    33554432 cpu:         0.1
 (Enter /home/Applications/g09/g09/l701.exe)
 Compute integral first derivatives.
 ... and contract with generalized density number  6.
 Leave Link  701 at Tue Dec 15 16:25:39 2015, MaxMem=    33554432 cpu:         0.1
 (Enter /home/Applications/g09/g09/l702.exe)
 L702 exits ... SP integral derivatives will be done elsewhere.
 Leave Link  702 at Tue Dec 15 16:25:39 2015, MaxMem=    33554432 cpu:         0.0
 (Enter /home/Applications/g09/g09/l703.exe)
 Compute integral first derivatives, UseDBF=F ICtDFT=           0.
 Integral derivatives from FoFJK, PRISM(SPDF).
 Calling FoFJK, ICntrl=  10005127 FMM=F ISym2X=0 I1Cent= 0 IOpClX= 0 NMat=1 NMatS=1 NMatT=0.
 FoFJK:  IHMeth= 1 ICntrl=10005127 DoSepK=F KAlg= 0 I1Cent=   0 FoldK=F
 IRaf=         0 NMat=   1 IRICut=       1 DoRegI=T DoRafI=F ISym2E= 0.
 FoFCou: FMM=F IPFlag=           0 FMFlag=      100000 FMFlg1=         800
         NFxFlg=           0 DoJE=F BraDBF=F KetDBF=F FulRan=T
         wScrn=  0.000000 ICntrl=10005127 IOpCl=  0 I1Cent=           0 NGrid=           0
         NMat0=    1 NMatS0=      1 NMatT0=    0 NMatD0=    1 NMtDS0=    0 NMtDT0=    0
 Symmetry not used in FoFCou.
 Leave Link  703 at Tue Dec 15 16:25:41 2015, MaxMem=    33554432 cpu:         1.6
 (Enter /home/Applications/g09/g09/l716.exe)
 Dipole        = 2.20006502D-01 6.16667981D-01 2.12298143D-02
 ***** Axes restored to original set *****
 -------------------------------------------------------------------
 Center     Atomic                   Forces (Hartrees/Bohr)
 Number     Number              X              Y              Z
 -------------------------------------------------------------------
      1        6           0.121788596    0.011387157    0.000590697
      2        6          -0.033875437   -0.102682094    0.001123729
      3        8          -0.083738231    0.020047768   -0.003130809
      4        6          -0.109388431    0.127837155   -0.001287598
      5        6           0.106325004   -0.029289275    0.000434324
      6        1          -0.003263381   -0.001099190    0.000686966
      7        1           0.031944854   -0.042564863    0.001683435
      8        1          -0.007457109    0.003888074    0.000462183
      9        1          -0.022335865    0.012475267   -0.000562926
 -------------------------------------------------------------------
 Cartesian Forces:  Max     0.127837155 RMS     0.053791356
 Z-matrix is all fixed cartesians, so copy forces.
 Force constants in Cartesian coordinates: 
                1             2             3             4             5 
      1  0.938392D+00
      2 -0.113597D-01  0.783132D+00
      3 -0.161626D-03  0.107442D-01  0.212431D+00
      4 -0.547511D+00 -0.103710D+00 -0.112708D-02  0.943755D+00
      5 -0.810937D-01 -0.213961D+00 -0.696153D-03  0.301198D-01  0.865148D+00
      6 -0.599452D-03 -0.565757D-03 -0.104670D+00  0.345220D-02 -0.429800D-02
      7 -0.757331D-02  0.289633D-01 -0.279793D-03 -0.271809D+00  0.146212D+00
      8 -0.575770D-02  0.220240D-01 -0.136210D-03  0.191121D+00 -0.336633D+00
      9  0.671310D-04  0.249025D-03  0.522398D-02 -0.317429D-02  0.255620D-02
     10  0.106084D-01 -0.470065D-04  0.100393D-03  0.226106D-01  0.171980D-01
     11  0.355980D-01 -0.164538D-03  0.329939D-03 -0.191205D-01 -0.145471D-01
     12  0.108856D-02 -0.108934D-03  0.266472D-03  0.341159D-03  0.350568D-03
     13 -0.167336D+00  0.112641D-01 -0.125539D-03  0.928661D-02 -0.355227D-01
     14 -0.134415D-01 -0.421313D+00 -0.895678D-02 -0.420572D-04  0.159294D-03
     15 -0.591930D-03 -0.797556D-02 -0.843668D-01  0.104262D-03 -0.787616D-04
     16  0.173779D-01 -0.745087D-04 -0.102774D-03  0.000000D+00 -0.128548D-05
     17 -0.233872D-01  0.102910D-03  0.238100D-04  0.000000D+00  0.238645D-05
     18 -0.837357D-03 -0.411931D-03  0.180546D-01  0.141155D-04 -0.103417D-03
     19  0.160889D-05  0.142804D-05 -0.623412D-04  0.463270D-05  0.110349D-05
     20 -0.702950D-05 -0.623931D-05  0.272378D-03 -0.148515D-05  0.000000D+00
     21 -0.195475D-03 -0.173501D-03  0.757423D-02 -0.984453D-04 -0.234493D-04
     22  0.720637D-02 -0.275703D-01  0.182083D-03 -0.151902D+00 -0.938769D-01
     23 -0.312475D-02  0.119523D-01  0.145795D-03 -0.921849D-01 -0.323818D+00
     24 -0.457880D-04 -0.133861D-03  0.280750D-01  0.585169D-03  0.221328D-02
     25 -0.251167D+00  0.102532D+00  0.157668D-02 -0.443496D-02  0.169633D-01
     26  0.102574D+00 -0.181767D+00 -0.172697D-02 -0.618192D-02  0.236500D-01
     27  0.127593D-02 -0.162366D-02 -0.825886D-01 -0.970862D-04  0.797405D-04
                6             7             8             9            10 
      6  0.190351D+00
      7 -0.343302D-02  0.564149D+00
      8  0.353469D-02  0.321394D-01  0.664671D+00
      9 -0.460601D-01  0.114779D-01  0.301362D-02  0.557210D-01
     10  0.809529D-03 -0.317007D+00 -0.225393D+00 -0.870153D-02  0.996607D+00
     11 -0.575835D-03 -0.179440D+00 -0.358384D+00 -0.598888D-02  0.431724D-02
     12 -0.191493D-02 -0.758203D-02 -0.639836D-02 -0.483654D-01  0.204711D-01
     13 -0.945759D-03 -0.850638D-02  0.720178D-02 -0.483778D-03 -0.572164D+00
     14 -0.548616D-04 -0.285367D-01  0.241407D-01 -0.658046D-03  0.127788D+00
     15 -0.149884D-03 -0.718566D-03  0.275335D-03  0.815581D-02 -0.758586D-02
     16  0.558059D-04  0.251270D-05  0.000000D+00 -0.119468D-03 -0.533763D-02
     17 -0.103602D-03 -0.231121D-05  0.000000D+00  0.109888D-03  0.718793D-02
     18  0.448959D-02 -0.168850D-03 -0.555003D-04  0.802810D-02 -0.459130D-03
     19 -0.203285D-03  0.188488D-01 -0.159581D-01  0.103916D-02 -0.135319D+00
     20  0.651692D-04  0.101542D-01 -0.860125D-02  0.733410D-03  0.689470D-01
     21  0.431982D-02  0.508589D-03 -0.536721D-03  0.432628D-02 -0.442711D-02
     22  0.608232D-03  0.218949D-01  0.166458D-01 -0.112509D-03  0.000000D+00
     23  0.207112D-02 -0.949089D-02 -0.721498D-02  0.937482D-04  0.000000D+00
     24 -0.728633D-01  0.232452D-03  0.243581D-03  0.561768D-02 -0.946773D-04
     25  0.255755D-03  0.000000D+00  0.000000D+00  0.732781D-05  0.000000D+00
     26 -0.729258D-04  0.000000D+00  0.000000D+00 -0.108964D-03  0.259157D-05
     27  0.264980D-01 -0.367255D-04  0.595640D-04  0.735263D-02 -0.112680D-03
               11            12            13            14            15 
     11  0.803331D+00
     12 -0.159027D-02  0.206057D+00
     13  0.101806D+00 -0.101636D-01  0.985497D+00
     14 -0.230864D+00  0.233899D-02  0.722065D-02  0.816116D+00
     15  0.928357D-03 -0.117366D+00  0.106474D-01  0.740612D-02  0.225535D+00
     16 -0.178847D-01 -0.131369D-03 -0.270556D+00 -0.117132D+00 -0.565306D-03
     17  0.240731D-01 -0.160893D-05 -0.118882D+00 -0.201195D+00 -0.959925D-03
     18  0.249286D-03  0.281293D-01  0.556463D-03 -0.343414D-03 -0.875968D-01
     19  0.747235D-01 -0.398893D-02  0.725462D-02  0.242161D-01 -0.126722D-02
     20 -0.223446D+00  0.547091D-02  0.388620D-02  0.130529D-01  0.591184D-03
     21  0.676997D-02 -0.753273D-01 -0.349588D-03  0.830780D-03  0.315078D-01
     22  0.000000D+00 -0.135499D-04  0.000000D+00  0.000000D+00 -0.387993D-04
     23  0.000000D+00  0.391309D-04  0.000000D+00 -0.166390D-05  0.722342D-04
     24 -0.225518D-04  0.415448D-02  0.217641D-04 -0.159454D-03  0.692229D-02
     25  0.000000D+00 -0.212630D-04  0.165249D-01 -0.734707D-04  0.160587D-04
     26  0.230025D-05 -0.100418D-03  0.230263D-01 -0.958996D-04 -0.258979D-03
     27 -0.100014D-03  0.436611D-02  0.842717D-03 -0.403336D-03  0.173584D-01
               16            17            18            19            20 
     16  0.258515D+00
     17  0.135084D+00  0.177027D+00
     18  0.765209D-03  0.946745D-03  0.472563D-01
     19 -0.146260D-05  0.134532D-05  0.982850D-04  0.109211D+00
     20  0.639031D-05 -0.587789D-05 -0.429422D-03 -0.829853D-01  0.219007D+00
     21  0.177700D-03 -0.163451D-03 -0.119413D-01  0.438433D-02 -0.670363D-02
     22  0.000000D+00  0.000000D+00  0.000000D+00  0.000000D+00  0.000000D+00
     23  0.000000D+00  0.000000D+00  0.000000D+00  0.000000D+00  0.000000D+00
     24  0.000000D+00  0.000000D+00  0.000000D+00  0.000000D+00  0.000000D+00
     25  0.000000D+00  0.000000D+00  0.312647D-04  0.000000D+00  0.000000D+00
     26  0.183533D-05 -0.340722D-05  0.147652D-03  0.000000D+00  0.000000D+00
     27 -0.797989D-04  0.148144D-03 -0.641983D-02  0.000000D+00  0.000000D+00
               21            22            23            24            25 
     21  0.395404D-01
     22  0.000000D+00  0.122801D+00
     23  0.000000D+00  0.104801D+00  0.319081D+00
     24  0.000000D+00 -0.687829D-03 -0.230591D-02  0.392219D-01
     25  0.000000D+00  0.000000D+00  0.000000D+00 -0.110906D-04  0.239076D+00
     26  0.000000D+00  0.000000D+00  0.172090D-05  0.164916D-03 -0.119422D+00
     27  0.000000D+00  0.623728D-04 -0.116122D-03 -0.111281D-01 -0.185473D-02
               26            27 
     26  0.158213D+00
     27  0.195569D-02  0.445613D-01
 Leave Link  716 at Tue Dec 15 16:25:41 2015, MaxMem=    33554432 cpu:         0.0
 (Enter /home/Applications/g09/g09/l103.exe)

 GradGradGradGradGradGradGradGradGradGradGradGradGradGradGradGradGradGrad
 Berny optimization.
 Search for a local minimum.
 Step number   1 out of a maximum of    2
 All quantities printed in internal units (Hartrees-Bohrs-Radians)
 Second derivative matrix not updated -- first step.
 ITU=  0
     Eigenvalues ---    0.02059   0.02758   0.06699   0.06921   0.07627
     Eigenvalues ---    0.08559   0.12947   0.13206   0.15069   0.21977
     Eigenvalues ---    0.26175   0.31510   0.37812   0.41382   0.60375
     Eigenvalues ---    0.78284   1.05676   1.33777   1.35890   1.60392
     Eigenvalues ---    1.71900
 Quadratic step=3.477D-01 exceeds max=3.000D-01 adjusted using Lamda=-4.514D-02.
 Angle between NR and scaled steps=   9.51 degrees.
 Angle between quadratic step and forces=  32.27 degrees.
 Linear search not attempted -- first point.
 TrRot= -0.010241  0.003030 -0.001504 -0.272480 -0.000688  0.274781
 Variable       Old X    -DE/DX   Delta X   Delta X   Delta X     New X
                                 (Linear)    (Quad)   (Total)
    X1        1.76049   0.12179   0.00000   0.12630   0.11931   1.87980
    Y1       -1.40596   0.01139   0.00000  -0.01080  -0.00342  -1.40938
    Z1        0.01551   0.00059   0.00000   0.00001   0.00002   0.01552
    X2       -0.68995  -0.03388   0.00000  -0.01470  -0.02001  -0.70995
    Y2       -2.04651  -0.10268   0.00000  -0.09975  -0.09834  -2.14484
    Z2        0.00846   0.00112   0.00000   0.00491   0.00333   0.01179
    X3       -2.27819  -0.08374   0.00000  -0.13096  -0.14132  -2.41952
    Y3        0.04242   0.02005   0.00000   0.02023   0.01771   0.06013
    Z3       -0.01640  -0.00313   0.00000  -0.01121  -0.01433  -0.03072
    X4       -0.62622  -0.10939   0.00000  -0.08545  -0.10055  -0.72677
    Y4        1.99678   0.12784   0.00000   0.10497   0.10636   2.10314
    Z4        0.03186  -0.00129   0.00000   0.00296   0.00059   0.03245
    X5        1.77238   0.10633   0.00000   0.07578   0.06252   1.83490
    Y5        1.28059  -0.02929   0.00000   0.00482   0.01212   1.29271
    Z5        0.07736   0.00043   0.00000  -0.00133  -0.00185   0.07551
    X6        3.41202  -0.00326   0.00000   0.05260   0.03652   3.44853
    Y6        2.49865  -0.00110   0.00000   0.01108   0.02209   2.52074
    Z6        0.08508   0.00069   0.00000   0.00520   0.00552   0.09060
    X7       -1.67917   0.03194   0.00000   0.08925   0.06998  -1.60919
    Y7        3.95527  -0.04256   0.00000  -0.01731  -0.01795   3.93732
    Z7       -0.04724   0.00168   0.00000   0.00754   0.00424  -0.04300
    X8       -1.49893  -0.00746   0.00000  -0.06580  -0.06691  -1.56584
    Y8       -3.91241   0.00389   0.00000  -0.06424  -0.06480  -3.97720
    Z8        0.02339   0.00046   0.00000   0.01052   0.00872   0.03211
    X9        3.46674  -0.02234   0.00000   0.04469   0.04047   3.50721
    Y9       -2.62973   0.01248   0.00000   0.01511   0.02623  -2.60350
    Z9       -0.00433  -0.00056   0.00000  -0.00756  -0.00625  -0.01057
         Item               Value     Threshold  Converged?
 Maximum Force            0.127837     0.000450     NO 
 RMS     Force            0.053791     0.000300     NO 
 Maximum Displacement     0.141324     0.001800     NO 
 RMS     Displacement     0.057254     0.001200     NO 
 Predicted change in Energy=-3.751018D-02
 GradGradGradGradGradGradGradGradGradGradGradGradGradGradGradGradGradGrad

 Leave Link  103 at Tue Dec 15 16:25:41 2015, MaxMem=    33554432 cpu:         0.0
 (Enter /home/Applications/g09/g09/l9999.exe)
 1\1\GINC-DUSTIN-DESKTOP\Force\RB3LYP-FC\3-21G\C4H4O1\DUSTIN\15-Dec-201
 5\0\\#P B3LYP/3-21G CIS(Singlets,NStates=15) pop(full) force\\FuranDFT
 \\0,1\C,0.931612,-0.744002,0.008207\C,-0.365104,-1.082964,0.004476\O,-
 1.205568,0.022446,-0.008677\C,-0.33138,1.056649,0.016859\C,0.937901,0.
 677659,0.040935\H,1.805562,1.32223,0.045024\H,-0.888577,2.093041,-0.02
 4997\H,-0.793197,-2.070357,0.01238\H,1.834522,-1.391592,-0.00229\\Vers
 ion=ES64L-G09RevD.01\State=1-A\HF=-228.7382771\RMSD=3.658e-09\RMSF=5.3
 79e-02\Dipole=0.3896578,0.5264385,-0.0127414\PG=C01 [X(C4H4O1)]\\@


 IT MATTERS NOT HOW DEEP YOU PLOW,
 BUT HOW LONG YOU STAY IN THE FURROW.
 Job cpu time:       0 days  0 hours  0 minutes 51.1 seconds.
 File lengths (MBytes):  RWF=     14 Int=      0 D2E=      0 Chk=      3 Scr=      1
 Normal termination of Gaussian 09 at Tue Dec 15 16:25:41 2015.
