 Entering Gaussian System, Link 0=g09
 Input=FuranAM1_28P7.com
 Output=FuranAM1_28P7.log
 Initial command:
 /home/Applications/g09/g09/l1.exe "/home/Applications/g09/scratch/Gau-10349.inp" -scrdir="/home/Applications/g09/scratch/"
 Entering Link 1 = /home/Applications/g09/g09/l1.exe PID=     10351.
  
 Copyright (c) 1988,1990,1992,1993,1995,1998,2003,2009,2013,
            Gaussian, Inc.  All Rights Reserved.
  
 This is part of the Gaussian(R) 09 program.  It is based on
 the Gaussian(R) 03 system (copyright 2003, Gaussian, Inc.),
 the Gaussian(R) 98 system (copyright 1998, Gaussian, Inc.),
 the Gaussian(R) 94 system (copyright 1995, Gaussian, Inc.),
 the Gaussian 92(TM) system (copyright 1992, Gaussian, Inc.),
 the Gaussian 90(TM) system (copyright 1990, Gaussian, Inc.),
 the Gaussian 88(TM) system (copyright 1988, Gaussian, Inc.),
 the Gaussian 86(TM) system (copyright 1986, Carnegie Mellon
 University), and the Gaussian 82(TM) system (copyright 1983,
 Carnegie Mellon University). Gaussian is a federally registered
 trademark of Gaussian, Inc.
  
 This software contains proprietary and confidential information,
 including trade secrets, belonging to Gaussian, Inc.
  
 This software is provided under written license and may be
 used, copied, transmitted, or stored only in accord with that
 written license.
  
 The following legend is applicable only to US Government
 contracts under FAR:
  
                    RESTRICTED RIGHTS LEGEND
  
 Use, reproduction and disclosure by the US Government is
 subject to restrictions as set forth in subparagraphs (a)
 and (c) of the Commercial Computer Software - Restricted
 Rights clause in FAR 52.227-19.
  
 Gaussian, Inc.
 340 Quinnipiac St., Bldg. 40, Wallingford CT 06492
  
  
 ---------------------------------------------------------------
 Warning -- This program may not be used in any manner that
 competes with the business of Gaussian, Inc. or will provide
 assistance to any competitor of Gaussian, Inc.  The licensee
 of this program is prohibited from giving any competitor of
 Gaussian, Inc. access to this program.  By using this program,
 the user acknowledges that Gaussian, Inc. is engaged in the
 business of creating and licensing software in the field of
 computational chemistry and represents and warrants to the
 licensee that it is not a competitor of Gaussian, Inc. and that
 it will not use this program in any manner prohibited above.
 ---------------------------------------------------------------
  

 Cite this work as:
 Gaussian 09, Revision D.01,
 M. J. Frisch, G. W. Trucks, H. B. Schlegel, G. E. Scuseria, 
 M. A. Robb, J. R. Cheeseman, G. Scalmani, V. Barone, B. Mennucci, 
 G. A. Petersson, H. Nakatsuji, M. Caricato, X. Li, H. P. Hratchian, 
 A. F. Izmaylov, J. Bloino, G. Zheng, J. L. Sonnenberg, M. Hada, 
 M. Ehara, K. Toyota, R. Fukuda, J. Hasegawa, M. Ishida, T. Nakajima, 
 Y. Honda, O. Kitao, H. Nakai, T. Vreven, J. A. Montgomery, Jr., 
 J. E. Peralta, F. Ogliaro, M. Bearpark, J. J. Heyd, E. Brothers, 
 K. N. Kudin, V. N. Staroverov, T. Keith, R. Kobayashi, J. Normand, 
 K. Raghavachari, A. Rendell, J. C. Burant, S. S. Iyengar, J. Tomasi, 
 M. Cossi, N. Rega, J. M. Millam, M. Klene, J. E. Knox, J. B. Cross, 
 V. Bakken, C. Adamo, J. Jaramillo, R. Gomperts, R. E. Stratmann, 
 O. Yazyev, A. J. Austin, R. Cammi, C. Pomelli, J. W. Ochterski, 
 R. L. Martin, K. Morokuma, V. G. Zakrzewski, G. A. Voth, 
 P. Salvador, J. J. Dannenberg, S. Dapprich, A. D. Daniels, 
 O. Farkas, J. B. Foresman, J. V. Ortiz, J. Cioslowski, 
 and D. J. Fox, Gaussian, Inc., Wallingford CT, 2013.
 
 ******************************************
 Gaussian 09:  ES64L-G09RevD.01 24-Apr-2013
                15-Dec-2015 
 ******************************************
 ------------------------------------------------------------
 #P AM1(Input,print) CIS(Singlets,NStates=15) pop(full) force
 ------------------------------------------------------------
 1/10=7,30=1,38=1/1,3;
 2/12=2,17=6,18=5,40=1/2;
 3/5=2,16=1,25=1,41=700000,71=1,135=100,136=1/1,2,8,3;
 4/35=1/1;
 5/5=2,35=1,38=5/2;
 8/6=1,10=1,108=15/1;
 9/15=2,41=15,42=1,48=1,49=10/14;
 10/5=4/2;
 6/7=3,18=1/1;
 7/12=6,13=5,29=1/1,2,3,16;
 1/10=7,30=1/3;
 99//99;
 Leave Link    1 at Tue Dec 15 17:08:36 2015, MaxMem=           0 cpu:         0.0
 (Enter /home/Applications/g09/g09/l101.exe)
 -----------------
 AM1-Reparam Input
 -----------------
 Symbolic Z-matrix:
 Charge =  0 Multiplicity = 1
 6                     0.94293  -0.71765  -0.01879 
 6                    -0.39417  -1.10252   0.04663 
 8                    -1.20692  -0.0141    0.00718 
 6                    -0.32051   1.05306  -0.03528 
 6                     0.96794   0.72055   0.03368 
 1                     1.79042   1.4028    0.02851 
 1                    -0.80044   2.03977  -0.01417 
 1                    -0.80755  -2.0966   -0.00043 
 1                     1.83817  -1.35987  -0.01311 
 
 NAtoms=      9 NQM=        9 NQMF=       0 NMMI=      0 NMMIF=      0
                NMic=       0 NMicF=      0.
                    Isotopes and Nuclear Properties:
 (Nuclear quadrupole moments (NQMom) in fm**2, nuclear magnetic moments (NMagM)
  in nuclear magnetons)

  Atom         1           2           3           4           5           6           7           8           9
 IAtWgt=          12          12          16          12          12           1           1           1           1
 AtmWgt=  12.0000000  12.0000000  15.9949146  12.0000000  12.0000000   1.0078250   1.0078250   1.0078250   1.0078250
 NucSpn=           0           0           0           0           0           1           1           1           1
 AtZEff=   0.0000000   0.0000000   0.0000000   0.0000000   0.0000000   0.0000000   0.0000000   0.0000000   0.0000000
 NQMom=    0.0000000   0.0000000   0.0000000   0.0000000   0.0000000   0.0000000   0.0000000   0.0000000   0.0000000
 NMagM=    0.0000000   0.0000000   0.0000000   0.0000000   0.0000000   2.7928460   2.7928460   2.7928460   2.7928460
 AtZNuc=   6.0000000   6.0000000   8.0000000   6.0000000   6.0000000   1.0000000   1.0000000   1.0000000   1.0000000
 Leave Link  101 at Tue Dec 15 17:08:36 2015, MaxMem=    33554432 cpu:         0.0
 (Enter /home/Applications/g09/g09/l103.exe)

 GradGradGradGradGradGradGradGradGradGradGradGradGradGradGradGradGradGrad
 Berny optimization.
 Initialization pass.
 Trust Radius=3.00D-01 FncErr=1.00D-07 GrdErr=1.00D-07
 Number of steps in this run=      2 maximum allowed number of steps=      2.
 GradGradGradGradGradGradGradGradGradGradGradGradGradGradGradGradGradGrad

 Leave Link  103 at Tue Dec 15 17:08:36 2015, MaxMem=    33554432 cpu:         0.0
 (Enter /home/Applications/g09/g09/l202.exe)
                          Input orientation:                          
 ---------------------------------------------------------------------
 Center     Atomic      Atomic             Coordinates (Angstroms)
 Number     Number       Type             X           Y           Z
 ---------------------------------------------------------------------
      1          6           0        0.942933   -0.717648   -0.018785
      2          6           0       -0.394170   -1.102515    0.046626
      3          8           0       -1.206924   -0.014102    0.007182
      4          6           0       -0.320508    1.053065   -0.035282
      5          6           0        0.967938    0.720553    0.033679
      6          1           0        1.790418    1.402801    0.028512
      7          1           0       -0.800439    2.039772   -0.014174
      8          1           0       -0.807545   -2.096595   -0.000425
      9          1           0        1.838171   -1.359869   -0.013112
 ---------------------------------------------------------------------
                    Distance matrix (angstroms):
                    1          2          3          4          5
     1  C    0.000000
     2  C    1.392927   0.000000
     3  O    2.262197   1.358958   0.000000
     4  C    2.175311   2.158393   1.387942   0.000000
     5  C    1.439375   2.275760   2.295745   1.332446   0.000000
     6  H    2.284025   3.324058   3.315438   2.140653   1.068626
     7  H    3.262320   3.169025   2.093821   1.097438   2.206759
     8  H    2.228454   1.077631   2.120457   3.187284   3.330139
     9  H    1.101785   2.247920   3.329280   3.237690   2.255582
                    6          7          8          9
     6  H    0.000000
     7  H    2.668350   0.000000
     8  H    4.358443   4.136396   0.000000
     9  H    2.763396   4.303466   2.746405   0.000000
 Stoichiometry    C4H4O
 Framework group  C1[X(C4H4O)]
 Deg. of freedom    21
 Full point group                 C1      NOp   1
 Largest Abelian subgroup         C1      NOp   1
 Largest concise Abelian subgroup C1      NOp   1
                         Standard orientation:                         
 ---------------------------------------------------------------------
 Center     Atomic      Atomic             Coordinates (Angstroms)
 Number     Number       Type             X           Y           Z
 ---------------------------------------------------------------------
      1          6           0       -0.019172    1.188053   -0.031530
      2          6           0        1.098895    0.359700    0.031743
      3          8           0        0.727362   -0.947149    0.002160
      4          6           0       -0.659023   -0.891027   -0.032035
      5          6           0       -1.176731    0.335006    0.033046
      6          1           0       -2.218232    0.574251    0.032953
      7          1           0       -1.151457   -1.871327   -0.002203
      8          1           0        2.139430    0.634543   -0.023351
      9          1           0       -0.052447    2.289335   -0.032020
 ---------------------------------------------------------------------
 Rotational constants (GHZ):      9.7006762      8.8812455      4.6408617
 Leave Link  202 at Tue Dec 15 17:08:36 2015, MaxMem=    33554432 cpu:         0.0
 (Enter /home/Applications/g09/g09/l301.exe)

 Semi-emprical parameters in input format:
 Method=8 CoreType=1 PeptideFC=0.0111590000 RIJScale=0.5652640000
 ****
 H       
 PQN=1 NValence=1 F0ss=0.5085940000 ZetaOverlap=1.0856700000 U=-0.4186260000
 Beta=-0.2131800000 CoreKO=1.0354420000 KON=0,0,0,1.0458670000 KON=1,0,1,0.9802520000
 KON=0,1,1,1.0589200000 KON=2,1,1,1.0697690000 EISol=-0.4188110042 EHeat=0.0830298228
 Alpha=1.4609850000
 GCore=0.0085280000,1.4882240000,2.4027570000
 GCore=0.0003530000,1.4551640000,3.3455890000
 GCore=-0.0013010000,0.5600570000,3.4989800000
 ****
 C       
 PQN=2,2 NValence=4 F0ss=0.4494440000 F0sp=0.4261420000 F0pp=0.3497590000 F2pp=0.1878900000
 G1sp=0.2701540000
 ZetaOverlap=1.8086650000,1.3781170000
 U=-1.7687090000,-1.4557970000
 Beta=-0.5453250000,-0.3336900000 DDN=0,1,0.7474020000 DDN=1,1,0.7268010000
 CoreKO=1.1124280000 KON=0,0,0,1.1723100000 KON=1,0,1,0.8473510000 KON=0,1,1,1.1012040000
 KON=2,1,1,0.8516400000 EISol=-4.4398989268 EHeat=0.2723305520 Alpha=1.2914650000
 DipHyp=1.4947180026
 GCore=0.0007890000,1.3361580000,2.6678360000
 GCore=0.0028980000,1.4001430000,3.2840710000
 GCore=-0.0015090000,1.2510850000,3.8739390000
 GCore=-0.0000850000,1.4001430000,4.8086990000
 ****
 O       
 PQN=2,2 NValence=6 F0ss=0.5666750000 F0sp=0.5321300000 F0pp=0.4958710000 F2pp=0.2358080000
 G1sp=0.4216980000
 ZetaOverlap=2.6354490000,2.7379220000
 U=-3.5951870000,-2.0345890000
 Beta=-1.1573400000,-1.2994290000 DDN=0,1,0.4953610000 DDN=1,1,0.4852320000
 CoreKO=0.8822960000 KON=0,0,0,0.8822960000 KON=1,0,1,0.5019540000 KON=0,1,1,0.8682050000
 KON=2,1,1,0.5515580000 EISol=-11.6164441184 EHeat=0.0949133088 Alpha=2.4031680000
 DipHyp=0.9906650029
 GCore=0.0204720000,1.4001430000,1.6023330000
 GCore=0.0054290000,1.9602000000,2.7307880000
 ****
 
 Standard basis: VSTO-6G (5D, 7F)
 Ernie: Thresh=  0.10000D-02 Tol=  0.10000D-05 Strict=F.
  NNHCO=     0 NNPyr=     0 NCTC=     0               EPep=         0.000000000
    EC=        68.503804335  ECS=         2.320166779   EG=         0.344645124
   EHC=         0.000000000  EAt=       -31.051283842  AtH=         1.516354808
 EPDDG=         0.000000000  ECC=        71.168616237 EAtT=        32.567638650
 There are    24 symmetry adapted cartesian basis functions of A   symmetry.
 There are    24 symmetry adapted basis functions of A   symmetry.
    24 basis functions,   144 primitive gaussians,    24 cartesian basis functions
    13 alpha electrons       13 beta electrons
       nuclear repulsion energy       103.7362548877 Hartrees.
 IExCor=    0 DFT=F Ex=HF Corr=None ExCW=0 ScaHFX=  1.000000
 ScaDFX=  1.000000  1.000000  1.000000  1.000000 ScalE2=  1.000000  1.000000
 IRadAn=      0 IRanWt=     -1 IRanGd=            0 ICorTp=0 IEmpDi=  4
 Integral buffers will be    131072 words long.
 Regular integral format.
 Two-electron integral symmetry is turned off.
 Leave Link  301 at Tue Dec 15 17:08:36 2015, MaxMem=    33554432 cpu:         0.0
 (Enter /home/Applications/g09/g09/l302.exe)
 Do NDO integrals.
 NPDir=0 NMtPBC=     1 NCelOv=     1 NCel=       1 NClECP=     1 NCelD=      1
         NCelK=      1 NCelE2=     1 NClLst=     1 CellRange=     0.0.
 One-electron integrals computed using PRISM.
 NBasis=    24 RedAO= F EigKep=  0.00D+00  NBF=    24
 NBsUse=    24 1.00D-04 EigRej=  0.00D+00 NBFU=    24
 Leave Link  302 at Tue Dec 15 17:08:36 2015, MaxMem=    33554432 cpu:         0.0
 (Enter /home/Applications/g09/g09/l308.exe)
 Leave Link  308 at Tue Dec 15 17:08:37 2015, MaxMem=    33554432 cpu:         0.0
 (Enter /home/Applications/g09/g09/l303.exe)
 DipDrv:  MaxL=1.
 Leave Link  303 at Tue Dec 15 17:08:37 2015, MaxMem=    33554432 cpu:         0.0
 (Enter /home/Applications/g09/g09/l401.exe)
 Simple Huckel Guess.
 JPrj=0 DoOrth=F DoCkMO=F.
 Leave Link  401 at Tue Dec 15 17:08:37 2015, MaxMem=    33554432 cpu:         0.0
 (Enter /home/Applications/g09/g09/l502.exe)
 Closed shell SCF:
 Using DIIS extrapolation, IDIIS=  1040.
 Overlap will be assumed to be unity.
 Two-electron integral symmetry not used.
 Keep J ints in memory in canonical form, NReq=888082.
 IVT=       79475 IEndB=       79475 NGot=    33554432 MDV=    33473473
 LenX=    33473473 LenY=    33472456
 Requested convergence on RMS density matrix=1.00D-08 within 128 cycles.
 Requested convergence on MAX density matrix=1.00D-06.
 Requested convergence on             energy=1.00D-06.
 No special actions if energy rises.
 FoFCou: FMM=F IPFlag=           0 FMFlag=           0 FMFlg1=           0
         NFxFlg=           0 DoJE=F BraDBF=F KetDBF=F FulRan=T
         wScrn=  0.000000 ICntrl=     600 IOpCl=  2 I1Cent=           0 NGrid=           0
         NMat0=    1 NMatS0=     54 NMatT0=    0 NMatD0=    1 NMtDS0=    0 NMtDT0=    0
 Symmetry not used in FoFCou.

 Cycle   1  Pass 1  IDiag  1:
 E=  4.33242004742299    
 DIIS: error= 1.51D-01 at cycle   1 NSaved=   1.
 NSaved= 1 IEnMin= 1 EnMin=  4.33242004742299     IErMin= 1 ErrMin= 1.51D-01
 ErrMax= 1.51D-01  0.00D+00 EMaxC= 1.00D-01 BMatC= 4.57D-01 BMatP= 4.57D-01
 IDIUse=3 WtCom= 0.00D+00 WtEn= 1.00D+00
 Coeff-Com:  0.100D+01
 Coeff-En:   0.100D+01
 Coeff:      0.100D+01
 GapD=    2.000 DampG=2.000 DampE=0.250 DampFc=0.5000 IDamp=-1.
 Damping current iteration by 5.00D-01
 RMSDP=6.57D-02 MaxDP=7.22D-01              OVMax= 0.00D+00

 Cycle   2  Pass 1  IDiag  1:
 E=  3.35511723234842     Delta-E=       -0.977302815075 Rises=F Damp=T
 DIIS: error= 8.61D-02 at cycle   2 NSaved=   2.
 NSaved= 2 IEnMin= 2 EnMin=  3.35511723234842     IErMin= 2 ErrMin= 8.61D-02
 ErrMax= 8.61D-02  0.00D+00 EMaxC= 1.00D-01 BMatC= 1.54D-01 BMatP= 4.57D-01
 IDIUse=3 WtCom= 1.39D-01 WtEn= 8.61D-01
 Coeff-Com: -0.112D+01 0.212D+01
 Coeff-En:   0.000D+00 0.100D+01
 Coeff:     -0.155D+00 0.115D+01
 RMSDP=3.62D-02 MaxDP=3.66D-01 DE=-9.77D-01 OVMax= 0.00D+00

 Cycle   3  Pass 1  IDiag  1:
 E=  2.15828376229014     Delta-E=       -1.196833470058 Rises=F Damp=F
 DIIS: error= 1.76D-02 at cycle   3 NSaved=   3.
 NSaved= 3 IEnMin= 3 EnMin=  2.15828376229014     IErMin= 3 ErrMin= 1.76D-02
 ErrMax= 1.76D-02  0.00D+00 EMaxC= 1.00D-01 BMatC= 1.10D-02 BMatP= 1.54D-01
 IDIUse=3 WtCom= 8.24D-01 WtEn= 1.76D-01
 Coeff-Com:  0.340D+00-0.743D+00 0.140D+01
 Coeff-En:   0.000D+00 0.000D+00 0.100D+01
 Coeff:      0.281D+00-0.612D+00 0.133D+01
 RMSDP=9.88D-03 MaxDP=5.08D-02 DE=-1.20D+00 OVMax= 0.00D+00

 Cycle   4  Pass 1  IDiag  3:
 E=  2.11434745692198     Delta-E=       -0.043936305368 Rises=F Damp=F
 DIIS: error= 5.28D-03 at cycle   4 NSaved=   4.
 NSaved= 4 IEnMin= 4 EnMin=  2.11434745692198     IErMin= 4 ErrMin= 5.28D-03
 ErrMax= 5.28D-03  0.00D+00 EMaxC= 1.00D-01 BMatC= 1.04D-03 BMatP= 1.10D-02
 IDIUse=3 WtCom= 9.47D-01 WtEn= 5.28D-02
 Coeff-Com: -0.729D-01 0.135D+00-0.456D+00 0.139D+01
 Coeff-En:   0.000D+00 0.000D+00 0.000D+00 0.100D+01
 Coeff:     -0.690D-01 0.128D+00-0.432D+00 0.137D+01
 Gap=     0.406 Goal=   None    Shift=    0.000
 RMSDP=3.96D-03 MaxDP=2.17D-02 DE=-4.39D-02 OVMax= 3.16D-02

 Cycle   5  Pass 1  IDiag  3:
 E=  2.10951922071197     Delta-E=       -0.004828236210 Rises=F Damp=F
 DIIS: error= 9.74D-04 at cycle   5 NSaved=   5.
 NSaved= 5 IEnMin= 5 EnMin=  2.10951922071197     IErMin= 5 ErrMin= 9.74D-04
 ErrMax= 9.74D-04  0.00D+00 EMaxC= 1.00D-01 BMatC= 4.07D-05 BMatP= 1.04D-03
 IDIUse=3 WtCom= 9.90D-01 WtEn= 9.74D-03
 Coeff-Com:  0.157D-01-0.276D-01 0.126D+00-0.541D+00 0.143D+01
 Coeff-En:   0.000D+00 0.000D+00 0.000D+00 0.000D+00 0.100D+01
 Coeff:      0.156D-01-0.273D-01 0.125D+00-0.536D+00 0.142D+01
 Gap=     0.406 Goal=   None    Shift=    0.000
 RMSDP=8.72D-04 MaxDP=4.86D-03 DE=-4.83D-03 OVMax= 5.70D-03

 Cycle   6  Pass 1  IDiag  3:
 E=  2.10930923192687     Delta-E=       -0.000209988785 Rises=F Damp=F
 DIIS: error= 2.05D-04 at cycle   6 NSaved=   6.
 NSaved= 6 IEnMin= 6 EnMin=  2.10930923192687     IErMin= 6 ErrMin= 2.05D-04
 ErrMax= 2.05D-04  0.00D+00 EMaxC= 1.00D-01 BMatC= 1.52D-06 BMatP= 4.07D-05
 IDIUse=3 WtCom= 9.98D-01 WtEn= 2.05D-03
 Coeff-Com: -0.975D-03 0.196D-02-0.286D-01 0.146D+00-0.546D+00 0.143D+01
 Coeff-En:   0.000D+00 0.000D+00 0.000D+00 0.000D+00 0.000D+00 0.100D+01
 Coeff:     -0.973D-03 0.195D-02-0.286D-01 0.146D+00-0.545D+00 0.143D+01
 Gap=     0.407 Goal=   None    Shift=    0.000
 RMSDP=1.71D-04 MaxDP=1.01D-03 DE=-2.10D-04 OVMax= 8.95D-04

 Cycle   7  Pass 1  IDiag  3:
 E=  2.10930201371366     Delta-E=       -0.000007218213 Rises=F Damp=F
 DIIS: error= 2.01D-05 at cycle   7 NSaved=   7.
 NSaved= 7 IEnMin= 7 EnMin=  2.10930201371366     IErMin= 7 ErrMin= 2.01D-05
 ErrMax= 2.01D-05  0.00D+00 EMaxC= 1.00D-01 BMatC= 2.87D-08 BMatP= 1.52D-06
 IDIUse=1 WtCom= 1.00D+00 WtEn= 0.00D+00
 Coeff-Com:  0.695D-04-0.107D-03 0.926D-02-0.523D-01 0.214D+00-0.626D+00
 Coeff-Com:  0.145D+01
 Coeff:      0.695D-04-0.107D-03 0.926D-02-0.523D-01 0.214D+00-0.626D+00
 Coeff:      0.145D+01
 Gap=     0.407 Goal=   None    Shift=    0.000
 RMSDP=2.05D-05 MaxDP=1.02D-04 DE=-7.22D-06 OVMax= 1.73D-04

 Cycle   8  Pass 1  IDiag  3:
 E=  2.10930188938890     Delta-E=       -0.000000124325 Rises=F Damp=F
 DIIS: error= 3.72D-06 at cycle   8 NSaved=   8.
 NSaved= 8 IEnMin= 8 EnMin=  2.10930188938890     IErMin= 8 ErrMin= 3.72D-06
 ErrMax= 3.72D-06  0.00D+00 EMaxC= 1.00D-01 BMatC= 7.48D-10 BMatP= 2.87D-08
 IDIUse=1 WtCom= 1.00D+00 WtEn= 0.00D+00
 Coeff-Com: -0.455D-05-0.249D-04-0.147D-02 0.959D-02-0.444D-01 0.136D+00
 Coeff-Com: -0.392D+00 0.129D+01
 Coeff:     -0.455D-05-0.249D-04-0.147D-02 0.959D-02-0.444D-01 0.136D+00
 Coeff:     -0.392D+00 0.129D+01
 Gap=     0.407 Goal=   None    Shift=    0.000
 RMSDP=3.23D-06 MaxDP=1.68D-05 DE=-1.24D-07 OVMax= 2.07D-05

 Cycle   9  Pass 1  IDiag  3:
 E=  2.10930188620236     Delta-E=       -0.000000003187 Rises=F Damp=F
 DIIS: error= 6.84D-07 at cycle   9 NSaved=   9.
 NSaved= 9 IEnMin= 9 EnMin=  2.10930188620236     IErMin= 9 ErrMin= 6.84D-07
 ErrMax= 6.84D-07  0.00D+00 EMaxC= 1.00D-01 BMatC= 2.55D-11 BMatP= 7.48D-10
 IDIUse=1 WtCom= 1.00D+00 WtEn= 0.00D+00
 Coeff-Com:  0.330D-05-0.744D-06 0.143D-03-0.105D-02 0.551D-02-0.171D-01
 Coeff-Com:  0.512D-01-0.288D+00 0.125D+01
 Coeff:      0.330D-05-0.744D-06 0.143D-03-0.105D-02 0.551D-02-0.171D-01
 Coeff:      0.512D-01-0.288D+00 0.125D+01
 Gap=     0.407 Goal=   None    Shift=    0.000
 RMSDP=6.76D-07 MaxDP=3.77D-06 DE=-3.19D-09 OVMax= 5.27D-06

 Cycle  10  Pass 1  IDiag  3:
 E=  2.10930188606540     Delta-E=       -0.000000000137 Rises=F Damp=F
 DIIS: error= 1.84D-07 at cycle  10 NSaved=  10.
 NSaved=10 IEnMin=10 EnMin=  2.10930188606540     IErMin=10 ErrMin= 1.84D-07
 ErrMax= 1.84D-07  0.00D+00 EMaxC= 1.00D-01 BMatC= 2.04D-12 BMatP= 2.55D-11
 IDIUse=1 WtCom= 1.00D+00 WtEn= 0.00D+00
 Coeff-Com:  0.128D-05-0.347D-05-0.290D-04 0.253D-03-0.145D-02 0.443D-02
 Coeff-Com: -0.134D-01 0.916D-01-0.597D+00 0.152D+01
 Coeff:      0.128D-05-0.347D-05-0.290D-04 0.253D-03-0.145D-02 0.443D-02
 Coeff:     -0.134D-01 0.916D-01-0.597D+00 0.152D+01
 Gap=     0.407 Goal=   None    Shift=    0.000
 RMSDP=2.51D-07 MaxDP=1.82D-06 DE=-1.37D-10 OVMax= 2.23D-06

 Cycle  11  Pass 1  IDiag  3:
 E=  2.10930188605211     Delta-E=       -0.000000000013 Rises=F Damp=F
 DIIS: error= 5.83D-08 at cycle  11 NSaved=  11.
 NSaved=11 IEnMin=11 EnMin=  2.10930188605211     IErMin=11 ErrMin= 5.83D-08
 ErrMax= 5.83D-08  0.00D+00 EMaxC= 1.00D-01 BMatC= 9.24D-14 BMatP= 2.04D-12
 IDIUse=1 WtCom= 1.00D+00 WtEn= 0.00D+00
 Coeff-Com: -0.610D-06 0.127D-05 0.406D-06-0.257D-04 0.213D-03-0.621D-03
 Coeff-Com:  0.213D-02-0.249D-01 0.210D+00-0.701D+00 0.151D+01
 Coeff:     -0.610D-06 0.127D-05 0.406D-06-0.257D-04 0.213D-03-0.621D-03
 Coeff:      0.213D-02-0.249D-01 0.210D+00-0.701D+00 0.151D+01
 Gap=     0.407 Goal=   None    Shift=    0.000
 RMSDP=5.59D-08 MaxDP=4.32D-07 DE=-1.33D-11 OVMax= 5.15D-07

 Cycle  12  Pass 1  IDiag  3:
 E=  2.10930188605153     Delta-E=       -0.000000000001 Rises=F Damp=F
 DIIS: error= 1.08D-08 at cycle  12 NSaved=  12.
 NSaved=12 IEnMin=12 EnMin=  2.10930188605153     IErMin=12 ErrMin= 1.08D-08
 ErrMax= 1.08D-08  0.00D+00 EMaxC= 1.00D-01 BMatC= 2.92D-15 BMatP= 9.24D-14
 IDIUse=1 WtCom= 1.00D+00 WtEn= 0.00D+00
 Coeff-Com:  0.711D-08-0.305D-07-0.182D-06 0.578D-05-0.508D-04 0.131D-03
 Coeff-Com: -0.466D-03 0.742D-02-0.681D-01 0.242D+00-0.629D+00 0.145D+01
 Coeff:      0.711D-08-0.305D-07-0.182D-06 0.578D-05-0.508D-04 0.131D-03
 Coeff:     -0.466D-03 0.742D-02-0.681D-01 0.242D+00-0.629D+00 0.145D+01
 Gap=     0.407 Goal=   None    Shift=    0.000
 RMSDP=7.96D-09 MaxDP=5.75D-08 DE=-5.83D-13 OVMax= 6.17D-08

 Cycle  13  Pass 2  IDiag  1:
 SCF Done:  E(RAM1) =   2.10930188605     A.U. after   13 cycles
            NFock= 12  Conv=0.80D-08     -V/T= 1.1379
 KE=-1.529202144478D+01 PE=-1.687817294277D+02 EE= 8.244679787077D+01
 Leave Link  502 at Tue Dec 15 17:08:37 2015, MaxMem=    33554432 cpu:         0.0
 (Enter /home/Applications/g09/g09/l801.exe)
 Range of M.O.s used for correlation:     1    24
 NBasis=    24 NAE=    13 NBE=    13 NFC=     0 NFV=     0
 NROrb=     24 NOA=    13 NOB=    13 NVA=    11 NVB=    11
 Leave Link  801 at Tue Dec 15 17:08:37 2015, MaxMem=    33554432 cpu:         0.0
 (Enter /home/Applications/g09/g09/l914.exe)
 RHF ground state
 MDV=    33554432 DFT=F DoStab=F Mixed=F DoRPA=F DoScal=F NonHer=F
 Making orbital integer symmetry assigments:
 Orbital symmetries:
       Occupied  (A) (A) (A) (A) (A) (A) (A) (A) (A) (A) (A) (A)
                 (A)
       Virtual   (A) (A) (A) (A) (A) (A) (A) (A) (A) (A) (A)
    60 initial guesses have been made.
 Convergence on wavefunction:    0.000001000000000
 Davidson Disk Diagonalization:  ConvIn= 1.00D-06 SkipCon=T Conv= 1.00D-06.
 Max sub-space:   240 roots to seek:    60 dimension of matrix:          286
 Iteration     1 Dimension    60 NMult     0 NNew     60
 CISAX will form    60 AO SS matrices at one time.
 NMat=    60 NSing=    60 JSym2X= 0.
 FoFJK:  IHMeth= 8 ICntrl=       0 DoSepK=F KAlg= 0 I1Cent=   0 FoldK=F
 IRaf=         1 NMat= 120 IRICut=       1 DoRegI=T DoRafI=F ISym2E= 0.
 FoFCou: FMM=F IPFlag=           0 FMFlag=      100000 FMFlg1=           0
         NFxFlg=           0 DoJE=F BraDBF=F KetDBF=F FulRan=T
         wScrn=  0.000000 ICntrl=       0 IOpCl=  0 I1Cent=           0 NGrid=           0
         NMat0=  120 NMatS0=     60 NMatT0=    0 NMatD0=  120 NMtDS0=    0 NMtDT0=    0
 Symmetry not used in FoFCou.
 New state      6 was old state      8
 New state      8 was old state      6
 New state     10 was old state     15
 New state     11 was old state     10
 New state     12 was old state     11
 New state     13 was old state     12
 New state     15 was old state     13
 Excitation Energies [eV] at current iteration:
 Root      1 :     5.534283364529831
 Root      2 :     6.388762350434080
 Root      3 :     6.654759334580660
 Root      4 :     7.213475232556426
 Root      5 :     8.143505044619728
 Root      6 :     8.264788318970107
 Root      7 :     8.518843931799937
 Root      8 :     8.974737195361124
 Root      9 :     9.123102872297272
 Root     10 :     9.570766533127113
 Root     11 :     9.817029977111231
 Root     12 :     9.950115250149093
 Root     13 :    10.096252942743120
 Root     14 :    10.269539759204360
 Root     15 :    10.330602070031830
 Root     16 :    10.360139371281420
 Root     17 :    10.477623313579640
 Root     18 :    10.868459694438750
 Root     19 :    11.260284682723290
 Root     20 :    11.361936887222990
 Root     21 :    11.548712256355800
 Root     22 :    11.624839054944800
 Root     23 :    11.783036086119490
 Root     24 :    11.890208763447760
 Root     25 :    12.089890576847410
 Root     26 :    12.481688073175560
 Root     27 :    12.698762976649500
 Root     28 :    12.801783570030730
 Root     29 :    12.868619867143870
 Root     30 :    13.054499928307700
 Root     31 :    13.093126624917510
 Root     32 :    13.301534008779830
 Root     33 :    13.368715206215850
 Root     34 :    13.488995143377230
 Root     35 :    13.497573138699340
 Root     36 :    13.566595389345190
 Root     37 :    13.600154988157530
 Root     38 :    13.677657240432230
 Root     39 :    13.739171567938770
 Root     40 :    13.812707119375050
 Root     41 :    13.925315874519250
 Root     42 :    14.340560890302210
 Root     43 :    14.588083069495550
 Root     44 :    14.703579692090240
 Root     45 :    15.040780428834980
 Root     46 :    15.181459912956700
 Root     47 :    15.517728121562420
 Root     48 :    15.615428907653170
 Root     49 :    15.703464374373910
 Root     50 :    15.904948887965920
 Root     51 :    15.964879840644330
 Root     52 :    16.017853972438510
 Root     53 :    16.224410716462360
 Root     54 :    16.644341625890910
 Root     55 :    16.683374959049950
 Root     56 :    16.781169011748580
 Root     57 :    17.022373110106970
 Root     58 :    17.031629554804770
 Root     59 :    17.073519326486370
 Root     60 :    17.165168771887490
 Iteration     2 Dimension   120 NMult    60 NNew     60
 CISAX will form    60 AO SS matrices at one time.
 NMat=    60 NSing=    60 JSym2X= 0.
 Root      1 not converged, maximum delta is    0.018631310108091
 Root      2 not converged, maximum delta is    0.020558388794313
 Root      3 not converged, maximum delta is    0.019506599310433
 Root      4 not converged, maximum delta is    0.029337666832647
 Root      5 not converged, maximum delta is    0.043785676667550
 Root      6 not converged, maximum delta is    0.044262412343363
 Root      7 not converged, maximum delta is    0.023053515217430
 Root      8 not converged, maximum delta is    0.032573824545188
 Root      9 not converged, maximum delta is    0.038574742140843
 Root     10 not converged, maximum delta is    0.145806130070194
 Root     11 not converged, maximum delta is    0.243934205605162
 Root     12 not converged, maximum delta is    0.109755440417549
 Root     13 not converged, maximum delta is    0.076909212598313
 Root     14 not converged, maximum delta is    0.147991542649005
 New state     15 was old state     16
 Root     15 not converged, maximum delta is    0.430863432334372
 Excitation Energies [eV] at current iteration:
 Root      1 :     5.462475070036198   Change is   -0.071808294493633
 Root      2 :     6.367430979383784   Change is   -0.021331371050295
 Root      3 :     6.628365176403618   Change is   -0.026394158177042
 Root      4 :     7.179046269357519   Change is   -0.034428963198907
 Root      5 :     8.096863768127724   Change is   -0.046641276492003
 Root      6 :     8.241578827831571   Change is   -0.023209491138535
 Root      7 :     8.489804566778165   Change is   -0.029039365021773
 Root      8 :     8.922264391964136   Change is   -0.052472803396988
 Root      9 :     9.057234704328376   Change is   -0.065868167968896
 Root     10 :     9.532076697632716   Change is   -0.038689835494396
 Root     11 :     9.604201863101238   Change is   -0.212828114009994
 Root     12 :     9.883061612388689   Change is   -0.067053637760403
 Root     13 :    10.034789110950390   Change is   -0.061463831792729
 Root     14 :    10.211582952852050   Change is   -0.057956806352311
 Root     15 :    10.225245631959780   Change is   -0.134893739321638
 Root     16 :    10.247938744306200   Change is   -0.082663325725634
 Root     17 :    10.364222840554000   Change is   -0.113400473025647
 Root     18 :    10.630708992730720   Change is   -0.237750701708033
 Root     19 :    10.978023958919500   Change is   -0.383912928303491
 Root     20 :    11.163110906088610   Change is   -0.097173776634680
 Root     21 :    11.330479409321550   Change is   -0.294359645623255
 Root     22 :    11.493490911315580   Change is   -0.289545174803906
 Root     23 :    11.509105495672290   Change is   -0.039606760683519
 Root     24 :    11.771157223656500   Change is   -0.119051539791266
 Root     25 :    11.892683991913710   Change is   -0.197206584933699
 Root     26 :    12.274629938234720   Change is   -0.207058134940842
 Root     27 :    12.515860965541350   Change is   -0.182902011108151
 Root     28 :    12.620645967785920   Change is   -0.181137602244814
 Root     29 :    12.706458246289850   Change is   -0.162161620854025
 Root     30 :    12.880360824440280   Change is   -0.212765800477223
 Root     31 :    12.902589668260860   Change is   -0.151910260046849
 Root     32 :    13.010428390992810   Change is   -0.291105617787018
 Root     33 :    13.085609965791220   Change is   -0.403385177586010
 Root     34 :    13.234779065186740   Change is   -0.133936141029107
 Root     35 :    13.305874185399020   Change is   -0.191698953300321
 Root     36 :    13.335228894207020   Change is   -0.264926093950512
 Root     37 :    13.354420444118990   Change is   -0.212174945226204
 Root     38 :    13.375870688228470   Change is   -0.301786552203764
 Root     39 :    13.495770471068520   Change is   -0.243401096870251
 Root     40 :    13.707748784198110   Change is   -0.104958335176941
 Root     41 :    13.740069023774450   Change is   -0.185246850744800
 Root     42 :    14.196043194269680   Change is   -0.144517696032531
 Root     43 :    14.487382221890960   Change is   -0.100700847604585
 Root     44 :    14.643736615791530   Change is   -0.059843076298710
 Root     45 :    14.816599876401160   Change is   -0.224180552433817
 Root     46 :    15.013588064657570   Change is   -0.167871848299140
 Root     47 :    15.153728454426540   Change is   -0.461700453226636
 Root     48 :    15.292898999816250   Change is   -0.224829121746175
 Root     49 :    15.393496941552940   Change is   -0.309967432820978
 Root     50 :    15.518042861370460   Change is   -0.386906026595456
 Root     51 :    15.744560203353990   Change is   -0.273293769084510
 Root     52 :    15.871728599537320   Change is   -0.352682116925033
 Root     53 :    15.891327819927260   Change is   -0.073552020717070
 Root     54 :    16.011360316790100
 Root     55 :    16.150443437189910   Change is   -0.532931521860042
 Root     56 :    16.180363213174510   Change is   -0.463978412716396
 Root     57 :    16.388442673306110   Change is   -0.643186881498661
 Root     58 :    16.522475184329490   Change is   -0.258693827419087
 Root     59 :    16.661926539745370   Change is   -0.411592786741000
 Root     60 :    16.731806461983270
 Iteration     3 Dimension   135 NMult   120 NNew     15
 CISAX will form    15 AO SS matrices at one time.
 NMat=    15 NSing=    15 JSym2X= 0.
 Root      1 not converged, maximum delta is    0.001465121819877
 Root      2 not converged, maximum delta is    0.000032620272376
 Root      3 not converged, maximum delta is    0.000077936475657
 Root      4 not converged, maximum delta is    0.000162384060015
 Root      5 not converged, maximum delta is    0.000102231931098
 Root      6 not converged, maximum delta is    0.000110373785189
 Root      7 not converged, maximum delta is    0.000210155282973
 Root      8 not converged, maximum delta is    0.001172918297285
 Root      9 not converged, maximum delta is    0.000232530309898
 Root     10 not converged, maximum delta is    0.004052661551567
 Root     11 not converged, maximum delta is    0.004036250340748
 Root     12 not converged, maximum delta is    0.001300756486957
 Root     13 not converged, maximum delta is    0.002132225642520
 Root     14 not converged, maximum delta is    0.003425594847521
 Root     15 not converged, maximum delta is    0.004922239138127
 Excitation Energies [eV] at current iteration:
 Root      1 :     5.462049281392171   Change is   -0.000425788644027
 Root      2 :     6.367430398580422   Change is   -0.000000580803363
 Root      3 :     6.628363791989158   Change is   -0.000001384414461
 Root      4 :     7.179039796850275   Change is   -0.000006472507245
 Root      5 :     8.096859960161538   Change is   -0.000003807966185
 Root      6 :     8.241574708690614   Change is   -0.000004119140957
 Root      7 :     8.489797783361782   Change is   -0.000006783416383
 Root      8 :     8.922050319938215   Change is   -0.000214072025921
 Root      9 :     9.057224759336661   Change is   -0.000009944991715
 Root     10 :     9.531759332642443   Change is   -0.000317364990274
 Root     11 :     9.602740824856964   Change is   -0.001461038244274
 Root     12 :     9.882917885454416   Change is   -0.000143726934273
 Root     13 :    10.034391428617520   Change is   -0.000397682332870
 Root     14 :    10.211311836640060   Change is   -0.000271116211994
 Root     15 :    10.224222244057450   Change is   -0.001023387902336
 Iteration     4 Dimension   143 NMult   135 NNew      8
 CISAX will form     8 AO SS matrices at one time.
 NMat=     8 NSing=     8 JSym2X= 0.
 Root      1 not converged, maximum delta is    0.000078047710103
 Root      2 not converged, maximum delta is    0.000001654222175
 Root      3 not converged, maximum delta is    0.000002950781752
 Root      4 not converged, maximum delta is    0.000005421123490
 Root      5 not converged, maximum delta is    0.000009612708036
 Root      6 not converged, maximum delta is    0.000006410176775
 Root      7 not converged, maximum delta is    0.000015602234739
 Root      8 not converged, maximum delta is    0.000073626016546
 Root      9 not converged, maximum delta is    0.000016235519561
 Root     10 not converged, maximum delta is    0.000149556631090
 Root     11 not converged, maximum delta is    0.000324701929610
 Root     12 not converged, maximum delta is    0.000048727879190
 Root     13 not converged, maximum delta is    0.000072837174945
 Root     14 not converged, maximum delta is    0.000052213806400
 Root     15 not converged, maximum delta is    0.000094942242479
 Excitation Energies [eV] at current iteration:
 Root      1 :     5.462047915737518   Change is   -0.000001365654653
 Root      2 :     6.367430396929977   Change is   -0.000000001650444
 Root      3 :     6.628363789529967   Change is   -0.000000002459191
 Root      4 :     7.179039788366605   Change is   -0.000000008483669
 Root      5 :     8.096859946697350   Change is   -0.000000013464189
 Root      6 :     8.241574698100369   Change is   -0.000000010590245
 Root      7 :     8.489797748001562   Change is   -0.000000035360219
 Root      8 :     8.922049617463299   Change is   -0.000000702474916
 Root      9 :     9.057224731177840   Change is   -0.000000028158823
 Root     10 :     9.531757255334076   Change is   -0.000002077308367
 Root     11 :     9.602731090275551   Change is   -0.000009734581413
 Root     12 :     9.882917292573076   Change is   -0.000000592881340
 Root     13 :    10.034389863707110   Change is   -0.000001564910403
 Root     14 :    10.211311262373360   Change is   -0.000000574266697
 Root     15 :    10.224219135435250   Change is   -0.000003108622194
 Convergence achieved on expansion vectors.
 ***********************************************************************
 Excited states from <AA,BB:AA,BB> singles matrix:
 ***********************************************************************
 
 1PDM for each excited state written to RWF  633
 Ground to excited state transition densities written to RWF  633
 Ground to excited state transition electric dipole moments (Au):
       state          X           Y           Z        Dip. S.      Osc.
         1         1.2358      1.0127     -0.0965      2.5622      0.3429
         2         0.0177      0.0244      0.0615      0.0047      0.0007
         3         0.0614      0.0345      0.0915      0.0133      0.0022
         4        -0.0844     -0.0216      0.0346      0.0088      0.0015
         5        -0.0196     -0.0176     -0.1610      0.0266      0.0053
         6        -0.0466     -0.0842      0.1475      0.0310      0.0063
         7        -0.0881     -0.0975     -0.1287      0.0338      0.0070
         8        -0.4820      0.3253      0.0188      0.3385      0.0740
         9         0.0794     -0.0793      0.0689      0.0173      0.0038
        10         0.1165      0.1609      0.2439      0.0989      0.0231
        11        -0.2716     -0.4875      0.0429      0.3133      0.0737
        12         0.0366      0.2184     -0.5633      0.3663      0.0887
        13         0.3226     -0.1975     -0.1997      0.1830      0.0450
        14        -0.4510     -0.3743     -0.0347      0.3446      0.0862
        15         0.1405     -0.7530     -0.0373      0.5881      0.1473
 Ground to excited state transition velocity dipole moments (Au):
       state          X           Y           Z        Dip. S.      Osc.
         1        -0.1326     -0.1163      0.0201      0.0315      0.1047
         2        -0.0073      0.0051     -0.1398      0.0196      0.0559
         3        -0.0012     -0.0144     -0.1014      0.0105      0.0287
         4         0.0151     -0.0005     -0.0017      0.0002      0.0006
         5         0.0037      0.0037      0.0392      0.0016      0.0035
         6         0.0023      0.0191     -0.0048      0.0004      0.0009
         7         0.0102      0.0116      0.0423      0.0020      0.0043
         8         0.1448     -0.1198     -0.0057      0.0353      0.0719
         9        -0.0237      0.0252      0.0015      0.0012      0.0024
        10        -0.0161     -0.0468      0.0441      0.0044      0.0084
        11         0.0507      0.1002     -0.0088      0.0127      0.0240
        12        -0.0010     -0.0392     -0.0497      0.0040      0.0074
        13        -0.0433      0.0277      0.0069      0.0027      0.0049
        14         0.0421      0.0560     -0.0491      0.0073      0.0130
        15        -0.0692      0.1559     -0.0192      0.0295      0.0523
 Ground to excited state transition magnetic dipole moments (Au):
       state          X           Y           Z
         1         0.0003      0.0120      0.5491
         2         0.1313     -0.2357     -0.0046
         3        -0.2259      0.1660      0.0136
         4        -0.6899      0.5720     -0.0332
         5         0.7705      0.0479      0.0021
         6        -0.3231     -0.8713     -0.0546
         7         0.0612      0.3343     -0.0523
         8         0.0390     -0.1106     -0.0095
         9         0.0189      0.0490     -0.0086
        10         0.0755     -0.0555      0.0556
        11         0.0310     -0.0231     -0.1089
        12        -0.0606      0.0709     -0.0174
        13         0.1314     -0.2087      0.0609
        14         0.2152     -0.1521     -0.1543
        15        -0.1235      0.2107     -0.0727
 Ground to excited state transition velocity quadrupole moments (Au):
       state          XX          YY          ZZ          XY          XZ          YZ
         1         0.2821     -0.2877     -0.0007     -0.0578     -0.0237      0.0476
         2         0.0267     -0.0338      0.0107     -0.0178      0.2058      0.0545
         3         0.0344     -0.0388     -0.0100     -0.0003     -0.1157     -0.1814
         4        -0.0144      0.0153     -0.0120      0.0187      0.1397      0.1526
         5         0.0073      0.0193     -0.0204      0.0125      0.2355      0.2585
         6        -0.0073      0.0329     -0.0091     -0.0081      0.0564      0.2038
         7        -0.0390      0.0242      0.0099     -0.0008     -0.3174      0.0356
         8        -0.0500     -0.1218      0.0434      0.2876      0.0153      0.0215
         9         0.0319      0.0555     -0.0006     -0.0516      0.1401      0.1300
        10         0.1088      0.0680      0.0257      0.0391      0.0150      0.0548
        11        -0.2223     -0.1121     -0.0518     -0.1111      0.0090      0.0342
        12         0.1114      0.1225      0.0150      0.0267     -0.0186     -0.0461
        13        -0.1735     -0.2645     -0.0144     -0.0426      0.1766      0.1096
        14        -0.0411      0.3101      0.0669      0.1120      0.0776      0.1585
        15        -0.2609     -0.1420      0.0384      0.0371     -0.1551     -0.0962
 <0|del|b> * <b|rxdel|0> + <0|del|b> * <b|delr+rdel|0>
 Rotatory Strengths (R) in cgs (10**-40 erg-esu-cm/Gauss)
       state          XX          YY          ZZ    R(velocity)    E-M Angle
         1        10.0645     10.2565     13.4633     11.2614       84.36
         2         1.3319     -4.8599     -1.0799     -1.5359       92.31
         3        -7.8519     -1.3481     -0.9757     -3.3919       97.01
         4        -0.2374    -10.7828    -17.5324     -9.5175      141.24
         5        -0.1459      4.0855      3.5215      2.4870       84.10
         6       -20.3608     -0.0566    -19.5940    -13.3371      158.06
         7         6.0105     -1.3439      0.5172      1.7279       81.50
         8        14.5476     11.2720     15.0339     13.6178       31.07
         9        -2.5346     -3.6791      7.8542      0.5468       65.21
        10         7.5513     -1.3833      1.5766      2.5815       57.95
        11        -1.2858      3.2908     -1.5827      0.1408       89.07
        12        -3.8691      2.2382     -1.9849     -1.2053      108.01
        13       -10.1065     -9.3126     -1.7576     -7.0589      147.00
        14       -10.1588     27.1510     -1.6764      5.1053       71.88
        15        54.3073     16.2859      9.9294     26.8409       11.94
 1/2[<0|r|b>*<b|rxdel|0> + (<0|rxdel|b>*<b|r|0>)*]
 Rotatory Strengths (R) in cgs (10**-40 erg-esu-cm/Gauss)
       state          XX          YY          ZZ     R(length)
         1        -0.2702     -8.5693     37.4809      9.5472
         2        -1.6404      4.0595      0.1982      0.8724
         3         9.8043     -4.0455     -0.8818      1.6257
         4       -41.1570      8.7435      0.8128    -10.5336
         5        10.6700      0.5974      0.2437      3.8370
         6       -10.6416    -51.8889      5.6962    -18.9448
         7         3.8153     23.0496     -4.7573      7.3692
         8        13.2850     25.4327      0.1269     12.9482
         9        -1.0626      2.7462      0.4164      0.7000
        10        -6.2219      6.3141     -9.5982     -3.1687
        11         5.9458     -7.9725      3.3033      0.4255
        12         1.5690    -10.9521     -6.9332     -5.4387
        13       -29.9771    -29.1510      8.6059    -16.8407
        14        68.6379    -40.2503     -3.7892      8.1995
        15        12.2733    112.1809     -1.9154     40.8463
  1/2[<0|del|b>*<b|r|0> + (<0|r|b>*<b|del|0>)*] (Au)
       state          X           Y           Z        Dip. S.   Osc.(frdel)
         1        -0.1639     -0.1178     -0.0019      0.2837      0.1891
         2        -0.0001      0.0001     -0.0086      0.0086      0.0057
         3        -0.0001     -0.0005     -0.0093      0.0098      0.0066
         4        -0.0013      0.0000     -0.0001      0.0013      0.0009
         5        -0.0001     -0.0001     -0.0063      0.0064      0.0043
         6        -0.0001     -0.0016     -0.0007      0.0024      0.0016
         7        -0.0009     -0.0011     -0.0054      0.0075      0.0050
         8        -0.0698     -0.0390     -0.0001      0.1089      0.0726
         9        -0.0019     -0.0020      0.0001      0.0038      0.0025
        10        -0.0019     -0.0075      0.0108     -0.0013     -0.0009
        11        -0.0138     -0.0489     -0.0004      0.0630      0.0420
        12         0.0000     -0.0086      0.0280     -0.0194     -0.0129
        13        -0.0140     -0.0055     -0.0014      0.0208      0.0139
        14        -0.0190     -0.0210      0.0017      0.0382      0.0255
        15        -0.0097     -0.1174      0.0007      0.1264      0.0843

 Excitation energies and oscillator strengths:
 
 Excited State   1:      Singlet-A      5.4620 eV  226.99 nm  f=0.3429  <S**2>=0.000
      13 -> 14         0.69532
 This state for optimization and/or second-order correction.
 Total Energy, E(CIS) =   2.31002846224    
 Copying the excited state density for this state as the 1-particle RhoCI density.
 
 Excited State   2:      Singlet-A      6.3674 eV  194.72 nm  f=0.0007  <S**2>=0.000
      11 -> 15         0.12035
      13 -> 15         0.67545
      13 -> 17        -0.11817
 
 Excited State   3:      Singlet-A      6.6284 eV  187.05 nm  f=0.0022  <S**2>=0.000
      11 -> 16        -0.11361
      13 -> 16         0.66862
      13 -> 19        -0.12936
 
 Excited State   4:      Singlet-A      7.1790 eV  172.70 nm  f=0.0015  <S**2>=0.000
      12 -> 14         0.69809
 
 Excited State   5:      Singlet-A      8.0969 eV  153.13 nm  f=0.0053  <S**2>=0.000
      10 -> 14        -0.23507
      13 -> 15         0.10098
      13 -> 17         0.41520
      13 -> 18        -0.38008
      13 -> 19        -0.16157
      13 -> 20         0.10436
      13 -> 22        -0.25058
 
 Excited State   6:      Singlet-A      8.2416 eV  150.44 nm  f=0.0063  <S**2>=0.000
      10 -> 14         0.60160
      11 -> 14        -0.12857
      13 -> 18        -0.26463
      13 -> 20         0.10002
      13 -> 22        -0.14710
 
 Excited State   7:      Singlet-A      8.4898 eV  146.04 nm  f=0.0070  <S**2>=0.000
      10 -> 14         0.22840
      11 -> 16        -0.12004
      13 -> 16         0.11024
      13 -> 17         0.53592
      13 -> 18         0.28952
      13 -> 22         0.16249
 
 Excited State   8:      Singlet-A      8.9220 eV  138.96 nm  f=0.0740  <S**2>=0.000
      10 -> 14         0.14308
      11 -> 14         0.63407
      12 -> 15         0.13189
      13 -> 21         0.15840
 
 Excited State   9:      Singlet-A      9.0572 eV  136.89 nm  f=0.0038  <S**2>=0.000
      13 -> 18        -0.31335
      13 -> 19         0.59907
 
 Excited State  10:      Singlet-A      9.5318 eV  130.07 nm  f=0.0231  <S**2>=0.000
      12 -> 15        -0.19210
      12 -> 16         0.11623
      13 -> 18        -0.25061
      13 -> 19        -0.20834
      13 -> 20        -0.35425
      13 -> 22         0.40790
 
 Excited State  11:      Singlet-A      9.6027 eV  129.11 nm  f=0.0737  <S**2>=0.000
       8 -> 15         0.15957
      10 -> 16         0.10148
      10 -> 17        -0.13997
      11 -> 14        -0.11551
      12 -> 15         0.45330
      12 -> 16        -0.21585
      12 -> 18         0.15483
      13 -> 18        -0.13156
      13 -> 22         0.26955
 
 Excited State  12:      Singlet-A      9.8829 eV  125.45 nm  f=0.0887  <S**2>=0.000
      11 -> 16        -0.18983
      12 -> 15        -0.16802
      13 -> 20         0.52295
      13 -> 22         0.34627
 
 Excited State  13:      Singlet-A     10.0344 eV  123.56 nm  f=0.0450  <S**2>=0.000
      11 -> 15         0.30017
      11 -> 16         0.19871
      12 -> 15         0.21534
      12 -> 16         0.43003
      12 -> 18        -0.12974
      13 -> 20         0.15181
      13 -> 21         0.10865
      13 -> 22         0.12876
 
 Excited State  14:      Singlet-A     10.2113 eV  121.42 nm  f=0.0862  <S**2>=0.000
      10 -> 16        -0.19493
      10 -> 17         0.12714
      11 -> 15         0.40016
      11 -> 16         0.15489
      12 -> 16        -0.39577
      12 -> 17         0.15181
 
 Excited State  15:      Singlet-A     10.2242 eV  121.27 nm  f=0.1473  <S**2>=0.000
       9 -> 16        -0.12036
      10 -> 15        -0.13337
      10 -> 16        -0.20102
      10 -> 17         0.14689
      11 -> 14        -0.15748
      11 -> 15        -0.21866
      11 -> 16        -0.23376
      12 -> 15         0.14989
      12 -> 18        -0.18037
      13 -> 21         0.41445
 SavETr:  write IOETrn=   770 NScale= 10 NData=  16 NLR=1 NState=   15 LETran=     280.
 The selected state is a singlet
 CISAX will form     1 AO SS matrices at one time.
 NMat=     1 NSing=     1 JSym2X= 0.
 Leave Link  914 at Tue Dec 15 17:08:37 2015, MaxMem=    33554432 cpu:         0.1
 (Enter /home/Applications/g09/g09/l1002.exe)
 Minotr:  Closed shell wavefunction.
          Computing CIS/TD-HF/TD-KS derivatives.
          Using Z-Vector for PSCF gradient.
          Skipping F1 and S1 gradient terms here.
          IDoAtm=111111111
          Direct CPHF calculation.
          Differentiating once with respect to electric field.
                with respect to dipole field.
          Differentiating once with respect to nuclear coordinates.
          Electric field/nuclear overlap derivatives assumed to be zero.
          Requested convergence is 1.0D-10 RMS, and 1.0D-09 maximum.
          NewPWx=T KeepS1=F KeepF1=F KeepIn=T MapXYZ=F SortEE=F KeepMc=T.
          MDV=      33495423 using IRadAn=       0.
 Keep J ints in memory in canonical form, NReq=871704.
 FoFCou: FMM=F IPFlag=           0 FMFlag=           0 FMFlg1=           0
         NFxFlg=           0 DoJE=F BraDBF=F KetDBF=F FulRan=T
         wScrn=  0.000000 ICntrl=     600 IOpCl=  2 I1Cent=           0 NGrid=           0
         NMat0=    1 NMatS0=     54 NMatT0=    0 NMatD0=    1 NMtDS0=    0 NMtDT0=    0
 Symmetry not used in FoFCou.
          Solving linear equations separately, MaxMat=       0.
          There are     1 degrees of freedom in the 1st order CPHF.  IDoFFX=0 NUNeed=     1.
 LinEq1:  Iter=  0 NonCon=     1 RMS=7.88D-03 Max=5.15D-02 NDo=     1
 AX will form     1 AO Fock derivatives at one time.
 LinEq1:  Iter=  1 NonCon=     1 RMS=6.81D-04 Max=2.71D-03 NDo=     1
 LinEq1:  Iter=  2 NonCon=     1 RMS=9.54D-05 Max=7.89D-04 NDo=     1
 LinEq1:  Iter=  3 NonCon=     1 RMS=1.14D-05 Max=3.49D-05 NDo=     1
 LinEq1:  Iter=  4 NonCon=     1 RMS=1.86D-06 Max=1.00D-05 NDo=     1
 LinEq1:  Iter=  5 NonCon=     1 RMS=2.05D-07 Max=7.01D-07 NDo=     1
 LinEq1:  Iter=  6 NonCon=     1 RMS=3.06D-08 Max=1.07D-07 NDo=     1
 LinEq1:  Iter=  7 NonCon=     1 RMS=3.57D-09 Max=1.15D-08 NDo=     1
 LinEq1:  Iter=  8 NonCon=     1 RMS=3.99D-10 Max=2.00D-09 NDo=     1
 LinEq1:  Iter=  9 NonCon=     0 RMS=4.78D-11 Max=2.49D-10 NDo=     1
 Linear equations converged to 1.000D-10 1.000D-09 after     9 iterations.
 End of Minotr F.D. properties file   721 does not exist.
 End of Minotr F.D. properties file   722 does not exist.
 End of Minotr F.D. properties file   788 does not exist.
 Leave Link 1002 at Tue Dec 15 17:08:37 2015, MaxMem=    33554432 cpu:         0.0
 (Enter /home/Applications/g09/g09/l601.exe)
 Copying SCF densities to generalized density rwf, IOpCl= 0 IROHF=0.

 **********************************************************************

            Population analysis using the SCF density.

 **********************************************************************

 Orbital symmetries:
       Occupied  (A) (A) (A) (A) (A) (A) (A) (A) (A) (A) (A) (A)
                 (A)
       Virtual   (A) (A) (A) (A) (A) (A) (A) (A) (A) (A) (A)
 The electronic state is 1-A.
 Alpha  occ. eigenvalues --   -1.92607  -1.18611  -0.92029  -0.79672  -0.77976
 Alpha  occ. eigenvalues --   -0.69036  -0.65057  -0.53612  -0.53228  -0.44401
 Alpha  occ. eigenvalues --   -0.43590  -0.40909  -0.28279
 Alpha virt. eigenvalues --    0.12418   0.18005   0.18944   0.26677   0.28131
 Alpha virt. eigenvalues --    0.30391   0.31541   0.31721   0.33450   0.40449
 Alpha virt. eigenvalues --    0.43844
     Molecular Orbital Coefficients:
                           1         2         3         4         5
                           O         O         O         O         O
     Eigenvalues --    -1.92607  -1.18611  -0.92029  -0.79672  -0.77976
   1 1   C  1S          0.07268   0.45738   0.30160   0.18036  -0.22743
   2        1PX         0.01963  -0.07517   0.26028   0.16726   0.32912
   3        1PY        -0.10750  -0.20876   0.03210   0.09196  -0.19545
   4        1PZ         0.00209   0.01237   0.00273   0.00445  -0.00773
   5 2   C  1S          0.22575   0.21981   0.48258  -0.16834   0.42805
   6        1PX        -0.10596  -0.28547   0.02042  -0.21238   0.16916
   7        1PY        -0.23593   0.12417   0.09609   0.43029  -0.11896
   8        1PZ        -0.00741  -0.00807  -0.02483  -0.00080  -0.02058
   9 3   O  1S          0.85644  -0.26374  -0.02622  -0.05475  -0.24702
  10        1PX        -0.02468  -0.08733   0.11493  -0.27837  -0.03645
  11        1PY         0.03763   0.11288   0.11005  -0.15260   0.14986
  12        1PZ        -0.00006  -0.00001  -0.00357  -0.00953  -0.00018
  13 4   C  1S          0.21808   0.27555  -0.46364   0.27937   0.33971
  14        1PX         0.24706  -0.05118   0.13033   0.40458  -0.06135
  15        1PY         0.02775   0.32782   0.05386  -0.33675  -0.10521
  16        1PZ         0.00783   0.01036  -0.02285   0.00301   0.01216
  17 5   C  1S          0.06887   0.48716  -0.27393  -0.26197  -0.14938
  18        1PX         0.09670   0.21462   0.12913   0.20724   0.03126
  19        1PY        -0.04451  -0.01251   0.25249   0.00548  -0.39256
  20        1PZ        -0.00185  -0.01339   0.00206   0.00563   0.00206
  21 6   H  1S          0.00239   0.13954  -0.15972  -0.22154  -0.12924
  22 7   H  1S          0.04530   0.03425  -0.26460   0.16382   0.22795
  23 8   H  1S          0.04208   0.02121   0.24907  -0.10102   0.26979
  24 9   H  1S          0.00252   0.12353   0.15060   0.12513  -0.20307
                           6         7         8         9        10
                           O         O         O         O         O
     Eigenvalues --    -0.69036  -0.65057  -0.53612  -0.53228  -0.44401
   1 1   C  1S          0.21354   0.00129  -0.15300  -0.07558   0.10183
   2        1PX         0.06161   0.01472   0.22790  -0.33154  -0.21123
   3        1PY         0.27389   0.01594  -0.10649   0.04232   0.30178
   4        1PZ        -0.01086   0.40001  -0.00038   0.00835   0.00605
   5 2   C  1S          0.11256   0.03150  -0.16676   0.00548  -0.13331
   6        1PX         0.33484  -0.00745   0.16594   0.53408   0.24110
   7        1PY         0.33084   0.00739   0.55072  -0.07995  -0.16188
   8        1PZ        -0.02477   0.54820  -0.00786   0.02148   0.12825
   9 3   O  1S          0.18860   0.00347   0.19452  -0.16138   0.03887
  10        1PX         0.10110   0.00393  -0.04348  -0.17081   0.10792
  11        1PY        -0.17914  -0.00207  -0.17905  -0.01081  -0.00382
  12        1PZ        -0.00676   0.21598  -0.00448  -0.00356   0.01813
  13 4   C  1S          0.10252  -0.02133  -0.03536   0.16533   0.09373
  14        1PX        -0.32187  -0.01690   0.01917   0.56021  -0.25225
  15        1PY        -0.25746  -0.02137   0.49391   0.05258   0.20398
  16        1PZ        -0.00774   0.56665   0.02847   0.00934  -0.07567
  17 5   C  1S          0.17273   0.00795   0.04900   0.14183  -0.09656
  18        1PX        -0.24618   0.00272   0.00106   0.04547   0.48924
  19        1PY         0.03565   0.00150  -0.31483   0.21896  -0.23570
  20        1PZ        -0.00794   0.41069   0.00757   0.00531  -0.06889
  21 6   H  1S          0.23615   0.00395  -0.02648   0.08571  -0.45789
  22 7   H  1S          0.27526   0.00843  -0.30525  -0.13292   0.03442
  23 8   H  1S          0.29795   0.00474   0.12437   0.30952   0.03430
  24 9   H  1S          0.26486   0.00900  -0.15972  -0.00610   0.28478
                          11        12        13        14        15
                           O         O         O         V         V
     Eigenvalues --    -0.43590  -0.40909  -0.28279   0.12418   0.18005
   1 1   C  1S         -0.01830  -0.03709  -0.02052   0.02646  -0.11376
   2        1PX         0.00807   0.25497  -0.00181   0.01257   0.04486
   3        1PY        -0.12615   0.50556   0.03673  -0.02412   0.10797
   4        1PZ         0.20014   0.00210   0.60435  -0.65591  -0.01275
   5 2   C  1S          0.03688   0.05013  -0.01524  -0.00482  -0.04183
   6        1PX        -0.01718  -0.12843   0.00621   0.01475  -0.03270
   7        1PY         0.07776  -0.19866  -0.01415  -0.00636   0.06480
   8        1PZ         0.67501   0.11174  -0.34334   0.21185   0.00503
   9 3   O  1S          0.01661  -0.09365   0.00013  -0.00073   0.01742
  10        1PX         0.00094  -0.10685   0.00992   0.00879  -0.04269
  11        1PY        -0.02778   0.14762   0.00785  -0.00936   0.12414
  12        1PZ         0.02016   0.00699  -0.22616  -0.00896  -0.00236
  13 4   C  1S         -0.01490   0.14026   0.01709  -0.00607  -0.18396
  14        1PX        -0.00258   0.22274  -0.00906   0.00430   0.13334
  15        1PY        -0.05375   0.24170   0.01679  -0.00857   0.50379
  16        1PZ        -0.63359  -0.08663  -0.40332  -0.23373   0.00036
  17 5   C  1S          0.01665  -0.05701   0.01695   0.02583  -0.10602
  18        1PX        -0.02664  -0.36361   0.02659   0.02111  -0.04982
  19        1PY         0.06588  -0.26547  -0.01808  -0.01510   0.24540
  20        1PZ        -0.23532  -0.03569   0.54597   0.68319   0.01261
  21 6   H  1S          0.04226   0.19695  -0.01529   0.00179  -0.03371
  22 7   H  1S          0.02132  -0.17409   0.00009   0.00013   0.74945
  23 8   H  1S          0.01668  -0.11650  -0.00235  -0.00919   0.05268
  24 9   H  1S         -0.10517   0.37409   0.01917   0.00188  -0.05935
                          16        17        18        19        20
                           V         V         V         V         V
     Eigenvalues --     0.18944   0.26677   0.28131   0.30391   0.31541
   1 1   C  1S         -0.12674  -0.00628   0.12919  -0.11953   0.51370
   2        1PX        -0.28962   0.12523   0.28292   0.52869   0.15243
   3        1PY         0.10981  -0.42478   0.38562  -0.16062   0.02095
   4        1PZ        -0.01894   0.02279  -0.00225   0.00336   0.02399
   5 2   C  1S         -0.15024  -0.29577  -0.17524  -0.32770  -0.24923
   6        1PX        -0.51343   0.04474  -0.02767   0.02092   0.05475
   7        1PY         0.01613  -0.15639  -0.13290  -0.19402  -0.25509
   8        1PZ         0.00642   0.00431  -0.00467  -0.01146   0.02536
   9 3   O  1S          0.01797  -0.02777  -0.00919  -0.00640  -0.05337
  10        1PX        -0.11597   0.01578   0.05848   0.04669   0.10457
  11        1PY         0.07715  -0.03439   0.00922   0.00916  -0.15311
  12        1PZ         0.00892   0.00073   0.03773   0.09573  -0.08577
  13 4   C  1S         -0.00307  -0.29659   0.05819   0.26997  -0.20489
  14        1PX        -0.09093   0.13463  -0.04926  -0.12529   0.22169
  15        1PY        -0.03794  -0.07592  -0.01620   0.05270  -0.05442
  16        1PZ        -0.00934  -0.00326  -0.00701  -0.01210   0.01538
  17 5   C  1S         -0.07727  -0.08629  -0.06896   0.18983   0.23563
  18        1PX        -0.10847   0.22648   0.47113  -0.04586  -0.29637
  19        1PY        -0.05388  -0.29578   0.08112   0.49481  -0.28097
  20        1PZ         0.01888  -0.01744  -0.00947  -0.00050  -0.01794
  21 6   H  1S         -0.08205   0.39172   0.48058  -0.25230  -0.30792
  22 7   H  1S         -0.08644   0.15545  -0.04512  -0.11762   0.11427
  23 8   H  1S          0.73215   0.18150   0.13172   0.17033   0.13095
  24 9   H  1S         -0.01721   0.46713  -0.45884   0.20578  -0.30738
                          21        22        23        24
                           V         V         V         V
     Eigenvalues --     0.31721   0.33450   0.40449   0.43844
   1 1   C  1S          0.06203  -0.42588   0.11263  -0.02353
   2        1PX        -0.04822   0.14371   0.06154  -0.05531
   3        1PY        -0.00221   0.25521   0.00554  -0.00147
   4        1PZ         0.04537  -0.01776   0.00279  -0.00151
   5 2   C  1S          0.01159   0.15953  -0.16735  -0.16512
   6        1PX         0.01583  -0.13626   0.20775  -0.01222
   7        1PY        -0.00054   0.06083   0.09073   0.26079
   8        1PZ        -0.22103  -0.00849   0.00637   0.00141
   9 3   O  1S         -0.00369  -0.01809   0.13192   0.01052
  10        1PX        -0.02400   0.00402  -0.55527   0.70300
  11        1PY        -0.03224  -0.07058   0.68634   0.56369
  12        1PZ         0.93902   0.01959  -0.00291   0.03119
  13 4   C  1S         -0.03824  -0.32616  -0.18288   0.13486
  14        1PX         0.03405   0.16158  -0.16884   0.23077
  15        1PY         0.00132  -0.21938  -0.14771  -0.10346
  16        1PZ        -0.21076  -0.01154  -0.00726   0.00180
  17 5   C  1S         -0.00582   0.62487   0.11246   0.04030
  18        1PX        -0.04465   0.26096  -0.00570  -0.01743
  19        1PY        -0.07340  -0.09209  -0.04605  -0.06132
  20        1PZ         0.04967  -0.03198  -0.00306  -0.00269
  21 6   H  1S         -0.01728  -0.14546  -0.05169  -0.00770
  22 7   H  1S          0.02416   0.07388  -0.03236   0.00038
  23 8   H  1S         -0.01549  -0.01177  -0.04376  -0.00232
  24 9   H  1S         -0.03296   0.05873  -0.05461   0.00201
     Density Matrix:
                           1         2         3         4         5
   1 1   C  1S          0.95385
   2        1PX        -0.05370   0.97130
   3        1PY         0.10512   0.03175   1.11029
   4        1PZ        -0.01742   0.00032   0.00566   1.13154
   5 2   C  1S          0.33631   0.47017  -0.24916   0.01881   1.21421
   6        1PX        -0.34730  -0.31543   0.25159  -0.01333   0.00950
   7        1PY         0.31096   0.40112  -0.13114   0.01648  -0.28611
   8        1PZ        -0.01715  -0.01562   0.01353   0.29664   0.02087
   9 3   O  1S          0.01971   0.03382  -0.01629   0.00298   0.00989
  10        1PX         0.01380  -0.03922   0.02010   0.00780   0.11982
  11        1PY         0.02078   0.06923  -0.04124   0.00101   0.38518
  12        1PZ         0.00577  -0.00226  -0.00175  -0.09227   0.01736
  13 4   C  1S         -0.01156  -0.03926   0.00730   0.00234  -0.00834
  14        1PX        -0.05393  -0.00255   0.01444  -0.00627   0.04200
  15        1PY         0.01858  -0.00800  -0.02036  -0.00159  -0.02615
  16        1PZ         0.01119  -0.00260  -0.00615  -0.28874  -0.00295
  17 5   C  1S          0.28448  -0.43736  -0.24802   0.04151  -0.01347
  18        1PX         0.36298  -0.32390  -0.27105   0.04193  -0.00514
  19        1PY         0.36341  -0.44393  -0.13800   0.01187   0.03733
  20        1PZ        -0.04081   0.02242   0.03574   0.89324  -0.00245
  21 6   H  1S         -0.00225  -0.00828  -0.00589  -0.00418   0.08081
  22 7   H  1S          0.08393  -0.05606  -0.05580   0.00463   0.05790
  23 8   H  1S          0.07413   0.08660  -0.06436   0.00315   0.54346
  24 9   H  1S          0.53796   0.00095   0.81689  -0.00430   0.05145
                           6         7         8         9        10
   6        1PX         1.33354
   7        1PY         0.04894   1.54144
   8        1PZ        -0.00019   0.00934   1.81055
   9 3   O  1S         -0.03166  -0.07091  -0.00103   1.95555
  10        1PX         0.11604  -0.16508  -0.01109   0.15106   0.32946
  11        1PY        -0.18203  -0.51156  -0.01570  -0.22080   0.02851
  12        1PZ        -0.00573  -0.01356   0.42597   0.00030   0.00441
  13 4   C  1S          0.01751  -0.05072   0.00365   0.00602  -0.38804
  14        1PX         0.00017  -0.03014   0.00156   0.07305  -0.55457
  15        1PY         0.00291   0.00792   0.00255   0.00737   0.02837
  16        1PZ         0.00264  -0.00089   0.00478   0.00106  -0.01980
  17 5   C  1S          0.00785   0.04765  -0.00990   0.02008  -0.02072
  18        1PX        -0.00062   0.01562  -0.00581   0.00567  -0.01183
  19        1PY        -0.00295  -0.00109   0.00027  -0.03567   0.05341
  20        1PZ        -0.00601  -0.00497  -0.26741  -0.00311   0.00192
  21 6   H  1S         -0.06850   0.03338   0.00216   0.00703  -0.04878
  22 7   H  1S         -0.03092  -0.04834  -0.00439   0.00687  -0.00451
  23 8   H  1S          0.74054   0.20469  -0.01560   0.01154   0.06406
  24 9   H  1S         -0.02397  -0.04287  -0.00086   0.00628   0.00937
                          11        12        13        14        15
  11        1PY         0.31786
  12        1PZ         0.00253   0.19752
  13 4   C  1S          0.00737  -0.01660   1.20084
  14        1PX         0.05796  -0.01779   0.27664   1.55902
  15        1PY         0.14657  -0.00347  -0.07802  -0.01632   1.30453
  16        1PZ        -0.00546   0.39758  -0.01782   0.00535  -0.00913
  17 5   C  1S         -0.00923  -0.00467   0.34917  -0.20863   0.40745
  18        1PX         0.00791  -0.00117   0.13352   0.02356   0.17389
  19        1PY        -0.05523  -0.00176  -0.54342   0.30859  -0.44313
  20        1PZ         0.00615  -0.08216  -0.02074   0.01295  -0.02005
  21 6   H  1S          0.00747  -0.00169   0.06056   0.04352   0.01526
  22 7   H  1S         -0.06808   0.00191   0.52110  -0.37865  -0.69185
  23 8   H  1S         -0.01915  -0.00390   0.05354   0.05906   0.01192
  24 9   H  1S          0.03898   0.00103   0.08679  -0.00657   0.06959
                          16        17        18        19        20
  16        1PZ         1.80046
  17 5   C  1S          0.01998   0.94720
  18        1PX         0.01115  -0.09125   1.10336
  19        1PY        -0.02192   0.07872  -0.01137   0.99812
  20        1PZ         0.34017   0.01608   0.00365  -0.00110   1.05702
  21 6   H  1S          0.00063   0.54869  -0.78363   0.20313   0.00502
  22 7   H  1S          0.00334   0.07216   0.04821  -0.08303  -0.00513
  23 8   H  1S          0.00505   0.07246   0.05557   0.03503  -0.00222
  24 9   H  1S         -0.00169   0.00706   0.01355   0.00294   0.00307
                          21        22        23        24
  21 6   H  1S          0.85014
  22 7   H  1S         -0.01206   0.74134
  23 8   H  1S          0.01300   0.01288   0.72468
  24 9   H  1S         -0.00692   0.00738  -0.01120   0.84618
    Full Mulliken population analysis:
                           1         2         3         4         5
   1 1   C  1S          0.95385
   2        1PX         0.00000   0.97130
   3        1PY         0.00000   0.00000   1.11029
   4        1PZ         0.00000   0.00000   0.00000   1.13154
   5 2   C  1S          0.00000   0.00000   0.00000   0.00000   1.21421
   6        1PX         0.00000   0.00000   0.00000   0.00000   0.00000
   7        1PY         0.00000   0.00000   0.00000   0.00000   0.00000
   8        1PZ         0.00000   0.00000   0.00000   0.00000   0.00000
   9 3   O  1S          0.00000   0.00000   0.00000   0.00000   0.00000
  10        1PX         0.00000   0.00000   0.00000   0.00000   0.00000
  11        1PY         0.00000   0.00000   0.00000   0.00000   0.00000
  12        1PZ         0.00000   0.00000   0.00000   0.00000   0.00000
  13 4   C  1S          0.00000   0.00000   0.00000   0.00000   0.00000
  14        1PX         0.00000   0.00000   0.00000   0.00000   0.00000
  15        1PY         0.00000   0.00000   0.00000   0.00000   0.00000
  16        1PZ         0.00000   0.00000   0.00000   0.00000   0.00000
  17 5   C  1S          0.00000   0.00000   0.00000   0.00000   0.00000
  18        1PX         0.00000   0.00000   0.00000   0.00000   0.00000
  19        1PY         0.00000   0.00000   0.00000   0.00000   0.00000
  20        1PZ         0.00000   0.00000   0.00000   0.00000   0.00000
  21 6   H  1S          0.00000   0.00000   0.00000   0.00000   0.00000
  22 7   H  1S          0.00000   0.00000   0.00000   0.00000   0.00000
  23 8   H  1S          0.00000   0.00000   0.00000   0.00000   0.00000
  24 9   H  1S          0.00000   0.00000   0.00000   0.00000   0.00000
                           6         7         8         9        10
   6        1PX         1.33354
   7        1PY         0.00000   1.54144
   8        1PZ         0.00000   0.00000   1.81055
   9 3   O  1S          0.00000   0.00000   0.00000   1.95555
  10        1PX         0.00000   0.00000   0.00000   0.00000   0.32946
  11        1PY         0.00000   0.00000   0.00000   0.00000   0.00000
  12        1PZ         0.00000   0.00000   0.00000   0.00000   0.00000
  13 4   C  1S          0.00000   0.00000   0.00000   0.00000   0.00000
  14        1PX         0.00000   0.00000   0.00000   0.00000   0.00000
  15        1PY         0.00000   0.00000   0.00000   0.00000   0.00000
  16        1PZ         0.00000   0.00000   0.00000   0.00000   0.00000
  17 5   C  1S          0.00000   0.00000   0.00000   0.00000   0.00000
  18        1PX         0.00000   0.00000   0.00000   0.00000   0.00000
  19        1PY         0.00000   0.00000   0.00000   0.00000   0.00000
  20        1PZ         0.00000   0.00000   0.00000   0.00000   0.00000
  21 6   H  1S          0.00000   0.00000   0.00000   0.00000   0.00000
  22 7   H  1S          0.00000   0.00000   0.00000   0.00000   0.00000
  23 8   H  1S          0.00000   0.00000   0.00000   0.00000   0.00000
  24 9   H  1S          0.00000   0.00000   0.00000   0.00000   0.00000
                          11        12        13        14        15
  11        1PY         0.31786
  12        1PZ         0.00000   0.19752
  13 4   C  1S          0.00000   0.00000   1.20084
  14        1PX         0.00000   0.00000   0.00000   1.55902
  15        1PY         0.00000   0.00000   0.00000   0.00000   1.30453
  16        1PZ         0.00000   0.00000   0.00000   0.00000   0.00000
  17 5   C  1S          0.00000   0.00000   0.00000   0.00000   0.00000
  18        1PX         0.00000   0.00000   0.00000   0.00000   0.00000
  19        1PY         0.00000   0.00000   0.00000   0.00000   0.00000
  20        1PZ         0.00000   0.00000   0.00000   0.00000   0.00000
  21 6   H  1S          0.00000   0.00000   0.00000   0.00000   0.00000
  22 7   H  1S          0.00000   0.00000   0.00000   0.00000   0.00000
  23 8   H  1S          0.00000   0.00000   0.00000   0.00000   0.00000
  24 9   H  1S          0.00000   0.00000   0.00000   0.00000   0.00000
                          16        17        18        19        20
  16        1PZ         1.80046
  17 5   C  1S          0.00000   0.94720
  18        1PX         0.00000   0.00000   1.10336
  19        1PY         0.00000   0.00000   0.00000   0.99812
  20        1PZ         0.00000   0.00000   0.00000   0.00000   1.05702
  21 6   H  1S          0.00000   0.00000   0.00000   0.00000   0.00000
  22 7   H  1S          0.00000   0.00000   0.00000   0.00000   0.00000
  23 8   H  1S          0.00000   0.00000   0.00000   0.00000   0.00000
  24 9   H  1S          0.00000   0.00000   0.00000   0.00000   0.00000
                          21        22        23        24
  21 6   H  1S          0.85014
  22 7   H  1S          0.00000   0.74134
  23 8   H  1S          0.00000   0.00000   0.72468
  24 9   H  1S          0.00000   0.00000   0.00000   0.84618
     Gross orbital populations:
                           1
   1 1   C  1S          0.95385
   2        1PX         0.97130
   3        1PY         1.11029
   4        1PZ         1.13154
   5 2   C  1S          1.21421
   6        1PX         1.33354
   7        1PY         1.54144
   8        1PZ         1.81055
   9 3   O  1S          1.95555
  10        1PX         0.32946
  11        1PY         0.31786
  12        1PZ         0.19752
  13 4   C  1S          1.20084
  14        1PX         1.55902
  15        1PY         1.30453
  16        1PZ         1.80046
  17 5   C  1S          0.94720
  18        1PX         1.10336
  19        1PY         0.99812
  20        1PZ         1.05702
  21 6   H  1S          0.85014
  22 7   H  1S          0.74134
  23 8   H  1S          0.72468
  24 9   H  1S          0.84618
          Condensed to atoms (all electrons):
               1          2          3          4          5          6
     1  C    4.166986   0.000000   0.000000   0.000000   0.000000   0.000000
     2  C    0.000000   5.899735   0.000000   0.000000   0.000000   0.000000
     3  O    0.000000   0.000000   2.800385   0.000000   0.000000   0.000000
     4  C    0.000000   0.000000   0.000000   5.864851   0.000000   0.000000
     5  C    0.000000   0.000000   0.000000   0.000000   4.105698   0.000000
     6  H    0.000000   0.000000   0.000000   0.000000   0.000000   0.850141
     7  H    0.000000   0.000000   0.000000   0.000000   0.000000   0.000000
     8  H    0.000000   0.000000   0.000000   0.000000   0.000000   0.000000
     9  H    0.000000   0.000000   0.000000   0.000000   0.000000   0.000000
               7          8          9
     1  C    0.000000   0.000000   0.000000
     2  C    0.000000   0.000000   0.000000
     3  O    0.000000   0.000000   0.000000
     4  C    0.000000   0.000000   0.000000
     5  C    0.000000   0.000000   0.000000
     6  H    0.000000   0.000000   0.000000
     7  H    0.741340   0.000000   0.000000
     8  H    0.000000   0.724682   0.000000
     9  H    0.000000   0.000000   0.846182
 Mulliken charges:
               1
     1  C   -0.166986
     2  C   -1.899735
     3  O    3.199615
     4  C   -1.864851
     5  C   -0.105698
     6  H    0.149859
     7  H    0.258660
     8  H    0.275318
     9  H    0.153818
 Sum of Mulliken charges =   0.00000
 Mulliken charges with hydrogens summed into heavy atoms:
               1
     1  C   -0.013169
     2  C   -1.624417
     3  O    3.199615
     4  C   -1.606191
     5  C    0.044161
 Charge=              0.0000 electrons
 Dipole moment (field-independent basis, Debye):
    X=              6.5134    Y=             -9.1203    Z=             -0.0018  Tot=             11.2073
 N-N= 1.037362548877D+02 E-N=-1.687817294894D+02  KE=-1.529202144478D+01
 Orbital energies and kinetic energies (alpha):
                                 1                 2
   1         O                -1.926072         -1.346137
   2         O                -1.186106         -1.058224
   3         O                -0.920286         -0.884569
   4         O                -0.796716         -0.559622
   5         O                -0.779765         -0.680198
   6         O                -0.690363         -0.587818
   7         O                -0.650574         -0.526691
   8         O                -0.536123         -0.336501
   9         O                -0.532284         -0.342540
  10         O                -0.444006         -0.418186
  11         O                -0.435902         -0.319154
  12         O                -0.409086         -0.342589
  13         O                -0.282795         -0.243783
  14         V                 0.124184         -0.151744
  15         V                 0.180052         -0.186556
  16         V                 0.189444         -0.179745
  17         V                 0.266768         -0.158776
  18         V                 0.281313         -0.157408
  19         V                 0.303906         -0.073222
  20         V                 0.315408         -0.085491
  21         V                 0.317208          0.469521
  22         V                 0.334495         -0.073545
  23         V                 0.404494          0.483928
  24         V                 0.438443          0.559420
 Total kinetic energy from orbitals=-1.529202144478D+01
 Leave Link  601 at Tue Dec 15 17:08:37 2015, MaxMem=    33554432 cpu:         0.0
 (Enter /home/Applications/g09/g09/l701.exe)
 Compute integral first derivatives.
 ... and contract with generalized density number  6.
 Leave Link  701 at Tue Dec 15 17:08:37 2015, MaxMem=    33554432 cpu:         0.0
 (Enter /home/Applications/g09/g09/l702.exe)
 L702 exits ... SP integral derivatives will be done elsewhere.
 Leave Link  702 at Tue Dec 15 17:08:37 2015, MaxMem=    33554432 cpu:         0.0
 (Enter /home/Applications/g09/g09/l703.exe)
 Compute integral first derivatives, UseDBF=F ICtDFT=           0.
 Integral derivatives from FoFJK, PRISM(SPDF).
 Calling FoFJK, ICntrl=  10005127 FMM=F ISym2X=0 I1Cent= 0 IOpClX= 0 NMat=1 NMatS=1 NMatT=0.
 FoFJK:  IHMeth= 8 ICntrl=10005127 DoSepK=F KAlg= 0 I1Cent=   0 FoldK=F
 IRaf=         0 NMat=   1 IRICut=       1 DoRegI=T DoRafI=F ISym2E= 0.
 FoFCou: FMM=F IPFlag=           0 FMFlag=      100000 FMFlg1=         800
         NFxFlg=           0 DoJE=F BraDBF=F KetDBF=F FulRan=T
         wScrn=  0.000000 ICntrl=10005127 IOpCl=  0 I1Cent=           0 NGrid=           0
         NMat0=    1 NMatS0=      1 NMatT0=    0 NMatD0=    1 NMtDS0=    0 NMtDT0=    0
 Symmetry not used in FoFCou.
 Leave Link  703 at Tue Dec 15 17:08:37 2015, MaxMem=    33554432 cpu:         0.0
 (Enter /home/Applications/g09/g09/l716.exe)
 Dipole        = 2.82933980D+00-3.93891855D+00-1.81579059D-02
 ***** Axes restored to original set *****
 -------------------------------------------------------------------
 Center     Atomic                   Forces (Hartrees/Bohr)
 Number     Number              X              Y              Z
 -------------------------------------------------------------------
      1        6           0.126000434   -0.053337864    0.005986844
      2        6          -0.187787612   -0.065555103    0.000996885
      3        8           0.104329118   -0.000027020    0.000973751
      4        6          -0.285560510    0.106276861   -0.006970302
      5        6           0.159373200    0.008744890    0.001455156
      6        1           0.057679343    0.039566981    0.005439505
      7        1          -0.000006762    0.052187896   -0.002979717
      8        1          -0.004114998   -0.060597717    0.001705219
      9        1           0.030087788   -0.027258923   -0.006607340
 -------------------------------------------------------------------
 Cartesian Forces:  Max     0.285560510 RMS     0.086197451
 Z-matrix is all fixed cartesians, so copy forces.
 Force constants in Cartesian coordinates: 
                1             2             3             4             5 
      1  0.839756D+00
      2 -0.271150D-01  0.748843D+00
      3 -0.176982D-01  0.712497D-02  0.183843D+00
      4 -0.444513D+00 -0.882302D-01  0.218843D-01  0.857134D+00
      5 -0.664583D-01 -0.199820D+00  0.574262D-02 -0.125066D-01  0.891382D+00
      6  0.206831D-01  0.491414D-02 -0.876164D-01 -0.543916D-02 -0.450110D-02
      7 -0.825714D-02  0.283908D-01 -0.132401D-02 -0.291420D+00  0.170721D+00
      8 -0.609459D-02  0.211353D-01 -0.104082D-02  0.215000D+00 -0.376662D+00
      9  0.148004D-02 -0.206931D-02  0.633703D-02 -0.122150D-01  0.145904D-01
     10  0.896890D-02 -0.179285D-03  0.618848D-03  0.228997D-01  0.170471D-01
     11  0.351738D-01 -0.735569D-03  0.304268D-02 -0.189550D-01 -0.141282D-01
     12  0.193014D-02 -0.379517D-03  0.618077D-04  0.117786D-02  0.109421D-02
     13 -0.164189D+00  0.604237D-02  0.986857D-04  0.951507D-02 -0.334040D-01
     14 -0.173777D-01 -0.395895D+00 -0.154695D-01 -0.142423D-03  0.468472D-03
     15  0.155984D-03 -0.150680D-01 -0.795629D-01 -0.651790D-03  0.272404D-02
     16  0.185383D-01 -0.309343D-03 -0.355533D-03  0.895953D-05 -0.562866D-05
     17 -0.223646D-01  0.368268D-03  0.563866D-03 -0.897096D-05  0.563584D-05
     18 -0.209506D-02 -0.615053D-03  0.178590D-01  0.241652D-03 -0.151813D-03
     19  0.299314D-04  0.169060D-04 -0.477712D-03  0.000000D+00  0.689938D-05
     20  0.240419D-04  0.135795D-04 -0.383714D-03  0.000000D+00  0.000000D+00
     21 -0.443305D-03 -0.250390D-03  0.707526D-02  0.881773D-05  0.148514D-03
     22  0.749304D-02 -0.263093D-01 -0.163009D-02 -0.148926D+00 -0.916708D-01
     23 -0.312488D-02  0.107946D-01 -0.363561D-03 -0.886222D-01 -0.323903D+00
     24  0.190067D-03  0.307918D-02  0.220027D-01 -0.682980D-02 -0.168694D-01
     25 -0.257827D+00  0.107693D+00 -0.111635D-02 -0.469926D-02  0.162709D-01
     26  0.107337D+00 -0.184704D+00  0.783416D-03 -0.653453D-02  0.226566D-01
     27 -0.420278D-02  0.326396D-02 -0.699991D-01  0.182310D-02 -0.277748D-02
                6             7             8             9            10 
      6  0.168325D+00
      7 -0.701729D-02  0.551255D+00
      8  0.112003D-01 -0.216253D-01  0.669375D+00
      9 -0.428962D-01  0.487715D-03 -0.224893D-01  0.528590D-01
     10 -0.941942D-03 -0.287045D+00 -0.193282D+00  0.108313D-01  0.974945D+00
     11  0.101121D-02 -0.149873D+00 -0.321825D+00  0.134459D-01 -0.274450D-01
     12 -0.233359D-02  0.609451D-02  0.106712D-01 -0.475001D-01  0.157914D-01
     13 -0.195608D-02 -0.734619D-02  0.603289D-02 -0.149339D-02 -0.562655D+00
     14 -0.319230D-03 -0.280859D-01  0.232368D-01 -0.246559D-02  0.106708D+00
     15  0.336180D-03  0.157833D-02 -0.115219D-02  0.804080D-02 -0.282609D-01
     16  0.150029D-03  0.106799D-04 -0.208020D-04 -0.299841D-03 -0.500113D-02
     17 -0.150220D-03 -0.149315D-04  0.290833D-04  0.419208D-03  0.601238D-02
     18  0.404649D-02 -0.271535D-03  0.528891D-03  0.762345D-02 -0.220474D-02
     19  0.181940D-03  0.202946D-01 -0.168996D-01 -0.106630D-02 -0.152119D+00
     20  0.471424D-05  0.988971D-02 -0.823947D-02 -0.623950D-03  0.911303D-01
     21  0.391639D-02 -0.864498D-03  0.913947D-03  0.492249D-02  0.438804D-02
     22 -0.533554D-02  0.225019D-01  0.168788D-01  0.209265D-02  0.000000D+00
     23 -0.118916D-01 -0.941117D-02 -0.706789D-02 -0.111105D-02  0.000000D+00
     24 -0.647029D-01  0.114175D-02  0.103699D-02  0.508850D-02  0.112128D-04
     25 -0.325035D-03  0.579302D-05  0.109528D-04  0.182863D-03  0.748492D-05
     26 -0.268253D-03  0.962142D-05  0.181910D-04  0.303710D-03  0.837439D-05
     27  0.209248D-01  0.175029D-03  0.330925D-03  0.552497D-02 -0.233135D-03
               11            12            13            14            15 
     11  0.823184D+00
     12 -0.141371D-01  0.195038D+00
     13  0.857943D-01 -0.275922D-01  0.968449D+00
     14 -0.216340D+00  0.729402D-02  0.382919D-01  0.798674D+00
     15  0.826976D-02 -0.106667D+00  0.245631D-01  0.517449D-02  0.211118D+00
     16 -0.193412D-01  0.181254D-03 -0.267032D+00 -0.125617D+00  0.151298D-02
     17  0.232922D-01 -0.243228D-04 -0.128969D+00 -0.222580D+00  0.370361D-03
     18 -0.322549D-02  0.256403D-01  0.478431D-02  0.340070D-02 -0.843053D-01
     19  0.946557D-01  0.289456D-02  0.681916D-02  0.265296D-01  0.511878D-03
     20 -0.293449D+00 -0.429806D-02  0.333227D-02  0.128349D-01 -0.372643D-03
     21 -0.846415D-02 -0.729412D-01 -0.722399D-03  0.322723D-02  0.290580D-01
     22 -0.135757D-04 -0.357998D-03  0.221168D-04 -0.138945D-04  0.370350D-03
     23 -0.329339D-05 -0.868484D-04 -0.239310D-04  0.150342D-04 -0.400729D-03
     24  0.188854D-03  0.498017D-02  0.311296D-03 -0.195566D-03  0.521271D-02
     25  0.422768D-05 -0.119461D-03  0.164176D-01 -0.293470D-03  0.220060D-03
     26  0.473007D-05 -0.133657D-03  0.229034D-01 -0.414800D-03  0.454885D-03
     27 -0.131681D-03  0.372090D-02  0.200669D-02 -0.646605D-03  0.167690D-01
               16            17            18            19            20 
     16  0.253499D+00
     17  0.145310D+00  0.198859D+00
     18 -0.141779D-02 -0.771240D-03  0.465248D-01
     19 -0.303633D-04  0.424509D-04  0.771985D-03  0.125006D+00
     20 -0.243888D-04  0.340979D-04  0.620084D-03 -0.104352D+00  0.288806D+00
     21  0.449702D-03 -0.628728D-03 -0.114336D-01 -0.281635D-02  0.505357D-02
     22  0.000000D+00  0.000000D+00  0.000000D+00  0.000000D+00  0.000000D+00
     23  0.000000D+00  0.000000D+00  0.000000D+00  0.000000D+00  0.000000D+00
     24  0.000000D+00  0.000000D+00  0.000000D+00  0.000000D+00  0.000000D+00
     25  0.708868D-05 -0.709773D-05  0.191192D-03  0.000000D+00  0.000000D+00
     26  0.793106D-05 -0.794118D-05  0.213912D-03  0.000000D+00  0.000000D+00
     27 -0.220794D-03  0.221075D-03 -0.595513D-02  0.000000D+00  0.000000D+00
               21            22            23            24            25 
     21  0.394027D-01
     22  0.000000D+00  0.118929D+00
     23  0.000000D+00  0.101161D+00  0.320129D+00
     24  0.000000D+00  0.545006D-02  0.132160D-01  0.357151D-01
     25  0.000000D+00 -0.195084D-04  0.211087D-04 -0.274583D-03  0.246108D+00
     26  0.000000D+00 -0.324008D-04  0.350586D-04 -0.456044D-03 -0.123700D+00
     27  0.000000D+00 -0.589423D-03  0.637772D-03 -0.829619D-02  0.124131D-02
               26            27 
     26  0.162413D+00
     27 -0.897969D-03  0.373107D-01
 Leave Link  716 at Tue Dec 15 17:08:37 2015, MaxMem=    33554432 cpu:         0.0
 (Enter /home/Applications/g09/g09/l103.exe)

 GradGradGradGradGradGradGradGradGradGradGradGradGradGradGradGradGradGrad
 Berny optimization.
 Search for a local minimum.
 Step number   1 out of a maximum of    2
 All quantities printed in internal units (Hartrees-Bohrs-Radians)
 Second derivative matrix not updated -- first step.
 ITU=  0
     Eigenvalues ---    0.01805   0.02754   0.06941   0.07504   0.07632
     Eigenvalues ---    0.08277   0.12941   0.13567   0.15285   0.24025
     Eigenvalues ---    0.25846   0.28321   0.38027   0.43149   0.62256
     Eigenvalues ---    0.80701   1.05375   1.30368   1.37433   1.47116
     Eigenvalues ---    1.66614
 Quadratic step=1.208D+00 exceeds max=3.000D-01 adjusted using Lamda=-6.819D-01.
 Angle between NR and scaled steps=  26.56 degrees.
 Angle between quadratic step and forces=  25.27 degrees.
 Linear search not attempted -- first point.
 TrRot= -0.003223 -0.000497  0.000204 -1.318824 -0.000243  1.319200
 Variable       Old X    -DE/DX   Delta X   Delta X   Delta X     New X
                                 (Linear)    (Quad)   (Total)
    X1        1.78189   0.12600   0.00000   0.07013   0.06744   1.84933
    Y1       -1.35616  -0.05334   0.00000  -0.05495  -0.05476  -1.41092
    Z1       -0.03550   0.00599   0.00000   0.00991   0.01056  -0.02494
    X2       -0.74487  -0.18779   0.00000  -0.09883  -0.10125  -0.84613
    Y2       -2.08345  -0.06556   0.00000  -0.06707  -0.06787  -2.15132
    Z2        0.08811   0.00100   0.00000  -0.00174  -0.00108   0.08703
    X3       -2.28076   0.10433   0.00000   0.05289   0.04968  -2.23108
    Y3       -0.02665  -0.00003   0.00000   0.00034  -0.00099  -0.02764
    Z3        0.01357   0.00097   0.00000   0.00109   0.00116   0.01474
    X4       -0.60567  -0.28556   0.00000  -0.14424  -0.14824  -0.75392
    Y4        1.99000   0.10628   0.00000   0.09008   0.08929   2.07929
    Z4       -0.06667  -0.00697   0.00000  -0.00233  -0.00266  -0.06934
    X5        1.82914   0.15937   0.00000   0.06732   0.06357   1.89271
    Y5        1.36165   0.00874   0.00000   0.02843   0.02866   1.39031
    Z5        0.06364   0.00146   0.00000  -0.00531  -0.00532   0.05833
    X6        3.38340   0.05768   0.00000   0.07886   0.07461   3.45801
    Y6        2.65091   0.03957   0.00000   0.04879   0.04961   2.70052
    Z6        0.05388   0.00544   0.00000   0.00651   0.00629   0.06017
    X7       -1.51261  -0.00001   0.00000  -0.02616  -0.03087  -1.54348
    Y7        3.85461   0.05219   0.00000   0.09108   0.09000   3.94461
    Z7       -0.02678  -0.00298   0.00000  -0.00225  -0.00306  -0.02985
    X8       -1.52604  -0.00411   0.00000  -0.02347  -0.02517  -1.55121
    Y8       -3.96199  -0.06060   0.00000  -0.08675  -0.08783  -4.04982
    Z8       -0.00080   0.00171   0.00000   0.00042   0.00148   0.00068
    X9        3.47364   0.03009   0.00000   0.05247   0.05023   3.52387
    Y9       -2.56978  -0.02726   0.00000  -0.04693  -0.04611  -2.61589
    Z9       -0.02478  -0.00661   0.00000  -0.00841  -0.00737  -0.03215
         Item               Value     Threshold  Converged?
 Maximum Force            0.285561     0.000450     NO 
 RMS     Force            0.086197     0.000300     NO 
 Maximum Displacement     0.148243     0.001800     NO 
 RMS     Displacement     0.057740     0.001200     NO 
 Predicted change in Energy=-9.152638D-02
 GradGradGradGradGradGradGradGradGradGradGradGradGradGradGradGradGradGrad

 Leave Link  103 at Tue Dec 15 17:08:37 2015, MaxMem=    33554432 cpu:         0.0
 (Enter /home/Applications/g09/g09/l9999.exe)
 1\1\GINC-DUSTIN-DESKTOP\Force\RAM1-FC\STO-3G\C4H4O1\DUSTIN\15-Dec-2015
 \0\\#P AM1(Input,print) CIS(Singlets,NStates=15) pop(full) force\\AM1-
 Reparam Input\\0,1\C,0.942933,-0.717648,-0.018785\C,-0.39417,-1.102515
 ,0.046626\O,-1.206924,-0.014102,0.007182\C,-0.320508,1.053065,-0.03528
 2\C,0.967938,0.720553,0.033679\H,1.790418,1.402801,0.028512\H,-0.80043
 9,2.039772,-0.014174\H,-0.807545,-2.096595,-0.000425\H,1.838171,-1.359
 869,-0.013112\\Version=ES64L-G09RevD.01\State=1-A\HF=2.1093019\RMSD=7.
 962e-09\RMSF=8.620e-02\Dipole=-4.8476246,0.1433915,-0.0233989\PG=C01 [
 X(C4H4O1)]\\@


 The best way to pay for a lovely moment is to enjoy it.
 -- Richard Bach
 Job cpu time:       0 days  0 hours  0 minutes  0.7 seconds.
 File lengths (MBytes):  RWF=      7 Int=      0 D2E=      0 Chk=      2 Scr=      1
 Normal termination of Gaussian 09 at Tue Dec 15 17:08:37 2015.
