 Entering Gaussian System, Link 0=g09
 Input=FuranDFT_76.com
 Output=FuranDFT_76.log
 Initial command:
 /home/Applications/g09/g09/l1.exe "/home/Applications/g09/scratch/Gau-6241.inp" -scrdir="/home/Applications/g09/scratch/"
 Entering Link 1 = /home/Applications/g09/g09/l1.exe PID=      6243.
  
 Copyright (c) 1988,1990,1992,1993,1995,1998,2003,2009,2013,
            Gaussian, Inc.  All Rights Reserved.
  
 This is part of the Gaussian(R) 09 program.  It is based on
 the Gaussian(R) 03 system (copyright 2003, Gaussian, Inc.),
 the Gaussian(R) 98 system (copyright 1998, Gaussian, Inc.),
 the Gaussian(R) 94 system (copyright 1995, Gaussian, Inc.),
 the Gaussian 92(TM) system (copyright 1992, Gaussian, Inc.),
 the Gaussian 90(TM) system (copyright 1990, Gaussian, Inc.),
 the Gaussian 88(TM) system (copyright 1988, Gaussian, Inc.),
 the Gaussian 86(TM) system (copyright 1986, Carnegie Mellon
 University), and the Gaussian 82(TM) system (copyright 1983,
 Carnegie Mellon University). Gaussian is a federally registered
 trademark of Gaussian, Inc.
  
 This software contains proprietary and confidential information,
 including trade secrets, belonging to Gaussian, Inc.
  
 This software is provided under written license and may be
 used, copied, transmitted, or stored only in accord with that
 written license.
  
 The following legend is applicable only to US Government
 contracts under FAR:
  
                    RESTRICTED RIGHTS LEGEND
  
 Use, reproduction and disclosure by the US Government is
 subject to restrictions as set forth in subparagraphs (a)
 and (c) of the Commercial Computer Software - Restricted
 Rights clause in FAR 52.227-19.
  
 Gaussian, Inc.
 340 Quinnipiac St., Bldg. 40, Wallingford CT 06492
  
  
 ---------------------------------------------------------------
 Warning -- This program may not be used in any manner that
 competes with the business of Gaussian, Inc. or will provide
 assistance to any competitor of Gaussian, Inc.  The licensee
 of this program is prohibited from giving any competitor of
 Gaussian, Inc. access to this program.  By using this program,
 the user acknowledges that Gaussian, Inc. is engaged in the
 business of creating and licensing software in the field of
 computational chemistry and represents and warrants to the
 licensee that it is not a competitor of Gaussian, Inc. and that
 it will not use this program in any manner prohibited above.
 ---------------------------------------------------------------
  

 Cite this work as:
 Gaussian 09, Revision D.01,
 M. J. Frisch, G. W. Trucks, H. B. Schlegel, G. E. Scuseria, 
 M. A. Robb, J. R. Cheeseman, G. Scalmani, V. Barone, B. Mennucci, 
 G. A. Petersson, H. Nakatsuji, M. Caricato, X. Li, H. P. Hratchian, 
 A. F. Izmaylov, J. Bloino, G. Zheng, J. L. Sonnenberg, M. Hada, 
 M. Ehara, K. Toyota, R. Fukuda, J. Hasegawa, M. Ishida, T. Nakajima, 
 Y. Honda, O. Kitao, H. Nakai, T. Vreven, J. A. Montgomery, Jr., 
 J. E. Peralta, F. Ogliaro, M. Bearpark, J. J. Heyd, E. Brothers, 
 K. N. Kudin, V. N. Staroverov, T. Keith, R. Kobayashi, J. Normand, 
 K. Raghavachari, A. Rendell, J. C. Burant, S. S. Iyengar, J. Tomasi, 
 M. Cossi, N. Rega, J. M. Millam, M. Klene, J. E. Knox, J. B. Cross, 
 V. Bakken, C. Adamo, J. Jaramillo, R. Gomperts, R. E. Stratmann, 
 O. Yazyev, A. J. Austin, R. Cammi, C. Pomelli, J. W. Ochterski, 
 R. L. Martin, K. Morokuma, V. G. Zakrzewski, G. A. Voth, 
 P. Salvador, J. J. Dannenberg, S. Dapprich, A. D. Daniels, 
 O. Farkas, J. B. Foresman, J. V. Ortiz, J. Cioslowski, 
 and D. J. Fox, Gaussian, Inc., Wallingford CT, 2013.
 
 ******************************************
 Gaussian 09:  ES64L-G09RevD.01 24-Apr-2013
                15-Dec-2015 
 ******************************************
 -------------------------------------------------------
 #P B3LYP/3-21G CIS(Singlets,NStates=15) pop(full) force
 -------------------------------------------------------
 1/10=7,30=1,38=1/1,3;
 2/12=2,17=6,18=5,40=1/2;
 3/5=5,11=9,16=1,25=1,30=1,71=1,74=-5/1,2,8,3;
 4//1;
 5/5=2,38=5/2;
 8/6=1,10=1,108=15/1;
 9/15=2,41=15,42=1,48=1/14;
 10/5=4/2;
 6/7=3,18=1/1;
 7/12=6,13=5,29=1/1,2,3,16;
 1/10=7,30=1/3;
 99//99;
 Leave Link    1 at Tue Dec 15 16:26:27 2015, MaxMem=           0 cpu:         0.0
 (Enter /home/Applications/g09/g09/l101.exe)
 --------
 FuranDFT
 --------
 Symbolic Z-matrix:
 Charge =  0 Multiplicity = 1
 6                     0.91092  -0.7173    0.0341 
 6                    -0.36884  -1.05804  -0.04128 
 8                    -1.13316   0.00124   0.04578 
 6                    -0.34275   1.08602  -0.04042 
 6                     0.99663   0.666    -0.02814 
 1                     1.82951   1.41273   0.01583 
 1                    -0.85048   2.03014   0.00382 
 1                    -0.79427  -2.08028   0.02945 
 1                     1.768    -1.39982  -0.02718 
 
 NAtoms=      9 NQM=        9 NQMF=       0 NMMI=      0 NMMIF=      0
                NMic=       0 NMicF=      0.
                    Isotopes and Nuclear Properties:
 (Nuclear quadrupole moments (NQMom) in fm**2, nuclear magnetic moments (NMagM)
  in nuclear magnetons)

  Atom         1           2           3           4           5           6           7           8           9
 IAtWgt=          12          12          16          12          12           1           1           1           1
 AtmWgt=  12.0000000  12.0000000  15.9949146  12.0000000  12.0000000   1.0078250   1.0078250   1.0078250   1.0078250
 NucSpn=           0           0           0           0           0           1           1           1           1
 AtZEff=   0.0000000   0.0000000   0.0000000   0.0000000   0.0000000   0.0000000   0.0000000   0.0000000   0.0000000
 NQMom=    0.0000000   0.0000000   0.0000000   0.0000000   0.0000000   0.0000000   0.0000000   0.0000000   0.0000000
 NMagM=    0.0000000   0.0000000   0.0000000   0.0000000   0.0000000   2.7928460   2.7928460   2.7928460   2.7928460
 AtZNuc=   6.0000000   6.0000000   8.0000000   6.0000000   6.0000000   1.0000000   1.0000000   1.0000000   1.0000000
 Leave Link  101 at Tue Dec 15 16:26:27 2015, MaxMem=    33554432 cpu:         0.0
 (Enter /home/Applications/g09/g09/l103.exe)

 GradGradGradGradGradGradGradGradGradGradGradGradGradGradGradGradGradGrad
 Berny optimization.
 Initialization pass.
 Trust Radius=3.00D-01 FncErr=1.00D-07 GrdErr=1.00D-07
 Number of steps in this run=      2 maximum allowed number of steps=      2.
 GradGradGradGradGradGradGradGradGradGradGradGradGradGradGradGradGradGrad

 Leave Link  103 at Tue Dec 15 16:26:27 2015, MaxMem=    33554432 cpu:         0.0
 (Enter /home/Applications/g09/g09/l202.exe)
                          Input orientation:                          
 ---------------------------------------------------------------------
 Center     Atomic      Atomic             Coordinates (Angstroms)
 Number     Number       Type             X           Y           Z
 ---------------------------------------------------------------------
      1          6           0        0.910916   -0.717304    0.034102
      2          6           0       -0.368838   -1.058036   -0.041280
      3          8           0       -1.133165    0.001242    0.045775
      4          6           0       -0.342753    1.086022   -0.040420
      5          6           0        0.996627    0.666001   -0.028135
      6          1           0        1.829514    1.412725    0.015832
      7          1           0       -0.850481    2.030136    0.003822
      8          1           0       -0.794274   -2.080281    0.029453
      9          1           0        1.767995   -1.399817   -0.027176
 ---------------------------------------------------------------------
                    Distance matrix (angstroms):
                    1          2          3          4          5
     1  C    0.000000
     2  C    1.326481   0.000000
     3  O    2.166728   1.309139   0.000000
     4  C    2.197550   2.144217   1.344964   0.000000
     5  C    1.387355   2.199311   2.232349   1.403748   0.000000
     6  H    2.319737   3.307669   3.281866   2.197417   1.119478
     7  H    3.263719   3.125831   2.048922   1.072892   2.296452
     8  H    2.182980   1.109497   2.108993   3.199098   3.279132
     9  H    1.097344   2.164040   3.222579   3.261108   2.205133
                    6          7          8          9
     6  H    0.000000
     7  H    2.750221   0.000000
     8  H    4.368700   4.110881   0.000000
     9  H    2.813543   4.315316   2.651690   0.000000
 Stoichiometry    C4H4O
 Framework group  C1[X(C4H4O)]
 Deg. of freedom    21
 Full point group                 C1      NOp   1
 Largest Abelian subgroup         C1      NOp   1
 Largest concise Abelian subgroup C1      NOp   1
                         Standard orientation:                         
 ---------------------------------------------------------------------
 Center     Atomic      Atomic             Coordinates (Angstroms)
 Number     Number       Type             X           Y           Z
 ---------------------------------------------------------------------
      1          6           0       -0.580822    0.998465   -0.038253
      2          6           0       -1.094022   -0.221458    0.050986
      3          8           0       -0.151048   -1.125212   -0.037750
      4          6           0        1.033067   -0.491337    0.032976
      5          6           0        0.801596    0.893040    0.012313
      6          1           0        1.655578    1.614624   -0.044816
      7          1           0        1.897739   -1.124745   -0.014281
      8          1           0       -2.165750   -0.502364   -0.007960
      9          1           0       -1.138090    1.941924    0.020924
 ---------------------------------------------------------------------
 Rotational constants (GHZ):      9.7925020      9.4534143      4.8181385
 Leave Link  202 at Tue Dec 15 16:26:27 2015, MaxMem=    33554432 cpu:         0.0
 (Enter /home/Applications/g09/g09/l301.exe)
 Standard basis: 3-21G (6D, 7F)
 Ernie: Thresh=  0.10000D-02 Tol=  0.10000D-05 Strict=F.
 There are    53 symmetry adapted cartesian basis functions of A   symmetry.
 There are    53 symmetry adapted basis functions of A   symmetry.
    53 basis functions,    87 primitive gaussians,    53 cartesian basis functions
    18 alpha electrons       18 beta electrons
       nuclear repulsion energy       162.8899062101 Hartrees.
 IExCor=  402 DFT=T Ex+Corr=B3LYP ExCW=0 ScaHFX=  0.200000
 ScaDFX=  0.800000  0.720000  1.000000  0.810000 ScalE2=  1.000000  1.000000
 IRadAn=      0 IRanWt=     -1 IRanGd=            0 ICorTp=0 IEmpDi=  4
 NAtoms=    9 NActive=    9 NUniq=    9 SFac= 1.00D+00 NAtFMM=   60 NAOKFM=F Big=F
 Integral buffers will be    131072 words long.
 Regular integral format.
 Two-electron integral symmetry is turned on.
 Leave Link  301 at Tue Dec 15 16:26:27 2015, MaxMem=    33554432 cpu:         0.0
 (Enter /home/Applications/g09/g09/l302.exe)
 NPDir=0 NMtPBC=     1 NCelOv=     1 NCel=       1 NClECP=     1 NCelD=      1
         NCelK=      1 NCelE2=     1 NClLst=     1 CellRange=     0.0.
 One-electron integrals computed using PRISM.
 NBasis=    53 RedAO= T EigKep=  3.22D-03  NBF=    53
 NBsUse=    53 1.00D-06 EigRej= -1.00D+00 NBFU=    53
 Precomputing XC quadrature grid using
 IXCGrd= 4 IRadAn=           0 IRanWt=          -1 IRanGd=           0 AccXCQ= 0.00D+00.
 Generated NRdTot=       0 NPtTot=           0 NUsed=           0 NTot=          32
 NSgBfM=    53    53    53    53    53 MxSgAt=     9 MxSgA2=     9.
 Leave Link  302 at Tue Dec 15 16:26:27 2015, MaxMem=    33554432 cpu:         0.1
 (Enter /home/Applications/g09/g09/l308.exe)
 Leave Link  308 at Tue Dec 15 16:26:27 2015, MaxMem=    33554432 cpu:         0.0
 (Enter /home/Applications/g09/g09/l303.exe)
 DipDrv:  MaxL=1.
 Leave Link  303 at Tue Dec 15 16:26:27 2015, MaxMem=    33554432 cpu:         0.0
 (Enter /home/Applications/g09/g09/l401.exe)
 ExpMin= 1.83D-01 ExpMax= 3.22D+02 ExpMxC= 3.22D+02 IAcc=1 IRadAn=         1 AccDes= 0.00D+00
 Harris functional with IExCor=  402 and IRadAn=       1 diagonalized for initial guess.
 HarFok:  IExCor=  402 AccDes= 0.00D+00 IRadAn=         1 IDoV= 1 UseB2=F ITyADJ=14
 ICtDFT=  3500011 ScaDFX=  1.000000  1.000000  1.000000  1.000000
 FoFCou: FMM=F IPFlag=           0 FMFlag=      100000 FMFlg1=           0
         NFxFlg=           0 DoJE=T BraDBF=F KetDBF=T FulRan=T
         wScrn=  0.000000 ICntrl=     500 IOpCl=  0 I1Cent=   200000004 NGrid=           0
         NMat0=    1 NMatS0=      1 NMatT0=    0 NMatD0=    1 NMtDS0=    0 NMtDT0=    0
 Petite list used in FoFCou.
 Harris En= -228.720296305812    
 JPrj=0 DoOrth=F DoCkMO=F.
 Leave Link  401 at Tue Dec 15 16:26:27 2015, MaxMem=    33554432 cpu:         0.2
 (Enter /home/Applications/g09/g09/l502.exe)
 Closed shell SCF:
 Using DIIS extrapolation, IDIIS=  1040.
 Integral symmetry usage will be decided dynamically.
 Keep R1 ints in memory in canonical form, NReq=1925595.
 IVT=       27707 IEndB=       27707 NGot=    33554432 MDV=    32502130
 LenX=    32502130 LenY=    32498880
 Requested convergence on RMS density matrix=1.00D-08 within 128 cycles.
 Requested convergence on MAX density matrix=1.00D-06.
 Requested convergence on             energy=1.00D-06.
 No special actions if energy rises.
 FoFCou: FMM=F IPFlag=           0 FMFlag=           0 FMFlg1=           0
         NFxFlg=           0 DoJE=F BraDBF=F KetDBF=F FulRan=T
         wScrn=  0.000000 ICntrl=     600 IOpCl=  0 I1Cent=           0 NGrid=           0
         NMat0=    1 NMatS0=   1431 NMatT0=    0 NMatD0=    1 NMtDS0=    0 NMtDT0=    0
 Symmetry not used in FoFCou.
 Integral accuracy reduced to 1.0D-05 until final iterations.

 Cycle   1  Pass 0  IDiag  1:
 E= -228.646991619416    
 DIIS: error= 3.38D-02 at cycle   1 NSaved=   1.
 NSaved= 1 IEnMin= 1 EnMin= -228.646991619416     IErMin= 1 ErrMin= 3.38D-02
 ErrMax= 3.38D-02  0.00D+00 EMaxC= 1.00D-01 BMatC= 8.07D-02 BMatP= 8.07D-02
 IDIUse=3 WtCom= 6.62D-01 WtEn= 3.38D-01
 Coeff-Com:  0.100D+01
 Coeff-En:   0.100D+01
 Coeff:      0.100D+01
 Gap=     0.226 Goal=   None    Shift=    0.000
 GapD=    0.226 DampG=1.000 DampE=0.500 DampFc=0.5000 IDamp=-1.
 Damping current iteration by 5.00D-01
 RMSDP=1.27D-02 MaxDP=1.32D-01              OVMax= 2.05D-01

 Cycle   2  Pass 0  IDiag  1:
 E= -228.679128781822     Delta-E=       -0.032137162405 Rises=F Damp=T
 DIIS: error= 1.40D-02 at cycle   2 NSaved=   2.
 NSaved= 2 IEnMin= 2 EnMin= -228.679128781822     IErMin= 2 ErrMin= 1.40D-02
 ErrMax= 1.40D-02  0.00D+00 EMaxC= 1.00D-01 BMatC= 9.07D-03 BMatP= 8.07D-02
 IDIUse=3 WtCom= 8.60D-01 WtEn= 1.40D-01
 Coeff-Com:  0.121D+00 0.879D+00
 Coeff-En:   0.215D+00 0.785D+00
 Coeff:      0.134D+00 0.866D+00
 Gap=     0.243 Goal=   None    Shift=    0.000
 RMSDP=4.23D-03 MaxDP=3.28D-02 DE=-3.21D-02 OVMax= 1.66D-01

 Cycle   3  Pass 0  IDiag  1:
 E= -228.722170280761     Delta-E=       -0.043041498939 Rises=F Damp=F
 DIIS: error= 1.82D-02 at cycle   3 NSaved=   3.
 NSaved= 3 IEnMin= 3 EnMin= -228.722170280761     IErMin= 2 ErrMin= 1.40D-02
 ErrMax= 1.82D-02  0.00D+00 EMaxC= 1.00D-01 BMatC= 1.03D-02 BMatP= 9.07D-03
 IDIUse=2 WtCom= 0.00D+00 WtEn= 1.00D+00
 Coeff-En:   0.000D+00 0.000D+00 0.100D+01
 Coeff:      0.000D+00 0.000D+00 0.100D+01
 Gap=     0.237 Goal=   None    Shift=    0.000
 RMSDP=5.50D-03 MaxDP=4.27D-02 DE=-4.30D-02 OVMax= 1.12D-01

 Cycle   4  Pass 0  IDiag  1:
 E= -228.696845829434     Delta-E=        0.025324451327 Rises=F Damp=F
 DIIS: error= 3.75D-02 at cycle   4 NSaved=   4.
 NSaved= 4 IEnMin= 3 EnMin= -228.722170280761     IErMin= 2 ErrMin= 1.40D-02
 ErrMax= 3.75D-02  0.00D+00 EMaxC= 1.00D-01 BMatC= 3.79D-02 BMatP= 9.07D-03
 IDIUse=2 WtCom= 0.00D+00 WtEn= 1.00D+00
 Coeff-En:   0.000D+00 0.000D+00 0.741D+00 0.259D+00
 Coeff:      0.000D+00 0.000D+00 0.741D+00 0.259D+00
 Gap=     0.247 Goal=   None    Shift=    0.000
 RMSDP=2.78D-03 MaxDP=2.10D-02 DE= 2.53D-02 OVMax= 6.26D-02

 Cycle   5  Pass 0  IDiag  1:
 E= -228.729882614162     Delta-E=       -0.033036784728 Rises=F Damp=F
 DIIS: error= 8.10D-03 at cycle   5 NSaved=   5.
 NSaved= 5 IEnMin= 5 EnMin= -228.729882614162     IErMin= 5 ErrMin= 8.10D-03
 ErrMax= 8.10D-03  0.00D+00 EMaxC= 1.00D-01 BMatC= 1.94D-03 BMatP= 9.07D-03
 IDIUse=3 WtCom= 9.19D-01 WtEn= 8.10D-02
 Coeff-Com: -0.897D-02 0.281D-01 0.229D+00-0.852D-01 0.837D+00
 Coeff-En:   0.000D+00 0.000D+00 0.192D+00 0.000D+00 0.808D+00
 Coeff:     -0.824D-02 0.259D-01 0.226D+00-0.783D-01 0.835D+00
 Gap=     0.250 Goal=   None    Shift=    0.000
 RMSDP=8.95D-04 MaxDP=6.91D-03 DE=-3.30D-02 OVMax= 1.83D-02

 Cycle   6  Pass 0  IDiag  1:
 E= -228.731665934961     Delta-E=       -0.001783320799 Rises=F Damp=F
 DIIS: error= 4.08D-04 at cycle   6 NSaved=   6.
 NSaved= 6 IEnMin= 6 EnMin= -228.731665934961     IErMin= 6 ErrMin= 4.08D-04
 ErrMax= 4.08D-04  0.00D+00 EMaxC= 1.00D-01 BMatC= 8.25D-06 BMatP= 1.94D-03
 IDIUse=3 WtCom= 9.96D-01 WtEn= 4.08D-03
 Coeff-Com: -0.604D-02 0.132D-01 0.459D-01-0.468D-01 0.320D+00 0.674D+00
 Coeff-En:   0.000D+00 0.000D+00 0.000D+00 0.000D+00 0.000D+00 0.100D+01
 Coeff:     -0.602D-02 0.131D-01 0.457D-01-0.466D-01 0.318D+00 0.675D+00
 Gap=     0.250 Goal=   None    Shift=    0.000
 RMSDP=6.50D-05 MaxDP=5.95D-04 DE=-1.78D-03 OVMax= 1.27D-03

 Cycle   7  Pass 0  IDiag  1:
 E= -228.731674322792     Delta-E=       -0.000008387832 Rises=F Damp=F
 DIIS: error= 9.90D-05 at cycle   7 NSaved=   7.
 NSaved= 7 IEnMin= 7 EnMin= -228.731674322792     IErMin= 7 ErrMin= 9.90D-05
 ErrMax= 9.90D-05  0.00D+00 EMaxC= 1.00D-01 BMatC= 2.62D-07 BMatP= 8.25D-06
 IDIUse=1 WtCom= 1.00D+00 WtEn= 0.00D+00
 Coeff-Com: -0.292D-02 0.591D-02 0.178D-01-0.225D-01 0.149D+00 0.407D+00
 Coeff-Com:  0.446D+00
 Coeff:     -0.292D-02 0.591D-02 0.178D-01-0.225D-01 0.149D+00 0.407D+00
 Coeff:      0.446D+00
 Gap=     0.250 Goal=   None    Shift=    0.000
 RMSDP=1.09D-05 MaxDP=1.18D-04 DE=-8.39D-06 OVMax= 3.28D-04

 Cycle   8  Pass 0  IDiag  1:
 E= -228.731674593675     Delta-E=       -0.000000270882 Rises=F Damp=F
 DIIS: error= 1.61D-05 at cycle   8 NSaved=   8.
 NSaved= 8 IEnMin= 8 EnMin= -228.731674593675     IErMin= 8 ErrMin= 1.61D-05
 ErrMax= 1.61D-05  0.00D+00 EMaxC= 1.00D-01 BMatC= 1.28D-08 BMatP= 2.62D-07
 IDIUse=1 WtCom= 1.00D+00 WtEn= 0.00D+00
 Coeff-Com: -0.213D-03 0.102D-03 0.157D-02-0.189D-02 0.176D-01 0.106D+00
 Coeff-Com:  0.193D+00 0.683D+00
 Coeff:     -0.213D-03 0.102D-03 0.157D-02-0.189D-02 0.176D-01 0.106D+00
 Coeff:      0.193D+00 0.683D+00
 Gap=     0.250 Goal=   None    Shift=    0.000
 RMSDP=2.01D-06 MaxDP=2.19D-05 DE=-2.71D-07 OVMax= 3.19D-05

 Initial convergence to 1.0D-05 achieved.  Increase integral accuracy.
 Cycle   9  Pass 1  IDiag  1:
 E= -228.731717745235     Delta-E=       -0.000043151560 Rises=F Damp=F
 DIIS: error= 1.38D-05 at cycle   1 NSaved=   1.
 NSaved= 1 IEnMin= 1 EnMin= -228.731717745235     IErMin= 1 ErrMin= 1.38D-05
 ErrMax= 1.38D-05  0.00D+00 EMaxC= 1.00D-01 BMatC= 1.02D-08 BMatP= 1.02D-08
 IDIUse=1 WtCom= 1.00D+00 WtEn= 0.00D+00
 Coeff-Com:  0.100D+01
 Coeff:      0.100D+01
 Gap=     0.250 Goal=   None    Shift=    0.000
 RMSDP=2.01D-06 MaxDP=2.19D-05 DE=-4.32D-05 OVMax= 4.93D-05

 Cycle  10  Pass 1  IDiag  1:
 E= -228.731717759738     Delta-E=       -0.000000014502 Rises=F Damp=F
 DIIS: error= 5.04D-06 at cycle   2 NSaved=   2.
 NSaved= 2 IEnMin= 2 EnMin= -228.731717759738     IErMin= 2 ErrMin= 5.04D-06
 ErrMax= 5.04D-06  0.00D+00 EMaxC= 1.00D-01 BMatC= 1.29D-09 BMatP= 1.02D-08
 IDIUse=1 WtCom= 1.00D+00 WtEn= 0.00D+00
 Coeff-Com:  0.133D+00 0.867D+00
 Coeff:      0.133D+00 0.867D+00
 Gap=     0.250 Goal=   None    Shift=    0.000
 RMSDP=1.28D-06 MaxDP=1.44D-05 DE=-1.45D-08 OVMax= 2.27D-05

 Cycle  11  Pass 1  IDiag  1:
 E= -228.731717759714     Delta-E=        0.000000000024 Rises=F Damp=F
 DIIS: error= 4.37D-06 at cycle   3 NSaved=   3.
 NSaved= 3 IEnMin= 2 EnMin= -228.731717759738     IErMin= 3 ErrMin= 4.37D-06
 ErrMax= 4.37D-06  0.00D+00 EMaxC= 1.00D-01 BMatC= 1.40D-09 BMatP= 1.29D-09
 IDIUse=1 WtCom= 1.00D+00 WtEn= 0.00D+00
 Coeff-Com: -0.224D-01 0.518D+00 0.505D+00
 Coeff:     -0.224D-01 0.518D+00 0.505D+00
 Gap=     0.250 Goal=   None    Shift=    0.000
 RMSDP=6.36D-07 MaxDP=7.91D-06 DE= 2.39D-11 OVMax= 1.24D-05

 Cycle  12  Pass 1  IDiag  1:
 E= -228.731717760922     Delta-E=       -0.000000001208 Rises=F Damp=F
 DIIS: error= 6.62D-07 at cycle   4 NSaved=   4.
 NSaved= 4 IEnMin= 4 EnMin= -228.731717760922     IErMin= 4 ErrMin= 6.62D-07
 ErrMax= 6.62D-07  0.00D+00 EMaxC= 1.00D-01 BMatC= 2.12D-11 BMatP= 1.29D-09
 IDIUse=1 WtCom= 1.00D+00 WtEn= 0.00D+00
 Coeff-Com: -0.144D-01 0.239D+00 0.252D+00 0.524D+00
 Coeff:     -0.144D-01 0.239D+00 0.252D+00 0.524D+00
 Gap=     0.250 Goal=   None    Shift=    0.000
 RMSDP=1.07D-07 MaxDP=1.34D-06 DE=-1.21D-09 OVMax= 1.77D-06

 Cycle  13  Pass 1  IDiag  1:
 E= -228.731717760939     Delta-E=       -0.000000000017 Rises=F Damp=F
 DIIS: error= 2.33D-07 at cycle   5 NSaved=   5.
 NSaved= 5 IEnMin= 5 EnMin= -228.731717760939     IErMin= 5 ErrMin= 2.33D-07
 ErrMax= 2.33D-07  0.00D+00 EMaxC= 1.00D-01 BMatC= 2.66D-12 BMatP= 2.12D-11
 IDIUse=1 WtCom= 1.00D+00 WtEn= 0.00D+00
 Coeff-Com: -0.442D-02 0.567D-01 0.660D-01 0.287D+00 0.594D+00
 Coeff:     -0.442D-02 0.567D-01 0.660D-01 0.287D+00 0.594D+00
 Gap=     0.250 Goal=   None    Shift=    0.000
 RMSDP=4.03D-08 MaxDP=5.05D-07 DE=-1.69D-11 OVMax= 7.50D-07

 Cycle  14  Pass 1  IDiag  1:
 E= -228.731717760939     Delta-E=        0.000000000000 Rises=F Damp=F
 DIIS: error= 7.30D-08 at cycle   6 NSaved=   6.
 NSaved= 6 IEnMin= 6 EnMin= -228.731717760939     IErMin= 6 ErrMin= 7.30D-08
 ErrMax= 7.30D-08  0.00D+00 EMaxC= 1.00D-01 BMatC= 2.94D-13 BMatP= 2.66D-12
 IDIUse=1 WtCom= 1.00D+00 WtEn= 0.00D+00
 Coeff-Com: -0.803D-03 0.674D-02 0.113D-01 0.104D+00 0.324D+00 0.555D+00
 Coeff:     -0.803D-03 0.674D-02 0.113D-01 0.104D+00 0.324D+00 0.555D+00
 Gap=     0.250 Goal=   None    Shift=    0.000
 RMSDP=1.37D-08 MaxDP=1.23D-07 DE=-4.55D-13 OVMax= 2.73D-07

 Cycle  15  Pass 1  IDiag  1:
 E= -228.731717760939     Delta-E=        0.000000000000 Rises=F Damp=F
 DIIS: error= 1.97D-08 at cycle   7 NSaved=   7.
 NSaved= 7 IEnMin= 6 EnMin= -228.731717760939     IErMin= 7 ErrMin= 1.97D-08
 ErrMax= 1.97D-08  0.00D+00 EMaxC= 1.00D-01 BMatC= 2.80D-14 BMatP= 2.94D-13
 IDIUse=1 WtCom= 1.00D+00 WtEn= 0.00D+00
 Coeff-Com: -0.232D-03-0.130D-03 0.215D-02 0.371D-01 0.134D+00 0.309D+00
 Coeff-Com:  0.518D+00
 Coeff:     -0.232D-03-0.130D-03 0.215D-02 0.371D-01 0.134D+00 0.309D+00
 Coeff:      0.518D+00
 Gap=     0.250 Goal=   None    Shift=    0.000
 RMSDP=4.14D-09 MaxDP=4.87D-08 DE= 3.41D-13 OVMax= 8.85D-08

 SCF Done:  E(RB3LYP) =  -228.731717761     A.U. after   15 cycles
            NFock= 15  Conv=0.41D-08     -V/T= 2.0074
 KE= 2.270550848541D+02 PE=-8.583485605451D+02 EE= 2.396718517201D+02
 Leave Link  502 at Tue Dec 15 16:26:32 2015, MaxMem=    33554432 cpu:         4.2
 (Enter /home/Applications/g09/g09/l801.exe)
 DoSCS=F DFT=T ScalE2(SS,OS)=  1.000000  1.000000
 ExpMin= 1.83D-01 ExpMax= 3.22D+02 ExpMxC= 3.22D+02 IAcc=3 IRadAn=         5 AccDes= 0.00D+00
 HarFok:  IExCor=  205 AccDes= 0.00D+00 IRadAn=         5 IDoV=-2 UseB2=F ITyADJ=14
 ICtDFT= 12500011 ScaDFX=  1.000000  1.000000  1.000000  1.000000
 Largest valence mixing into a core orbital is  1.73D-04
 Largest core mixing into a valence orbital is  4.27D-05
 Range of M.O.s used for correlation:     6    53
 NBasis=    53 NAE=    18 NBE=    18 NFC=     5 NFV=     0
 NROrb=     48 NOA=    13 NOB=    13 NVA=    35 NVB=    35
 Leave Link  801 at Tue Dec 15 16:26:32 2015, MaxMem=    33554432 cpu:         0.4
 (Enter /home/Applications/g09/g09/l914.exe)
 RHF ground state
 MDV=    33554432 DFT=T DoStab=F Mixed=T DoRPA=F DoScal=F NonHer=F
 Keep R1, R2, and R3 ints in memory in canonical form, NReq=5596273.
 FoFCou: FMM=F IPFlag=           0 FMFlag=           0 FMFlg1=           0
         NFxFlg=           0 DoJE=F BraDBF=F KetDBF=F FulRan=T
         wScrn=  0.000000 ICntrl=     600 IOpCl=  0 I1Cent=           0 NGrid=           0
         NMat0=    1 NMatS0=   1431 NMatT0=    0 NMatD0=    1 NMtDS0=    0 NMtDT0=    0
 Symmetry not used in FoFCou.
 Making orbital integer symmetry assigments:
 Orbital symmetries:
       Occupied  (A) (A) (A) (A) (A) (A) (A) (A) (A) (A) (A) (A)
                 (A) (A) (A) (A) (A) (A)
       Virtual   (A) (A) (A) (A) (A) (A) (A) (A) (A) (A) (A) (A)
                 (A) (A) (A) (A) (A) (A) (A) (A) (A) (A) (A) (A)
                 (A) (A) (A) (A) (A) (A) (A) (A) (A) (A) (A)
    60 initial guesses have been made.
 Convergence on wavefunction:    0.000001000000000
 Davidson Disk Diagonalization:  ConvIn= 1.00D-06 SkipCon=T Conv= 1.00D-06.
 Max sub-space:   240 roots to seek:    60 dimension of matrix:          910
 Iteration     1 Dimension    60 NMult     0 NNew     60
 CISAX will form    60 AO SS matrices at one time.
 NMat=    60 NSing=    60 JSym2X= 0.
 New state      1 was old state      3
 New state      2 was old state      1
 New state      3 was old state      4
 New state      4 was old state      7
 New state      5 was old state      6
 New state      6 was old state      8
 New state      7 was old state      9
 New state      8 was old state     11
 New state      9 was old state     10
 New state     10 was old state     12
 New state     11 was old state      5
 New state     12 was old state     13
 New state     13 was old state     14
 New state     14 was old state     16
 New state     15 was old state      2
 Excitation Energies [eV] at current iteration:
 Root      1 :     7.463337995851105
 Root      2 :     8.170226040334432
 Root      3 :     8.423914566117768
 Root      4 :     8.810943289575961
 Root      5 :     9.236311538524260
 Root      6 :     9.699280262215385
 Root      7 :     9.868048744847899
 Root      8 :     9.955900351883137
 Root      9 :    10.107529046196060
 Root     10 :    10.325128221486190
 Root     11 :    10.488052926292360
 Root     12 :    10.637766482571840
 Root     13 :    10.836887620214890
 Root     14 :    11.129743677488060
 Root     15 :    11.235546422799850
 Root     16 :    11.354986322931560
 Root     17 :    11.412882225340090
 Root     18 :    11.562203966663040
 Root     19 :    11.679457436433360
 Root     20 :    11.746226903177020
 Root     21 :    11.967026386818130
 Root     22 :    12.188987640821430
 Root     23 :    12.704281847016500
 Root     24 :    12.777439039790530
 Root     25 :    12.971749602659180
 Root     26 :    13.407975127351210
 Root     27 :    13.437344005956510
 Root     28 :    13.541051206334020
 Root     29 :    13.698683936066400
 Root     30 :    13.817612158122320
 Root     31 :    13.990115475847180
 Root     32 :    14.080106535073350
 Root     33 :    14.202049354032340
 Root     34 :    14.251135174830140
 Root     35 :    14.525441489598800
 Root     36 :    14.705668987522970
 Root     37 :    14.775862297129320
 Root     38 :    14.896209511867470
 Root     39 :    14.938419267611110
 Root     40 :    14.991911547371780
 Root     41 :    15.105056776183290
 Root     42 :    15.191273434479030
 Root     43 :    15.402518519808660
 Root     44 :    15.530070937254400
 Root     45 :    15.575553188217330
 Root     46 :    15.649505512040490
 Root     47 :    15.714072715507460
 Root     48 :    15.785019926004790
 Root     49 :    15.816042416708340
 Root     50 :    15.915252426920760
 Root     51 :    16.213377907124830
 Root     52 :    16.292972854587080
 Root     53 :    16.345095175202680
 Root     54 :    16.421173175541640
 Root     55 :    16.603659607394670
 Root     56 :    16.658771763156120
 Root     57 :    16.764831230542520
 Root     58 :    17.621798807773520
 Root     59 :    17.765522759021580
 Root     60 :    18.127687955466750
 Iteration     2 Dimension   120 NMult    60 NNew     60
 CISAX will form    60 AO SS matrices at one time.
 NMat=    60 NSing=    60 JSym2X= 0.
 New state      1 was old state      2
 Root      1 not converged, maximum delta is    0.364620509168943
 New state      2 was old state      1
 Root      2 not converged, maximum delta is    0.493568446089522
 Root      3 not converged, maximum delta is    0.050993543267682
 Root      4 not converged, maximum delta is    0.046682047932782
 Root      5 not converged, maximum delta is    0.037967814404562
 Root      6 not converged, maximum delta is    0.313709716069507
 New state      7 was old state     11
 Root      7 not converged, maximum delta is    0.565590940296067
 New state      8 was old state      7
 Root      8 not converged, maximum delta is    0.141073174142157
 New state      9 was old state      8
 Root      9 not converged, maximum delta is    0.204739240553791
 New state     10 was old state      9
 Root     10 not converged, maximum delta is    0.216222853027588
 New state     11 was old state     10
 Root     11 not converged, maximum delta is    0.422724593960886
 Root     12 not converged, maximum delta is    0.626992093542625
 New state     13 was old state     14
 Root     13 not converged, maximum delta is    0.470485366900324
 New state     14 was old state     13
 Root     14 not converged, maximum delta is    0.253903777600057
 Root     15 not converged, maximum delta is    0.172978181872691
 Excitation Energies [eV] at current iteration:
 Root      1 :     7.260803368906313   Change is   -0.909422671428119
 Root      2 :     7.380203095380216   Change is   -0.083134900470889
 Root      3 :     8.409801369708665   Change is   -0.014113196409104
 Root      4 :     8.768587444421790   Change is   -0.042355845154171
 Root      5 :     9.206320921173781   Change is   -0.029990617350479
 Root      6 :     9.647062413155153   Change is   -0.052217849060232
 Root      7 :     9.674936940360636   Change is   -0.813115985931720
 Root      8 :     9.854084784390738   Change is   -0.013963960457161
 Root      9 :     9.954360041770522   Change is   -0.001540310112617
 Root     10 :    10.073079067669810   Change is   -0.034449978526244
 Root     11 :    10.145666514733770   Change is   -0.179461706752423
 Root     12 :    10.360250514547530   Change is   -0.277515968024311
 Root     13 :    10.694586443139940   Change is   -0.435157234348114
 Root     14 :    10.754361407677350   Change is   -0.082526212537536
 Root     15 :    11.186049651763910   Change is   -0.049496771035937
 Root     16 :    11.344166894632340   Change is   -0.010819428299219
 Root     17 :    11.376787044170130   Change is   -0.036095181169960
 Root     18 :    11.532696708840160   Change is   -0.029507257822881
 Root     19 :    11.629017665228610   Change is   -0.050439771204750
 Root     20 :    11.702046893429170   Change is   -0.044180009747851
 Root     21 :    11.925935686412760   Change is   -0.041090700405374
 Root     22 :    12.117029733398770   Change is   -0.071957907422655
 Root     23 :    12.651514672487070   Change is   -0.125924367303460
 Root     24 :    12.681372154114480   Change is   -0.022909692902020
 Root     25 :    12.938184131373890   Change is   -0.033565471285285
 Root     26 :    13.142346738786480   Change is   -1.059702615245861
 Root     27 :    13.376027071404500   Change is   -0.031948055946714
 Root     28 :    13.406302097971550   Change is   -0.031041907984958
 Root     29 :    13.470059513807470   Change is   -0.070991692526554
 Root     30 :    13.706113706235920   Change is    0.007429770169524
 Root     31 :    13.798527691919940   Change is   -0.019084466202374
 Root     32 :    13.953581947047860   Change is   -0.036533528799316
 Root     33 :    14.028131866406000   Change is   -0.051974668667346
 Root     34 :    14.062586711356920   Change is   -0.462854778241880
 Root     35 :    14.213181824164590   Change is   -0.037953350665548
 Root     36 :    14.468280565978720   Change is   -0.307581731150609
 Root     37 :    14.655713609245350   Change is   -0.049955378277622
 Root     38 :    14.816832734940200   Change is   -0.079376776927270
 Root     39 :    14.857941523148070   Change is   -0.133970024223714
 Root     40 :    14.900911579455890   Change is   -0.037507688155219
 Root     41 :    14.999262908311770   Change is   -0.105793867871523
 Root     42 :    15.059290070649840   Change is   -0.343228449158822
 Root     43 :    15.105817418054840   Change is   -0.085456016424188
 Root     44 :    15.302359246794080   Change is   -0.227711690460318
 Root     45 :    15.379199444515450   Change is   -0.405820481489333
 Root     46 :    15.480513812965790   Change is   -0.095039375251543
 Root     47 :    15.563320238203910   Change is   -0.150752477303545
 Root     48 :    15.613952445395740   Change is   -0.035553066644751
 Root     49 :    15.693462829421140   Change is   -0.221789597499621
 Root     50 :    15.761031969069900   Change is   -0.055010447638441
 Root     51 :    16.086328259547990   Change is   -0.127049647576834
 Root     52 :    16.210556630048000   Change is   -0.082416224539084
 Root     53 :    16.258496565150150   Change is   -0.086598610052525
 Root     54 :    16.339346602725160   Change is   -0.264313004669507
 Root     55 :    16.382688114272200   Change is   -0.038485061269436
 Root     56 :    16.544786765976290   Change is   -0.113984997179823
 Root     57 :    16.574760221040230   Change is   -0.190071009502280
 Root     58 :    16.642945455754060   Change is   -0.978853352019452
 Root     59 :    16.716492703149670   Change is   -1.411195252317077
 Root     60 :    16.870720823187660   Change is   -0.894801935833909
 Iteration     3 Dimension   135 NMult   120 NNew     15
 CISAX will form    15 AO SS matrices at one time.
 NMat=    15 NSing=    15 JSym2X= 0.
 Root      1 not converged, maximum delta is    0.002182281517806
 Root      2 not converged, maximum delta is    0.002683646215519
 Root      3 not converged, maximum delta is    0.000266056420504
 Root      4 not converged, maximum delta is    0.000375670247987
 Root      5 not converged, maximum delta is    0.000444708901836
 Root      6 not converged, maximum delta is    0.015951766015729
 Root      7 not converged, maximum delta is    0.014219474488532
 Root      8 not converged, maximum delta is    0.003673419473874
 Root      9 not converged, maximum delta is    0.004707528678466
 Root     10 not converged, maximum delta is    0.005730804906569
 Root     11 not converged, maximum delta is    0.007332137198770
 Root     12 not converged, maximum delta is    0.001122498173584
 Root     13 not converged, maximum delta is    0.000671770663045
 Root     14 not converged, maximum delta is    0.000954338808083
 Root     15 not converged, maximum delta is    0.000279521334254
 Excitation Energies [eV] at current iteration:
 Root      1 :     7.259131407523638   Change is   -0.001671961382675
 Root      2 :     7.378867794193161   Change is   -0.001335301187055
 Root      3 :     8.409758520674345   Change is   -0.000042849034320
 Root      4 :     8.768483321874776   Change is   -0.000104122547015
 Root      5 :     9.206235689586780   Change is   -0.000085231587001
 Root      6 :     9.644351273716307   Change is   -0.002711139438845
 Root      7 :     9.674133335142358   Change is   -0.000803605218278
 Root      8 :     9.853623431522195   Change is   -0.000461352868543
 Root      9 :     9.953495887289238   Change is   -0.000864154481284
 Root     10 :    10.072363657849090   Change is   -0.000715409820728
 Root     11 :    10.144437812808530   Change is   -0.001228701925237
 Root     12 :    10.360077748047650   Change is   -0.000172766499880
 Root     13 :    10.694398241792300   Change is   -0.000188201347644
 Root     14 :    10.754199029787210   Change is   -0.000162377890140
 Root     15 :    11.186009747350790   Change is   -0.000039904413125
 Iteration     4 Dimension   150 NMult   135 NNew     15
 CISAX will form    15 AO SS matrices at one time.
 NMat=    15 NSing=    15 JSym2X= 0.
 Root      1 not converged, maximum delta is    0.000075241322683
 Root      2 not converged, maximum delta is    0.000058586827035
 Root      3 not converged, maximum delta is    0.000009287325111
 Root      4 not converged, maximum delta is    0.000010920669636
 Root      5 not converged, maximum delta is    0.000009058954592
 Root      6 not converged, maximum delta is    0.000073925965589
 Root      7 not converged, maximum delta is    0.000038661965545
 Root      8 not converged, maximum delta is    0.000029525624821
 Root      9 not converged, maximum delta is    0.000044426699774
 Root     10 not converged, maximum delta is    0.000035298548904
 Root     11 not converged, maximum delta is    0.000044265542791
 Root     12 not converged, maximum delta is    0.000023766383634
 Root     13 not converged, maximum delta is    0.000026566984155
 Root     14 not converged, maximum delta is    0.000022159262185
 Root     15 not converged, maximum delta is    0.000014237930251
 Excitation Energies [eV] at current iteration:
 Root      1 :     7.259129233159176   Change is   -0.000002174364462
 Root      2 :     7.378866043903736   Change is   -0.000001750289424
 Root      3 :     8.409758463785703   Change is   -0.000000056888641
 Root      4 :     8.768483210796800   Change is   -0.000000111077975
 Root      5 :     9.206235590327715   Change is   -0.000000099259065
 Root      6 :     9.644347409834493   Change is   -0.000003863881813
 Root      7 :     9.674132290294882   Change is   -0.000001044847476
 Root      8 :     9.853622764397507   Change is   -0.000000667124688
 Root      9 :     9.953494598247518   Change is   -0.000001289041719
 Root     10 :    10.072362654856730   Change is   -0.000001002992359
 Root     11 :    10.144435942615970   Change is   -0.000001870192567
 Root     12 :    10.360077487310090   Change is   -0.000000260737564
 Root     13 :    10.694397934836630   Change is   -0.000000306955671
 Root     14 :    10.754198773764020   Change is   -0.000000256023188
 Root     15 :    11.186009699325720   Change is   -0.000000048025068
 Iteration     5 Dimension   165 NMult   150 NNew     15
 CISAX will form    15 AO SS matrices at one time.
 NMat=    15 NSing=    15 JSym2X= 0.
 Root      1 not converged, maximum delta is    0.000001554791736
 Root      2 not converged, maximum delta is    0.000001858019385
 Root      3 has converged.
 Root      4 has converged.
 Root      5 has converged.
 Root      6 not converged, maximum delta is    0.000002096469659
 Root      7 not converged, maximum delta is    0.000001468434971
 Root      8 has converged.
 Root      9 not converged, maximum delta is    0.000001308582757
 Root     10 not converged, maximum delta is    0.000001212102275
 Root     11 not converged, maximum delta is    0.000001833646082
 Root     12 has converged.
 Root     13 has converged.
 Root     14 has converged.
 Root     15 has converged.
 Excitation Energies [eV] at current iteration:
 Root      1 :     7.259129231260136   Change is   -0.000000001899040
 Root      2 :     7.378866042072702   Change is   -0.000000001831035
 Root      3 :     8.409758463738294   Change is   -0.000000000047410
 Root      4 :     8.768483210718371   Change is   -0.000000000078430
 Root      5 :     9.206235590256682   Change is   -0.000000000071033
 Root      6 :     9.644347406844872   Change is   -0.000000002989621
 Root      7 :     9.674132289383266   Change is   -0.000000000911616
 Root      8 :     9.853622763916562   Change is   -0.000000000480944
 Root      9 :     9.953494597216737   Change is   -0.000000001030782
 Root     10 :    10.072362653981960   Change is   -0.000000000874771
 Root     11 :    10.144435940915230   Change is   -0.000000001700731
 Root     12 :    10.360077487033920   Change is   -0.000000000276170
 Root     13 :    10.694397934544040   Change is   -0.000000000292583
 Root     14 :    10.754198773501350   Change is   -0.000000000262678
 Root     15 :    11.186009699250270   Change is   -0.000000000075451
 Iteration     6 Dimension   172 NMult   165 NNew      7
 CISAX will form     7 AO SS matrices at one time.
 NMat=     7 NSing=     7 JSym2X= 0.
 Root      1 has converged.
 Root      2 has converged.
 Root      3 has converged.
 Root      4 has converged.
 Root      5 has converged.
 Root      6 has converged.
 Root      7 has converged.
 Root      8 has converged.
 Root      9 has converged.
 Root     10 has converged.
 Root     11 has converged.
 Root     12 has converged.
 Root     13 has converged.
 Root     14 has converged.
 Root     15 has converged.
 Excitation Energies [eV] at current iteration:
 Root      1 :     7.259129231259541   Change is   -0.000000000000595
 Root      2 :     7.378866042072095   Change is   -0.000000000000607
 Root      3 :     8.409758463738278   Change is   -0.000000000000017
 Root      4 :     8.768483210718326   Change is   -0.000000000000044
 Root      5 :     9.206235590256675   Change is   -0.000000000000006
 Root      6 :     9.644347406843650   Change is   -0.000000000001222
 Root      7 :     9.674132289382728   Change is   -0.000000000000538
 Root      8 :     9.853622763916366   Change is   -0.000000000000196
 Root      9 :     9.953494597216251   Change is   -0.000000000000486
 Root     10 :    10.072362653981480   Change is   -0.000000000000476
 Root     11 :    10.144435940914200   Change is   -0.000000000001029
 Root     12 :    10.360077487033750   Change is   -0.000000000000165
 Root     13 :    10.694397934543900   Change is   -0.000000000000144
 Root     14 :    10.754198773501160   Change is   -0.000000000000192
 Root     15 :    11.186009699250240   Change is   -0.000000000000030
 Convergence achieved on expansion vectors.
 ***********************************************************************
 Excited states from <AA,BB:AA,BB> singles matrix:
 ***********************************************************************
 
 1PDM for each excited state written to RWF  633
 Ground to excited state transition densities written to RWF  633
 Ground to excited state transition electric dipole moments (Au):
       state          X           Y           Z        Dip. S.      Osc.
         1        -0.8926      0.2269      0.0110      0.8483      0.1509
         2        -0.6939      0.1920      0.0617      0.5222      0.0944
         3         0.0562      0.1228      0.0194      0.0186      0.0038
         4         0.1114      0.1721     -0.1483      0.0640      0.0138
         5         0.0866      0.1746     -0.0016      0.0380      0.0086
         6         0.5984      1.0208     -0.0067      1.4000      0.3308
         7        -0.5195     -0.2312     -0.0650      0.3275      0.0776
         8         0.0586      0.4283     -0.0469      0.1891      0.0457
         9        -0.0326      0.6035     -0.0979      0.3748      0.0914
        10         0.2017     -0.4354      0.0368      0.2316      0.0572
        11        -0.4369      0.5892     -0.1026      0.5486      0.1363
        12        -0.1798      0.1471      0.0952      0.0630      0.0160
        13        -0.0606     -0.2979     -0.0016      0.0924      0.0242
        14        -0.1821      0.1268      0.0377      0.0507      0.0133
        15         0.0763      0.0615     -0.0573      0.0129      0.0035
 Ground to excited state transition velocity dipole moments (Au):
       state          X           Y           Z        Dip. S.      Osc.
         1        -0.0027     -0.0297     -0.0002      0.0009      0.0022
         2         0.0093      0.0388      0.0049      0.0016      0.0040
         3        -0.0134      0.0025      0.0039      0.0002      0.0004
         4        -0.0053     -0.0003      0.0711      0.0051      0.0105
         5        -0.0210     -0.0079     -0.0282      0.0013      0.0026
         6        -0.0594     -0.0326     -0.0422      0.0064      0.0120
         7         0.0605     -0.0016     -0.0360      0.0050      0.0093
         8        -0.0047     -0.0190     -0.0060      0.0004      0.0008
         9         0.0094     -0.0281      0.0300      0.0018      0.0032
        10        -0.0187      0.0208     -0.0144      0.0010      0.0018
        11         0.0577     -0.0404      0.0053      0.0050      0.0089
        12         0.0256     -0.0180     -0.0369      0.0023      0.0041
        13         0.0115      0.0311     -0.0388      0.0026      0.0044
        14         0.0296     -0.0202     -0.0096      0.0014      0.0023
        15        -0.0226     -0.0027     -0.0013      0.0005      0.0008
 Ground to excited state transition magnetic dipole moments (Au):
       state          X           Y           Z
         1         0.0204     -0.0301     -0.2711
         2        -0.1430      0.0106     -0.2348
         3        -0.0076     -0.4472     -0.0119
         4        -1.5927      0.2332      0.0436
         5        -0.0115      0.1990     -0.0492
         6         0.0840     -0.1063      0.0635
         7        -0.2365      0.0742      0.0717
         8        -0.1026     -0.1946      0.0396
         9         0.1900      0.3080      0.0091
        10        -0.1593      0.0031     -0.1758
        11         0.1393      0.0217      0.1305
        12        -0.0471     -0.1566      0.0343
        13         0.2201     -0.2414     -0.0274
        14        -0.0264     -0.4479      0.0820
        15         0.0678     -0.3140     -0.0338
 Ground to excited state transition velocity quadrupole moments (Au):
       state          XX          YY          ZZ          XY          XZ          YZ
         1        -0.0678      0.0374      0.0145     -0.1766     -0.0017      0.0014
         2        -0.0577      0.0658     -0.0167     -0.1660     -0.0175     -0.0096
         3         0.0242     -0.0298     -0.0066      0.0046      0.1164     -0.0017
         4         0.0269     -0.0043     -0.0110      0.0036     -0.0501     -0.1882
         5         0.0719     -0.0312     -0.0049     -0.0113      0.1551     -0.0067
         6         0.1826     -0.1670     -0.0290     -0.1823     -0.0501      0.0435
         7         0.0216     -0.0254      0.0135      0.2074     -0.0482     -0.0069
         8         0.0310     -0.0897     -0.0076      0.0074      0.0078     -0.1126
         9         0.1046     -0.1100     -0.0217     -0.0006      0.0336     -0.0040
        10        -0.1334      0.1155      0.0155     -0.1332     -0.0222     -0.1153
        11         0.1708     -0.1635     -0.0189      0.2026     -0.0346      0.0228
        12         0.1066     -0.0516     -0.0194      0.1296     -0.0016     -0.0467
        13        -0.1118      0.0753      0.0136     -0.0083      0.0444      0.0672
        14         0.1005     -0.0517     -0.0126      0.1163      0.0377     -0.0179
        15         0.0561     -0.0066     -0.0036     -0.0656     -0.0937     -0.0072
 <0|del|b> * <b|rxdel|0> + <0|del|b> * <b|delr+rdel|0>
 Rotatory Strengths (R) in cgs (10**-40 erg-esu-cm/Gauss)
       state          XX          YY          ZZ    R(velocity)    E-M Angle
         1         1.2612     -0.0484      1.1833      0.7987       83.63
         2        -1.1238     -2.2937     -1.9723     -1.7966      100.77
         3        -1.6649      0.0684     -0.8685     -0.8217       99.80
         4         3.5812     13.4976      8.1236      8.4008       84.26
         5         1.4232      1.5158     -2.8170      0.0407       90.00
         6         6.8294    -17.9049      2.6846     -2.7970      110.61
         7       -10.1828     -9.7882    -13.8505    -11.2738      159.43
         8         3.4796      0.8015      3.4209      2.5673       30.52
         9        -7.1950      1.9749     -7.5005     -4.2402      115.56
        10         4.7593      5.4947      0.4087      3.5542       41.66
        11        -0.4799      8.5082      6.8683      4.9656       54.62
        12        -3.0331      1.0386      2.6349      0.2135       87.56
        13        -6.7406      3.6537     -3.9188     -2.3352      103.45
        14         7.0630     -0.8779      7.1854      4.4568       63.83
        15         0.6167     -1.2156     -0.5219     -0.3736       95.07
 1/2[<0|r|b>*<b|rxdel|0> + (<0|rxdel|b>*<b|r|0>)*]
 Rotatory Strengths (R) in cgs (10**-40 erg-esu-cm/Gauss)
       state          XX          YY          ZZ     R(length)
         1        12.8821      4.8319      2.1077      6.6072
         2       -70.1622     -1.4335     10.2527    -20.4477
         3         0.3014     38.8462      0.1638     13.1038
         4       125.4276    -28.3802      4.5683     33.8719
         5         0.7049    -24.5742     -0.0561     -7.9752
         6       -35.5288     76.7519      0.3019     13.8417
         7       -86.8845     12.1354      3.2953    -23.8179
         8         4.2520     58.9368      1.3141     21.5009
         9         4.3770   -131.4243      0.6326    -42.1382
        10        22.7259      0.9563      4.5796      9.4206
        11        43.0549     -9.0222      9.4673     14.5000
        12        -5.9910     16.2856     -2.3067      2.6626
        13         9.4418    -50.8458     -0.0312    -13.8117
        14        -3.3969     40.1655     -2.1859     11.5275
        15        -3.6617     13.6570     -1.3683      2.8757
  1/2[<0|del|b>*<b|r|0> + (<0|r|b>*<b|del|0>)*] (Au)
       state          X           Y           Z        Dip. S.   Osc.(frdel)
         1         0.0024     -0.0067      0.0000      0.0043      0.0029
         2        -0.0065      0.0075      0.0003     -0.0013     -0.0008
         3        -0.0008      0.0003      0.0001      0.0004      0.0002
         4        -0.0006     -0.0001     -0.0105      0.0112      0.0075
         5        -0.0018     -0.0014      0.0000      0.0032      0.0021
         6        -0.0355     -0.0332      0.0003      0.0685      0.0457
         7        -0.0314      0.0004      0.0023      0.0287      0.0191
         8        -0.0003     -0.0081      0.0003      0.0081      0.0054
         9        -0.0003     -0.0169     -0.0029      0.0202      0.0135
        10        -0.0038     -0.0091     -0.0005      0.0134      0.0089
        11        -0.0252     -0.0238     -0.0005      0.0495      0.0330
        12        -0.0046     -0.0026     -0.0035      0.0108      0.0072
        13        -0.0007     -0.0093      0.0001      0.0099      0.0066
        14        -0.0054     -0.0026     -0.0004      0.0083      0.0055
        15        -0.0017     -0.0002      0.0001      0.0018      0.0012

 Excitation energies and oscillator strengths:
 
 Excited State   1:      Singlet-A      7.2591 eV  170.80 nm  f=0.1509  <S**2>=0.000
      17 -> 19         0.32341
      18 -> 19         0.54385
      18 -> 20         0.27561
 This state for optimization and/or second-order correction.
 Total Energy, E(CIS) =  -228.464949659    
 Copying the excited state density for this state as the 1-particle RhoCI density.
 
 Excited State   2:      Singlet-A      7.3789 eV  168.03 nm  f=0.0944  <S**2>=0.000
      17 -> 19        -0.39033
      18 -> 19         0.41279
      18 -> 20        -0.39953
 
 Excited State   3:      Singlet-A      8.4098 eV  147.43 nm  f=0.0038  <S**2>=0.000
      18 -> 21         0.68780
 
 Excited State   4:      Singlet-A      8.7685 eV  141.40 nm  f=0.0138  <S**2>=0.000
      16 -> 19         0.68804
      18 -> 20         0.11069
 
 Excited State   5:      Singlet-A      9.2062 eV  134.67 nm  f=0.0086  <S**2>=0.000
      18 -> 22         0.67759
      18 -> 23        -0.10386
 
 Excited State   6:      Singlet-A      9.6443 eV  128.56 nm  f=0.3308  <S**2>=0.000
      17 -> 19        -0.33922
      17 -> 20        -0.19958
      17 -> 21         0.13202
      18 -> 20         0.35179
      18 -> 21        -0.10584
      18 -> 22        -0.13980
      18 -> 23        -0.31280
      18 -> 24         0.13197
 
 Excited State   7:      Singlet-A      9.6741 eV  128.16 nm  f=0.0776  <S**2>=0.000
      17 -> 19         0.11334
      17 -> 20         0.39636
      17 -> 21         0.41071
      18 -> 20        -0.10497
      18 -> 23        -0.32592
      18 -> 24         0.13006
 
 Excited State   8:      Singlet-A      9.8536 eV  125.83 nm  f=0.0457  <S**2>=0.000
      15 -> 19        -0.20768
      17 -> 19        -0.12031
      17 -> 21         0.39371
      18 -> 20         0.12366
      18 -> 23         0.48650
 
 Excited State   9:      Singlet-A      9.9535 eV  124.56 nm  f=0.0914  <S**2>=0.000
      15 -> 19         0.57101
      16 -> 20        -0.16062
      17 -> 19        -0.15500
      17 -> 20         0.15350
      18 -> 20         0.16117
      18 -> 23         0.11991
      18 -> 24        -0.18220
 
 Excited State  10:      Singlet-A     10.0724 eV  123.09 nm  f=0.0572  <S**2>=0.000
      15 -> 19         0.27300
      17 -> 20        -0.27768
      17 -> 21         0.10478
      18 -> 20        -0.10806
      18 -> 23         0.12078
      18 -> 24         0.52957
 
 Excited State  11:      Singlet-A     10.1444 eV  122.22 nm  f=0.1363  <S**2>=0.000
      14 -> 19        -0.16028
      15 -> 19        -0.10297
      17 -> 19        -0.10656
      17 -> 20         0.36196
      17 -> 21        -0.34852
      17 -> 22         0.10463
      18 -> 20         0.12462
      18 -> 24         0.37499
 
 Excited State  12:      Singlet-A     10.3601 eV  119.67 nm  f=0.0160  <S**2>=0.000
      14 -> 19         0.66931
      17 -> 20         0.12657
 
 Excited State  13:      Singlet-A     10.6944 eV  115.93 nm  f=0.0242  <S**2>=0.000
      16 -> 20         0.20815
      17 -> 22         0.65150
 
 Excited State  14:      Singlet-A     10.7542 eV  115.29 nm  f=0.0133  <S**2>=0.000
      14 -> 19        -0.11048
      15 -> 19         0.14517
      16 -> 20         0.62716
      17 -> 22        -0.20999
 
 Excited State  15:      Singlet-A     11.1860 eV  110.84 nm  f=0.0035  <S**2>=0.000
      18 -> 25         0.68467
 SavETr:  write IOETrn=   770 NScale= 10 NData=  16 NLR=1 NState=   15 LETran=     280.
 The selected state is a singlet
 CISAX will form     1 AO SS matrices at one time.
 NMat=     1 NSing=     1 JSym2X= 0.
 CISAX will form     1 AO SS matrices at one time.
 NMat=     1 NSing=     1 JSym2X= 0.
 Leave Link  914 at Tue Dec 15 16:27:07 2015, MaxMem=    33554432 cpu:        34.9
 (Enter /home/Applications/g09/g09/l1002.exe)
 Minotr:  Closed shell wavefunction.
          Computing CIS/TD-HF/TD-KS derivatives.
          Using Z-Vector for PSCF gradient.
          Skipping F1 and S1 gradient terms here.
          IDoAtm=111111111
          Frozen-core window.
          Direct CPHF calculation.
          Differentiating once with respect to electric field.
                with respect to dipole field.
          Differentiating once with respect to nuclear coordinates.
          Requested convergence is 1.0D-10 RMS, and 1.0D-09 maximum.
          NewPWx=F KeepS1=T KeepF1=T KeepIn=T MapXYZ=F SortEE=F KeepMc=T.
          MDV=      33554290 using IRadAn=       0.
 Using stored XC quadrature information.
 Keep R1 ints in memory in canonical form, NReq=1898913.
 FoFCou: FMM=F IPFlag=           0 FMFlag=           0 FMFlg1=           0
         NFxFlg=           0 DoJE=F BraDBF=F KetDBF=F FulRan=T
         wScrn=  0.000000 ICntrl=     600 IOpCl=  0 I1Cent=           0 NGrid=           0
         NMat0=    1 NMatS0=   1431 NMatT0=    0 NMatD0=    1 NMtDS0=    0 NMtDT0=    0
 Symmetry not used in FoFCou.
          Solving linear equations separately, MaxMat=       0.
          There are     1 degrees of freedom in the 1st order CPHF.  IDoFFX=0 NUNeed=     1.
 LinEq1:  Iter=  0 NonCon=     1 RMS=4.72D-02 Max=7.98D-01 NDo=     1
 AX will form     1 AO Fock derivatives at one time.
 LinEq1:  Iter=  1 NonCon=     1 RMS=1.88D-02 Max=2.81D-01 NDo=     1
 LinEq1:  Iter=  2 NonCon=     1 RMS=1.44D-02 Max=1.95D-01 NDo=     1
 LinEq1:  Iter=  3 NonCon=     1 RMS=5.47D-03 Max=7.60D-02 NDo=     1
 LinEq1:  Iter=  4 NonCon=     1 RMS=3.99D-03 Max=5.14D-02 NDo=     1
 LinEq1:  Iter=  5 NonCon=     1 RMS=1.35D-03 Max=1.99D-02 NDo=     1
 LinEq1:  Iter=  6 NonCon=     1 RMS=7.49D-04 Max=4.67D-03 NDo=     1
 LinEq1:  Iter=  7 NonCon=     1 RMS=2.09D-04 Max=1.42D-03 NDo=     1
 LinEq1:  Iter=  8 NonCon=     1 RMS=7.66D-05 Max=4.83D-04 NDo=     1
 LinEq1:  Iter=  9 NonCon=     1 RMS=1.41D-05 Max=8.68D-05 NDo=     1
 LinEq1:  Iter= 10 NonCon=     1 RMS=1.41D-06 Max=8.26D-06 NDo=     1
 LinEq1:  Iter= 11 NonCon=     1 RMS=1.88D-07 Max=1.35D-06 NDo=     1
 LinEq1:  Iter= 12 NonCon=     1 RMS=2.08D-08 Max=1.23D-07 NDo=     1
 LinEq1:  Iter= 13 NonCon=     1 RMS=2.54D-09 Max=1.06D-08 NDo=     1
 LinEq1:  Iter= 14 NonCon=     1 RMS=2.85D-10 Max=1.56D-09 NDo=     1
 LinEq1:  Iter= 15 NonCon=     0 RMS=3.55D-11 Max=1.98D-10 NDo=     1
 Linear equations converged to 1.000D-10 1.000D-09 after    15 iterations.
 End of Minotr F.D. properties file   721 does not exist.
 End of Minotr F.D. properties file   722 does not exist.
 End of Minotr F.D. properties file   788 does not exist.
 Leave Link 1002 at Tue Dec 15 16:27:17 2015, MaxMem=    33554432 cpu:         9.8
 (Enter /home/Applications/g09/g09/l601.exe)
 Copying SCF densities to generalized density rwf, IOpCl= 0 IROHF=0.

 **********************************************************************

            Population analysis using the SCF density.

 **********************************************************************

 Orbital symmetries:
       Occupied  (A) (A) (A) (A) (A) (A) (A) (A) (A) (A) (A) (A)
                 (A) (A) (A) (A) (A) (A)
       Virtual   (A) (A) (A) (A) (A) (A) (A) (A) (A) (A) (A) (A)
                 (A) (A) (A) (A) (A) (A) (A) (A) (A) (A) (A) (A)
                 (A) (A) (A) (A) (A) (A) (A) (A) (A) (A) (A)
 The electronic state is 1-A.
 Alpha  occ. eigenvalues --  -19.12081 -10.17546 -10.17178 -10.12911 -10.11738
 Alpha  occ. eigenvalues --   -1.15766  -0.81307  -0.75630  -0.60709  -0.56765
 Alpha  occ. eigenvalues --   -0.54288  -0.46599  -0.44965  -0.41276  -0.40000
 Alpha  occ. eigenvalues --   -0.36033  -0.28299  -0.22871
 Alpha virt. eigenvalues --    0.02164   0.08509   0.12546   0.15311   0.17485
 Alpha virt. eigenvalues --    0.18194   0.23272   0.24827   0.34558   0.42600
 Alpha virt. eigenvalues --    0.49449   0.69080   0.69753   0.72085   0.75385
 Alpha virt. eigenvalues --    0.76936   0.78480   0.80690   0.82280   0.84343
 Alpha virt. eigenvalues --    0.93669   0.97443   0.99631   1.00556   1.18740
 Alpha virt. eigenvalues --    1.20882   1.30757   1.36577   1.51548   1.57592
 Alpha virt. eigenvalues --    1.60344   1.72742   1.96244   2.09418   3.22122
     Molecular Orbital Coefficients:
                           1         2         3         4         5
                           O         O         O         O         O
     Eigenvalues --   -19.12081 -10.17546 -10.17178 -10.12911 -10.11738
   1 1   C  1S          0.00015  -0.00015  -0.00889  -0.05236   0.98459
   2        2S          0.00050  -0.00017  -0.00551  -0.01030   0.11013
   3        2PX         0.00119  -0.00010   0.00188  -0.00165   0.00089
   4        2PY         0.00077   0.00050   0.00287   0.00052  -0.00191
   5        2PZ        -0.00006   0.00002  -0.00016  -0.00002   0.00043
   6        3S         -0.00672  -0.01729   0.03662   0.04651  -0.10632
   7        3PX        -0.00548  -0.00023  -0.00770   0.02237  -0.01495
   8        3PY         0.00843   0.01010  -0.01764  -0.01161   0.02740
   9        3PZ         0.00022  -0.00107   0.00109   0.00088  -0.00306
  10 2   C  1S         -0.00029  -0.04940   0.98417  -0.00004   0.00857
  11        2S         -0.00010  -0.00857   0.10681  -0.00038  -0.00404
  12        2PX         0.00180  -0.00119   0.00274  -0.00011  -0.00111
  13        2PY        -0.00196  -0.00042  -0.00059  -0.00093  -0.00234
  14        2PZ        -0.00017  -0.00011  -0.00055  -0.00001   0.00011
  15        3S          0.02001   0.02099  -0.07443  -0.00988   0.04262
  16        3PX         0.01786   0.01907  -0.00797  -0.00462   0.01743
  17        3PY        -0.00308   0.00865  -0.01619  -0.00073   0.01697
  18        3PZ        -0.00135  -0.00010   0.00213   0.00054  -0.00125
  19 3   O  1S          0.98285   0.00029   0.00037   0.00007   0.00006
  20        2S          0.10859   0.00189   0.00209   0.00030   0.00018
  21        2PX         0.00042   0.00043  -0.00003   0.00002  -0.00004
  22        2PY         0.00435   0.00053   0.00049  -0.00004  -0.00014
  23        2PZ         0.00045   0.00011   0.00016   0.00000   0.00008
  24        3S         -0.06376  -0.00156  -0.00183  -0.00335  -0.00391
  25        3PX        -0.00088  -0.00124   0.00108  -0.00250   0.00190
  26        3PY        -0.01447  -0.00362  -0.00478  -0.00152  -0.00174
  27        3PZ        -0.00139  -0.00065  -0.00105  -0.00007  -0.00037
  28 4   C  1S         -0.00035   0.98424   0.04827   0.01185   0.00112
  29        2S         -0.00022   0.10644   0.00216  -0.00256  -0.00072
  30        2PX        -0.00245  -0.00282   0.00057   0.00049  -0.00005
  31        2PY        -0.00148  -0.00010  -0.00089  -0.00156  -0.00104
  32        2PZ        -0.00008  -0.00022  -0.00014  -0.00007   0.00011
  33        3S          0.01572  -0.07068   0.01167   0.03640  -0.00542
  34        3PX        -0.01343   0.00807  -0.01394  -0.01317   0.00280
  35        3PY         0.00093  -0.01639   0.01260   0.02004  -0.00017
  36        3PZ        -0.00071   0.00045   0.00070  -0.00028  -0.00042
  37 5   C  1S          0.00018  -0.01215  -0.00104   0.98467   0.05192
  38        2S          0.00074  -0.00474  -0.00029   0.11004   0.00153
  39        2PX        -0.00101  -0.00095   0.00002  -0.00165   0.00175
  40        2PY         0.00094   0.00190   0.00066  -0.00162   0.00028
  41        2PZ         0.00008  -0.00001   0.00003  -0.00011   0.00002
  42        3S         -0.00353   0.03229  -0.01291  -0.10494   0.03347
  43        3PX         0.00455   0.00205   0.00247   0.02442  -0.02251
  44        3PY         0.00466  -0.01705   0.00909   0.02382  -0.00643
  45        3PZ        -0.00051   0.00012  -0.00044   0.00069  -0.00012
  46 6   H  1S         -0.00078  -0.00122  -0.00039  -0.00318  -0.00008
  47        2S         -0.00198   0.00109  -0.00111   0.00363   0.00521
  48 7   H  1S          0.00006  -0.00387   0.00127  -0.00010  -0.00007
  49        2S          0.00298   0.00828   0.00787   0.00539   0.00028
  50 8   H  1S          0.00059   0.00153  -0.00246  -0.00009  -0.00042
  51        2S          0.00443   0.00688   0.00975   0.00021   0.00428
  52 9   H  1S         -0.00106  -0.00026  -0.00125  -0.00031  -0.00311
  53        2S         -0.00315  -0.00078   0.00101   0.00371   0.00520
                           6         7         8         9        10
                           O         O         O         O         O
     Eigenvalues --    -1.15766  -0.81307  -0.75630  -0.60709  -0.56765
   1 1   C  1S         -0.02871   0.15714   0.05054   0.09228   0.05902
   2        2S          0.02807  -0.16816  -0.05529  -0.09399  -0.05812
   3        2PX         0.00613  -0.05980   0.06995   0.14346  -0.13710
   4        2PY        -0.03626   0.07374   0.05998   0.03576  -0.09151
   5        2PZ         0.00161  -0.01187  -0.00407  -0.01106  -0.00351
   6        3S          0.05636  -0.31541  -0.08943  -0.31707  -0.21145
   7        3PX         0.03010  -0.02219  -0.02386   0.03906  -0.05935
   8        3PY        -0.04719   0.04063  -0.01099   0.03565  -0.01023
   9        3PZ         0.00061  -0.00822  -0.00023  -0.00915  -0.00351
  10 2   C  1S         -0.08228   0.06193   0.14178   0.01693  -0.10487
  11        2S          0.08975  -0.07301  -0.15335  -0.02102   0.11468
  12        2PX         0.08928  -0.02955  -0.03489   0.05585  -0.13847
  13        2PY        -0.04682  -0.13445   0.02813  -0.22707  -0.00309
  14        2PZ        -0.00764   0.00422   0.01569  -0.00156  -0.00921
  15        3S          0.04536  -0.09170  -0.34949  -0.01579   0.35018
  16        3PX        -0.05839  -0.01903  -0.02197   0.03483  -0.07801
  17        3PY        -0.00018  -0.03137  -0.03596  -0.06543   0.01706
  18        3PZ         0.00168   0.00308   0.00802  -0.00017  -0.00831
  19 3   O  1S         -0.21050  -0.08852   0.00182  -0.00504   0.04551
  20        2S          0.19014   0.08517  -0.00232   0.00623  -0.04585
  21        2PX         0.00716   0.00371   0.24625  -0.25448  -0.05589
  22        2PY         0.11835  -0.02738  -0.03199   0.03990  -0.01530
  23        2PZ         0.01094   0.00410  -0.00106   0.00521  -0.00346
  24        3S          0.67675   0.32467  -0.00790   0.02199  -0.20097
  25        3PX         0.01126   0.00490   0.20326  -0.22271  -0.05141
  26        3PY         0.14917  -0.00786  -0.02508   0.03379  -0.01866
  27        3PZ         0.01446   0.00353  -0.00152   0.00393  -0.00169
  28 4   C  1S         -0.07265   0.03895  -0.14999   0.02129  -0.10462
  29        2S          0.07889  -0.04631   0.16205  -0.02154   0.11528
  30        2PX        -0.08581  -0.00446  -0.04172   0.05414   0.16973
  31        2PY        -0.02029  -0.11434  -0.01411   0.20217   0.01496
  32        2PZ        -0.00447  -0.00016  -0.00959   0.00730  -0.00154
  33        3S          0.05664  -0.04977   0.35660  -0.09916   0.32134
  34        3PX         0.03265   0.01190  -0.02235   0.02348   0.09323
  35        3PY        -0.01131  -0.03193   0.03570   0.05800   0.00112
  36        3PZ         0.00062  -0.00044  -0.00294   0.00326  -0.00313
  37 5   C  1S         -0.02488   0.13873  -0.07224  -0.11842   0.01957
  38        2S          0.02366  -0.14926   0.07737   0.12072  -0.02181
  39        2PX        -0.01349   0.08580   0.03403   0.07914   0.16030
  40        2PY        -0.02847   0.04604  -0.06837  -0.01958  -0.10266
  41        2PZ        -0.00067   0.00249  -0.00117  -0.00308   0.00476
  42        3S          0.03327  -0.27108   0.15311   0.39500  -0.04462
  43        3PX        -0.02307   0.02435  -0.02555   0.00854   0.06399
  44        3PY        -0.02551   0.03177   0.00435  -0.03804  -0.04043
  45        3PZ         0.00175   0.00243  -0.00252  -0.00199   0.00293
  46 6   H  1S          0.00595  -0.04557   0.03573   0.10670   0.00964
  47        2S          0.01031  -0.01089   0.01220   0.06269   0.00731
  48 7   H  1S          0.01252  -0.00739   0.08590  -0.04852   0.15742
  49        2S         -0.01825  -0.00552   0.03285  -0.02912   0.07995
  50 8   H  1S          0.01012  -0.01895  -0.07333  -0.01346   0.15120
  51        2S         -0.02812  -0.00697  -0.02626  -0.00006   0.08053
  52 9   H  1S          0.00776  -0.05624  -0.02456  -0.08599  -0.05122
  53        2S          0.01737  -0.01291  -0.00639  -0.04611  -0.03449
                          11        12        13        14        15
                           O         O         O         O         O
     Eigenvalues --    -0.54288  -0.46599  -0.44965  -0.41276  -0.40000
   1 1   C  1S         -0.05328  -0.00040  -0.04712   0.00528   0.00194
   2        2S          0.05073   0.00284   0.05088  -0.00619  -0.00867
   3        2PX        -0.01018  -0.00073   0.02899  -0.26091  -0.16916
   4        2PY         0.21903   0.02731   0.03778  -0.05809   0.27540
   5        2PZ        -0.00239   0.11211  -0.00578   0.00498  -0.00920
   6        3S          0.22914  -0.01634   0.16135  -0.03381  -0.00842
   7        3PX        -0.03689  -0.02194   0.02311  -0.12058  -0.13232
   8        3PY         0.12080   0.04181   0.03305  -0.00708   0.18523
   9        3PZ         0.00486   0.07779  -0.00470   0.00022  -0.00690
  10 2   C  1S          0.01873  -0.00533   0.02766  -0.01258   0.03090
  11        2S         -0.02440   0.00585  -0.02432   0.02046  -0.03683
  12        2PX        -0.15019   0.01831   0.23800   0.18779  -0.05510
  13        2PY        -0.07925  -0.02236  -0.05336   0.14581  -0.13731
  14        2PZ         0.00184   0.20000  -0.02104  -0.00611  -0.00886
  15        3S         -0.02907   0.02545  -0.11199   0.04277  -0.10638
  16        3PX        -0.10479   0.03264   0.14831   0.13366  -0.04319
  17        3PY        -0.09160  -0.00481  -0.01815   0.13759  -0.04394
  18        3PZ        -0.00240   0.17524  -0.01557  -0.00174  -0.00979
  19 3   O  1S         -0.05925   0.00794   0.00824  -0.00064   0.01029
  20        2S          0.05884  -0.00754  -0.00615  -0.00286  -0.01244
  21        2PX        -0.03159  -0.01583  -0.23178   0.01768  -0.03397
  22        2PY        -0.20455  -0.00488   0.03712   0.14721   0.14246
  23        2PZ        -0.01100   0.38670  -0.02595   0.00949  -0.01903
  24        3S          0.22811  -0.03467  -0.04063   0.03609  -0.01922
  25        3PX        -0.03090  -0.01339  -0.22066   0.02254  -0.04019
  26        3PY        -0.18743  -0.00702   0.03286   0.15002   0.14828
  27        3PZ        -0.01097   0.38674  -0.02702   0.01127  -0.01857
  28 4   C  1S          0.01907  -0.00898  -0.03375   0.01896  -0.04709
  29        2S         -0.02308   0.01065   0.03383  -0.02137   0.05488
  30        2PX         0.11300   0.00663   0.25836   0.00689  -0.09582
  31        2PY        -0.10526  -0.00988  -0.07197  -0.03520   0.21037
  32        2PZ        -0.00411   0.17686  -0.00911   0.00193  -0.00636
  33        3S         -0.03922   0.02001   0.12044  -0.05794   0.18114
  34        3PX         0.07505   0.00665   0.16277   0.01623  -0.07080
  35        3PY        -0.12165  -0.00578  -0.05569   0.01864   0.18922
  36        3PZ        -0.00385   0.16134  -0.01166   0.00289  -0.00730
  37 5   C  1S         -0.05103   0.00322   0.04556   0.01268   0.02683
  38        2S          0.04796  -0.00412  -0.04792  -0.01846  -0.02509
  39        2PX         0.04041  -0.00816  -0.09138   0.31156   0.08787
  40        2PY         0.18478  -0.00063  -0.01776   0.13347  -0.21015
  41        2PZ        -0.00832   0.09952  -0.00488   0.00089   0.00826
  42        3S          0.21924   0.00661  -0.16351  -0.05352  -0.12320
  43        3PX         0.05356  -0.01830  -0.05430   0.21506   0.01110
  44        3PY         0.08350  -0.00792  -0.02842   0.10815  -0.10157
  45        3PZ        -0.00604   0.07018  -0.00169  -0.00057   0.00282
  46 6   H  1S          0.11472  -0.00975  -0.09714   0.20442  -0.08776
  47        2S          0.06415  -0.00199  -0.07082   0.18711  -0.08092
  48 7   H  1S          0.05793   0.01281   0.20584  -0.01204  -0.08375
  49        2S          0.01845   0.01064   0.15933  -0.00640  -0.07444
  50 8   H  1S          0.06216  -0.00658  -0.16770  -0.13754   0.02161
  51        2S          0.02757   0.00573  -0.13570  -0.12498   0.02681
  52 9   H  1S          0.13865   0.01797   0.06197   0.05069   0.22757
  53        2S          0.07409   0.00017   0.04191   0.04932   0.21425
                          16        17        18        19        20
                           O         O         O         V         V
     Eigenvalues --    -0.36033  -0.28299  -0.22871   0.02164   0.08509
   1 1   C  1S          0.02313  -0.01213  -0.00469  -0.00017   0.01169
   2        2S         -0.02358   0.01492   0.00743  -0.00307  -0.00038
   3        2PX         0.12784  -0.01532  -0.00210   0.00920   0.02097
   4        2PY         0.13297  -0.01956  -0.00742   0.01627  -0.02889
   5        2PZ        -0.03116  -0.30418  -0.16834  -0.11365   0.35460
   6        3S         -0.14396   0.04374  -0.01131  -0.00334  -0.16531
   7        3PX         0.13379  -0.03360  -0.00778   0.03126   0.02822
   8        3PY         0.08168  -0.00968   0.01662   0.02720  -0.06259
   9        3PZ        -0.03269  -0.30885  -0.17960  -0.19366   0.72356
  10 2   C  1S         -0.02618   0.00437   0.01035  -0.01249   0.02020
  11        2S          0.03076  -0.00409  -0.01356   0.00314  -0.01019
  12        2PX        -0.03165   0.00214  -0.01091  -0.00337   0.01757
  13        2PY        -0.18639   0.00813   0.00031  -0.00211   0.02875
  14        2PZ        -0.00984  -0.08262  -0.32019   0.28916  -0.24736
  15        3S          0.10011  -0.01949  -0.02121   0.13116  -0.21971
  16        3PX        -0.03967   0.00753   0.01078  -0.01047   0.05175
  17        3PY        -0.00281  -0.00935   0.01276   0.01176   0.04384
  18        3PZ        -0.00527  -0.04465  -0.34277   0.43552  -0.48191
  19 3   O  1S          0.06590  -0.00026   0.00051   0.00228  -0.00271
  20        2S         -0.06592   0.00067   0.00033  -0.00407   0.00195
  21        2PX         0.07244  -0.00457   0.00155  -0.00041  -0.02450
  22        2PY         0.37913  -0.04552   0.00559   0.00352  -0.00364
  23        2PZ         0.02466   0.29363  -0.00396  -0.29506   0.04079
  24        3S         -0.24261  -0.00460  -0.00590  -0.01107   0.02298
  25        3PX         0.07838  -0.00333   0.00825  -0.00364  -0.03923
  26        3PY         0.41266  -0.05014   0.00363   0.00700  -0.00300
  27        3PZ         0.02886   0.33362  -0.00243  -0.41675   0.06458
  28 4   C  1S         -0.01163  -0.00065  -0.00568  -0.00926  -0.00252
  29        2S          0.01645   0.00155   0.00714   0.00339   0.00695
  30        2PX        -0.04573  -0.00163  -0.01045   0.00026  -0.01357
  31        2PY        -0.21549   0.01814  -0.01555  -0.00748  -0.00523
  32        2PZ        -0.02079  -0.04491   0.33853   0.34516   0.16394
  33        3S          0.03707  -0.00556   0.01826   0.07646  -0.01357
  34        3PX         0.00417   0.00035   0.00102   0.00045  -0.00113
  35        3PY        -0.03930  -0.00295  -0.01823  -0.02050  -0.02889
  36        3PZ        -0.01320  -0.01495   0.36805   0.52661   0.32254
  37 5   C  1S          0.01150   0.00270  -0.00234   0.00984   0.00818
  38        2S         -0.00961  -0.00427   0.00071  -0.01162  -0.00302
  39        2PX        -0.07775   0.01274  -0.00559   0.00447  -0.02556
  40        2PY         0.20365  -0.03228   0.01620   0.00121  -0.02571
  41        2PZ        -0.03470  -0.28378   0.20061  -0.21485  -0.31005
  42        3S         -0.10225   0.01616   0.03042  -0.06503  -0.07847
  43        3PX        -0.08480   0.00518  -0.01476  -0.00201  -0.06292
  44        3PY         0.15392  -0.02982   0.00727  -0.02142  -0.07482
  45        3PZ        -0.02661  -0.28787   0.22160  -0.35637  -0.62974
  46 6   H  1S          0.04839  -0.00331  -0.00013   0.00839   0.02410
  47        2S          0.06904  -0.00681   0.00419   0.03606   0.14406
  48 7   H  1S          0.08645  -0.00990  -0.00460  -0.01374  -0.00028
  49        2S          0.08630  -0.01547  -0.00901  -0.04290   0.01182
  50 8   H  1S          0.10537  -0.00909   0.01006  -0.01771   0.03098
  51        2S          0.10938  -0.01063   0.01900  -0.06111   0.18824
  52 9   H  1S          0.00965  -0.00182  -0.00683  -0.00310   0.02968
  53        2S          0.03563  -0.00705  -0.01537  -0.00432   0.15638
                          21        22        23        24        25
                           V         V         V         V         V
     Eigenvalues --     0.12546   0.15311   0.17485   0.18194   0.23272
   1 1   C  1S          0.02612  -0.02391   0.04254   0.10195  -0.04859
   2        2S         -0.00846   0.02584  -0.04568  -0.08119   0.01816
   3        2PX         0.09217  -0.02155  -0.07070   0.05509  -0.20094
   4        2PY        -0.14760   0.02827   0.02932  -0.19590   0.03972
   5        2PZ        -0.06381  -0.01174   0.00544  -0.02463   0.01300
   6        3S         -0.42661   0.10474  -0.16445  -0.98124   0.86981
   7        3PX         0.14421  -0.14585  -0.05084   0.42668  -0.93368
   8        3PY        -0.41597   0.23738  -0.14383  -0.86191   0.04297
   9        3PZ        -0.16174  -0.04337   0.04382  -0.06323   0.05887
  10 2   C  1S          0.05382   0.09915  -0.03266  -0.03107   0.05557
  11        2S         -0.03870  -0.06858   0.02804   0.04182  -0.03487
  12        2PX         0.14811   0.10038  -0.17953   0.12659   0.15923
  13        2PY        -0.00299   0.17115  -0.01854   0.01979  -0.10531
  14        2PZ         0.05083   0.04404  -0.01729   0.00096   0.01072
  15        3S         -0.68303  -0.95534   0.35494  -0.03417  -0.98445
  16        3PX         0.40487   0.50348  -0.69700   0.06370   0.55225
  17        3PY        -0.06053   0.53291  -0.03434   0.02245  -0.61847
  18        3PZ         0.12380   0.09061  -0.04021   0.04107   0.03793
  19 3   O  1S          0.01261  -0.09456  -0.00773   0.02561   0.09199
  20        2S         -0.00613   0.06832   0.00665  -0.01639  -0.04204
  21        2PX        -0.00646   0.02273   0.01218   0.02347  -0.14895
  22        2PY        -0.06834   0.12556   0.02141  -0.04475  -0.04096
  23        2PZ        -0.01715  -0.00089  -0.00015  -0.00673  -0.02554
  24        3S         -0.12830   0.78179   0.06356  -0.23089  -0.98613
  25        3PX         0.00496   0.04549  -0.03312  -0.02167  -0.30385
  26        3PY        -0.13466   0.20284   0.02219  -0.07839  -0.17521
  27        3PZ        -0.03158   0.00096   0.00033  -0.01602  -0.05883
  28 4   C  1S          0.05099   0.07923   0.09393  -0.00192  -0.02669
  29        2S         -0.03592  -0.05947  -0.06747  -0.01575   0.03022
  30        2PX        -0.10293   0.12099  -0.23725   0.06298  -0.22736
  31        2PY         0.03076   0.12468   0.10474  -0.09874  -0.17297
  32        2PZ        -0.01355   0.02258   0.02662  -0.00089  -0.00813
  33        3S         -0.63705  -0.69422  -1.12717   0.28336  -0.03151
  34        3PX        -0.24193   0.15070  -0.95534  -0.02507  -0.65946
  35        3PY         0.07955   0.39936   0.41051  -0.28444  -0.77357
  36        3PZ        -0.03444   0.05176   0.07472  -0.00558  -0.01804
  37 5   C  1S          0.05504  -0.04116  -0.07112  -0.08624  -0.05871
  38        2S         -0.03297   0.03326   0.06895   0.06046   0.00492
  39        2PX        -0.08721   0.07543   0.00202   0.10928   0.12483
  40        2PY        -0.16782   0.07914  -0.03930   0.12009   0.00574
  41        2PZ         0.05386  -0.01072  -0.01952  -0.00878  -0.00523
  42        3S         -0.63891   0.43394   0.47168   0.87562   1.27998
  43        3PX        -0.30031   0.27959   0.19545   0.54296   0.15422
  44        3PY        -0.41210   0.24146   0.14552   0.58853  -0.15316
  45        3PZ         0.13401  -0.03960  -0.06522  -0.00472  -0.03821
  46 6   H  1S          0.09547  -0.06619  -0.01560  -0.04898   0.06841
  47        2S          1.00982  -0.71964  -0.43457  -1.24635  -0.46941
  48 7   H  1S          0.05001   0.04602   0.08371  -0.00215   0.00613
  49        2S          0.67895   0.52847   1.74633  -0.34717   0.06962
  50 8   H  1S          0.06170   0.09048  -0.04285  -0.01353  -0.03402
  51        2S          0.83449   1.24032  -0.94169   0.12586   0.75670
  52 9   H  1S          0.08182  -0.04956   0.01021   0.06257   0.02439
  53        2S          0.85857  -0.41427   0.13752   1.54823  -0.83838
                          26        27        28        29        30
                           V         V         V         V         V
     Eigenvalues --     0.24827   0.34558   0.42600   0.49449   0.69080
   1 1   C  1S         -0.07735  -0.04421   0.04298  -0.13242   0.00277
   2        2S          0.01639   0.02824   0.01063   0.02850  -0.05584
   3        2PX         0.11649   0.10325   0.17909   0.12556   0.48378
   4        2PY         0.05271  -0.05251   0.18620  -0.17573   0.29216
   5        2PZ         0.02755  -0.00922  -0.00808  -0.03686   0.06279
   6        3S          1.56352   0.63357  -1.55273   3.68459  -0.19757
   7        3PX         0.89559  -0.31734   1.44891   1.88696  -0.42106
   8        3PY         0.12401  -0.81037   2.00199  -1.95780  -0.14296
   9        3PZ         0.11909   0.00695  -0.12715   0.14004  -0.02806
  10 2   C  1S         -0.06685   0.06074  -0.06513   0.10459  -0.04676
  11        2S          0.05114   0.00295   0.02031  -0.01189  -0.03458
  12        2PX         0.14120  -0.16177   0.03829  -0.23711   0.16437
  13        2PY        -0.16935  -0.14412   0.15177   0.19359  -0.41102
  14        2PZ        -0.02816   0.01379   0.00194  -0.00938   0.13533
  15        3S          0.67799  -1.16924   2.06754  -2.15024   0.11828
  16        3PX         0.37609  -0.91063   0.47811  -1.76539   0.15559
[...]
     4  C   -0.151471  -0.166459   0.299514   5.119891   0.469473  -0.031819
     5  C    0.440268  -0.149173  -0.087643   0.469473   5.247016   0.378476
     6  H   -0.019609   0.004386   0.001756  -0.031819   0.378476   0.481369
     7  H    0.002850   0.004235  -0.028985   0.385482  -0.032881  -0.000170
     8  H   -0.047369   0.384173  -0.027124   0.004103   0.003574  -0.000025
     9  H    0.378571  -0.028218   0.002493   0.005689  -0.030629  -0.001312
               7          8          9
     1  C    0.002850  -0.047369   0.378571
     2  C    0.004235   0.384173  -0.028218
     3  O   -0.028985  -0.027124   0.002493
     4  C    0.385482   0.004103   0.005689
     5  C   -0.032881   0.003574  -0.030629
     6  H   -0.000170  -0.000025  -0.001312
     7  H    0.453684  -0.000054  -0.000031
     8  H   -0.000054   0.471111  -0.001020
     9  H   -0.000031  -0.001020   0.489799
 Mulliken charges:
               1
     1  C   -0.267085
     2  C    0.137079
     3  O   -0.497219
     4  C    0.065597
     5  C   -0.238480
     6  H    0.186948
     7  H    0.215871
     8  H    0.212631
     9  H    0.184657
 Sum of Mulliken charges =   0.00000
 Mulliken charges with hydrogens summed into heavy atoms:
               1
     1  C   -0.082428
     2  C    0.349710
     3  O   -0.497219
     4  C    0.281469
     5  C   -0.051532
 Electronic spatial extent (au):  <R**2>=            285.6437
 Charge=              0.0000 electrons
 Dipole moment (field-independent basis, Debye):
    X=              0.1111    Y=              0.5551    Z=             -0.0333  Tot=              0.5671
 Quadrupole moment (field-independent basis, Debye-Ang):
   XX=            -23.7642   YY=            -28.2198   ZZ=            -31.7548
   XY=             -0.5769   XZ=             -0.1366   YZ=             -0.0249
 Traceless Quadrupole moment (field-independent basis, Debye-Ang):
   XX=              4.1487   YY=             -0.3068   ZZ=             -3.8419
   XY=             -0.5769   XZ=             -0.1366   YZ=             -0.0249
 Octapole moment (field-independent basis, Debye-Ang**2):
  XXX=             -1.4633  YYY=              0.6530  ZZZ=             -0.4255  XYY=              1.7017
  XXY=             -3.3598  XXZ=             -0.4977  XZZ=             -0.6377  YZZ=             -3.4529
  YYZ=             -0.0968  XYZ=             -0.2160
 Hexadecapole moment (field-independent basis, Debye-Ang**3):
 XXXX=           -151.9075 YYYY=           -156.6763 ZZZZ=            -31.0253 XXXY=              2.0303
 XXXZ=             -0.1564 YYYX=             -3.3502 YYYZ=              0.1816 ZZZX=             -0.1084
 ZZZY=              0.3630 XXYY=            -45.5461 XXZZ=            -38.7661 YYZZ=            -34.1762
 XXYZ=              0.2725 YYXZ=             -0.6253 ZZXY=              0.3314
 N-N= 1.628899062101D+02 E-N=-8.583485610054D+02  KE= 2.270550848541D+02
 Orbital energies and kinetic energies (alpha):
                                 1                 2
   1         O               -19.120813         28.827926
   2         O               -10.175455         15.801695
   3         O               -10.171776         15.797081
   4         O               -10.129112         15.807252
   5         O               -10.117379         15.803912
   6         O                -1.157663          2.543462
   7         O                -0.813067          1.817615
   8         O                -0.756302          1.866839
   9         O                -0.607091          1.689747
  10         O                -0.567654          1.404539
  11         O                -0.542879          1.370327
  12         O                -0.465989          1.625308
  13         O                -0.449653          1.450615
  14         O                -0.412763          1.371159
  15         O                -0.400004          1.426757
  16         O                -0.360329          2.179622
  17         O                -0.282995          1.518601
  18         O                -0.228709          1.225085
  19         V                 0.021644          1.853021
  20         V                 0.085090          1.489795
  21         V                 0.125460          1.107399
  22         V                 0.153106          1.713650
  23         V                 0.174852          1.230659
  24         V                 0.181936          1.275450
  25         V                 0.232722          1.801022
  26         V                 0.248267          2.061377
  27         V                 0.345576          1.983921
  28         V                 0.426001          1.649295
  29         V                 0.494489          2.811647
  30         V                 0.690801          2.584457
  31         V                 0.697527          2.516601
  32         V                 0.720854          2.802923
  33         V                 0.753848          2.736236
  34         V                 0.769361          2.545292
  35         V                 0.784803          2.556102
  36         V                 0.806896          2.678508
  37         V                 0.822801          2.663159
  38         V                 0.843434          2.593715
  39         V                 0.936689          2.896576
  40         V                 0.974425          3.317829
  41         V                 0.996310          3.077867
  42         V                 1.005563          3.109064
  43         V                 1.187397          2.725097
  44         V                 1.208818          2.887435
  45         V                 1.307572          2.515442
  46         V                 1.365768          2.978498
  47         V                 1.515477          4.784758
  48         V                 1.575919          3.429094
  49         V                 1.603440          3.593815
  50         V                 1.727422          4.412364
  51         V                 1.962445          4.034294
  52         V                 2.094182          4.231792
  53         V                 3.221215          6.845151
 Total kinetic energy from orbitals= 2.270550848541D+02
 No NMR shielding tensors so no spin-rotation constants.
 Leave Link  601 at Tue Dec 15 16:27:17 2015, MaxMem=    33554432 cpu:         0.1
 (Enter /home/Applications/g09/g09/l701.exe)
 Compute integral first derivatives.
 ... and contract with generalized density number  6.
 Leave Link  701 at Tue Dec 15 16:27:17 2015, MaxMem=    33554432 cpu:         0.1
 (Enter /home/Applications/g09/g09/l702.exe)
 L702 exits ... SP integral derivatives will be done elsewhere.
 Leave Link  702 at Tue Dec 15 16:27:17 2015, MaxMem=    33554432 cpu:         0.0
 (Enter /home/Applications/g09/g09/l703.exe)
 Compute integral first derivatives, UseDBF=F ICtDFT=           0.
 Integral derivatives from FoFJK, PRISM(SPDF).
 Calling FoFJK, ICntrl=  10005127 FMM=F ISym2X=0 I1Cent= 0 IOpClX= 0 NMat=1 NMatS=1 NMatT=0.
 FoFJK:  IHMeth= 1 ICntrl=10005127 DoSepK=F KAlg= 0 I1Cent=   0 FoldK=F
 IRaf=         0 NMat=   1 IRICut=       1 DoRegI=T DoRafI=F ISym2E= 0.
 FoFCou: FMM=F IPFlag=           0 FMFlag=      100000 FMFlg1=         800
         NFxFlg=           0 DoJE=F BraDBF=F KetDBF=F FulRan=T
         wScrn=  0.000000 ICntrl=10005127 IOpCl=  0 I1Cent=           0 NGrid=           0
         NMat0=    1 NMatS0=      1 NMatT0=    0 NMatD0=    1 NMtDS0=    0 NMtDT0=    0
 Symmetry not used in FoFCou.
 Leave Link  703 at Tue Dec 15 16:27:18 2015, MaxMem=    33554432 cpu:         1.2
 (Enter /home/Applications/g09/g09/l716.exe)
 Dipole        =-6.33231050D-01 3.11332750D-01-7.55956480D-02
 ***** Axes restored to original set *****
 -------------------------------------------------------------------
 Center     Atomic                   Forces (Hartrees/Bohr)
 Number     Number              X              Y              Z
 -------------------------------------------------------------------
      1        6           0.126152436   -0.013460095   -0.012432492
      2        6          -0.062824536   -0.116484159    0.006419912
      3        8          -0.133281495   -0.031513318    0.007439169
      4        6           0.019544177    0.088853993   -0.005208386
      5        6           0.072198872    0.072239512    0.002148076
      6        1          -0.013868419   -0.028641102    0.001707935
      7        1           0.002853961    0.002002581   -0.001598286
      8        1           0.001107072    0.021797240   -0.003559754
      9        1          -0.011882067    0.005205349    0.005083826
 -------------------------------------------------------------------
 Cartesian Forces:  Max     0.133281495 RMS     0.052023018
 Z-matrix is all fixed cartesians, so copy forces.
 Force constants in Cartesian coordinates: 
                1             2             3             4             5 
      1  0.971717D+00
      2  0.740995D-02  0.860003D+00
      3  0.179387D-01 -0.156224D-02  0.230578D+00
      4 -0.573393D+00 -0.115235D+00 -0.345729D-01  0.101296D+01
      5 -0.903136D-01 -0.218735D+00 -0.109827D-01 -0.453875D-01  0.962024D+00
      6 -0.333873D-01 -0.909086D-02 -0.107882D+00 -0.547148D-02  0.249522D-01
      7 -0.856918D-02  0.313045D-01  0.392518D-02 -0.330421D+00  0.214486D+00
      8 -0.603365D-02  0.222791D-01  0.143112D-02  0.263325D+00 -0.462196D+00
      9 -0.184687D-02  0.349958D-02  0.112799D-01  0.346594D-01 -0.331163D-01
     10  0.107529D-01 -0.595060D-03 -0.306805D-03  0.254618D-01  0.186302D-01
     11  0.341499D-01 -0.207720D-02  0.891424D-03 -0.188544D-01 -0.138188D-01
     12 -0.270427D-02  0.814110D-03 -0.258058D-02 -0.369617D-02 -0.314340D-02
     13 -0.177315D+00 -0.668857D-02 -0.195974D-03  0.948482D-02 -0.363856D-01
     14 -0.333527D-01 -0.475321D+00  0.194552D-01 -0.570999D-03  0.204289D-02
     15 -0.884082D-03  0.237607D-01 -0.979473D-01  0.631046D-03 -0.470716D-02
     16  0.188758D-01 -0.117290D-02 -0.740725D-04  0.447141D-04 -0.306839D-04
     17 -0.212597D-01  0.125677D-02 -0.134476D-02 -0.231731D-04  0.159019D-04
     18  0.349643D-02  0.874056D-03  0.242423D-01 -0.453475D-03  0.311185D-03
     19  0.000000D+00 -0.722221D-05 -0.161602D-03  0.616622D-04  0.000000D+00
     20 -0.169829D-05 -0.156726D-04 -0.350684D-03  0.419160D-05  0.000000D+00
     21  0.272598D-04  0.251566D-03  0.562894D-02  0.618197D-03 -0.974574D-05
     22  0.700439D-02 -0.267884D-01  0.217250D-02 -0.139187D+00 -0.793660D-01
     23 -0.292694D-02  0.108053D-01  0.849571D-03 -0.772098D-01 -0.291979D+00
     24 -0.171451D-03 -0.496326D-02  0.253450D-01  0.109791D-01  0.220193D-01
     25 -0.249073D+00  0.111772D+00  0.112749D-01 -0.500969D-02  0.183682D-01
     26  0.112328D+00 -0.198196D+00 -0.838685D-02 -0.604917D-02  0.226463D-01
     27  0.175315D-01 -0.135837D-01 -0.886638D-01 -0.269368D-02  0.467659D-02
                6             7             8             9            10 
      6  0.206492D+00
      7  0.282330D-01  0.602169D+00
      8 -0.323697D-01 -0.376424D-01  0.833583D+00
      9 -0.578330D-01 -0.547315D-01  0.539485D-02  0.695093D-01
     10 -0.318007D-02 -0.298537D+00 -0.226663D+00  0.276826D-01  0.864289D+00
     11  0.224190D-02 -0.181936D+00 -0.398760D+00  0.250721D-01  0.398398D-02
     12 -0.238645D-02  0.249877D-01  0.270891D-01 -0.502000D-01 -0.266787D-01
     13  0.329299D-02 -0.897338D-02  0.648352D-02  0.295610D-03 -0.424052D+00
     14 -0.359309D-03 -0.284804D-01  0.207935D-01 -0.152867D-03  0.931379D-01
     15 -0.111777D-02  0.319499D-02 -0.646265D-03  0.748931D-02 -0.726373D-02
     16 -0.620414D-03 -0.121716D-05 -0.665892D-05 -0.949652D-04 -0.567382D-02
     17  0.321529D-03 -0.214260D-05 -0.117219D-04 -0.167170D-03  0.635540D-02
     18  0.629202D-02  0.594466D-04  0.325225D-03  0.463814D-02 -0.456610D-03
     19  0.553211D-03  0.217887D-01 -0.160450D-01 -0.212591D-02 -0.172341D+00
     20  0.376055D-04  0.118301D-01 -0.872513D-02 -0.132497D-02  0.105140D+00
     21  0.554624D-02 -0.240082D-02  0.205742D-02  0.387733D-02  0.944687D-02
     22  0.855640D-02  0.225377D-01  0.165608D-01 -0.363401D-02  0.973479D-04
     23  0.139333D-01 -0.958906D-02 -0.706293D-02  0.175095D-02  0.101119D-04
     24 -0.737024D-01 -0.302604D-02 -0.246679D-02  0.344766D-02  0.731655D-03
     25  0.202362D-02  0.634680D-05  0.213750D-04 -0.204366D-03  0.252771D-05
     26  0.333272D-03  0.296952D-04  0.100009D-03 -0.956180D-03  0.000000D+00
     27  0.245918D-01 -0.241974D-03 -0.814929D-03  0.779151D-02  0.247142D-04
               11            12            13            14            15 
     11  0.900459D+00
     12 -0.167899D-01  0.181823D+00
     13  0.685255D-01  0.590943D-03  0.795187D+00
     14 -0.198450D+00  0.126455D-02  0.475765D-01  0.840776D+00
     15  0.349546D-02 -0.878923D-01  0.106697D-01 -0.149103D-01  0.207172D+00
     16 -0.181342D-01 -0.141283D-02 -0.220130D+00 -0.102158D+00 -0.743911D-02
     17  0.202797D-01  0.457123D-03 -0.106496D+00 -0.201796D+00 -0.557398D-02
     18 -0.900326D-03  0.190003D-01 -0.105907D-01 -0.723339D-02 -0.805786D-01
     19  0.112244D+00  0.751795D-02  0.782100D-02  0.249909D-01  0.174229D-02
     20 -0.307641D+00 -0.997959D-02  0.421071D-02  0.134227D-01 -0.156035D-03
     21 -0.142272D-01 -0.694310D-01 -0.100686D-03  0.361140D-03  0.233246D-01
     22 -0.153467D-05  0.873370D-03  0.454740D-04 -0.312054D-04 -0.630958D-03
     23  0.000000D+00  0.907207D-04 -0.551079D-04  0.378164D-04  0.764630D-03
     24 -0.115344D-04  0.656415D-02 -0.522917D-03  0.358839D-03  0.725555D-02
     25  0.233268D-04  0.521952D-03  0.179331D-01 -0.111206D-02 -0.201934D-04
     26  0.881600D-05  0.197264D-03  0.228286D-01 -0.150568D-02 -0.202707D-02
     27  0.228073D-03  0.510328D-02 -0.343898D-02  0.121617D-02  0.222950D-01
               16            17            18            19            20 
     16  0.206801D+00
     17  0.121479D+00  0.180291D+00
     18  0.861554D-02  0.647138D-02  0.430517D-01
     19 -0.463074D-05 -0.815163D-05  0.226167D-03  0.142675D+00
     20 -0.100489D-04 -0.176894D-04  0.490794D-03 -0.121173D+00  0.302977D+00
     21  0.161299D-03  0.283939D-03 -0.787791D-02 -0.775212D-02  0.112829D-01
     22  0.000000D+00  0.000000D+00  0.000000D+00  0.000000D+00  0.000000D+00
     23  0.000000D+00  0.000000D+00  0.000000D+00  0.000000D+00  0.000000D+00
     24  0.000000D+00  0.000000D+00  0.000000D+00  0.000000D+00  0.000000D+00
     25  0.884243D-04 -0.458258D-04 -0.896768D-03  0.000000D+00  0.000000D+00
     26  0.334186D-04 -0.173192D-04 -0.338920D-03  0.000000D+00  0.000000D+00
     27  0.864551D-03 -0.448053D-03 -0.876798D-02  0.000000D+00  0.000000D+00
               21            22            23            24            25 
     21  0.389318D-01
     22  0.000000D+00  0.109527D+00
     23  0.000000D+00  0.897410D-01  0.288060D+00
     24  0.000000D+00 -0.827235D-02 -0.162561D-01  0.418424D-01
     25  0.000000D+00 -0.245257D-04  0.297216D-04  0.282027D-03  0.236076D+00
     26  0.000000D+00 -0.114750D-03  0.139060D-03  0.131954D-02 -0.129057D+00
     27  0.000000D+00  0.935049D-03 -0.113314D-02 -0.107524D-01 -0.129812D-01
               26            27 
     26  0.176825D+00
     27  0.985895D-02  0.484025D-01
 Leave Link  716 at Tue Dec 15 16:27:18 2015, MaxMem=    33554432 cpu:         0.0
 (Enter /home/Applications/g09/g09/l103.exe)

 GradGradGradGradGradGradGradGradGradGradGradGradGradGradGradGradGradGrad
 Berny optimization.
 Search for a local minimum.
 Step number   1 out of a maximum of    2
 All quantities printed in internal units (Hartrees-Bohrs-Radians)
 Second derivative matrix not updated -- first step.
 ITU=  0
     Eigenvalues ---    0.01989   0.03320   0.06798   0.07135   0.07625
     Eigenvalues ---    0.08287   0.13041   0.14379   0.16167   0.22374
     Eigenvalues ---    0.25091   0.29566   0.39493   0.42979   0.61026
     Eigenvalues ---    0.80554   1.14477   1.40138   1.43579   1.57426
     Eigenvalues ---    1.77916
 Quadratic step=4.597D-01 exceeds max=3.000D-01 adjusted using Lamda=-1.065D-01.
 Angle between NR and scaled steps=  25.44 degrees.
 Angle between quadratic step and forces=  30.63 degrees.
 Linear search not attempted -- first point.
 TrRot= -0.008177 -0.001910 -0.001797 -0.018205  0.001309  0.021541
 Variable       Old X    -DE/DX   Delta X   Delta X   Delta X     New X
                                 (Linear)    (Quad)   (Total)
    X1        1.72138   0.12615   0.00000   0.10959   0.10597   1.82735
    Y1       -1.35551  -0.01346   0.00000  -0.00310   0.00111  -1.35440
    Z1        0.06444  -0.01243   0.00000  -0.04165  -0.04588   0.01857
    X2       -0.69700  -0.06282   0.00000  -0.04935  -0.05059  -0.74759
    Y2       -1.99940  -0.11648   0.00000  -0.09312  -0.09750  -2.09690
    Z2       -0.07801   0.00642   0.00000   0.03509   0.03421  -0.04379
    X3       -2.14137  -0.13328   0.00000  -0.16454  -0.17247  -2.31384
    Y3        0.00235  -0.03151   0.00000  -0.04257  -0.05217  -0.04983
    Z3        0.08650   0.00744   0.00000  -0.01139  -0.01017   0.07633
    X4       -0.64771   0.01954   0.00000  -0.00317  -0.01851  -0.66622
    Y4        2.05228   0.08885   0.00000   0.06443   0.06033   2.11262
    Z4       -0.07638  -0.00521   0.00000   0.00031  -0.00058  -0.07696
    X5        1.88335   0.07220   0.00000   0.09994   0.08722   1.97057
    Y5        1.25856   0.07224   0.00000   0.08257   0.08727   1.34583
    Z5       -0.05317   0.00215   0.00000   0.00595   0.00160  -0.05157
    X6        3.45728  -0.01387   0.00000   0.06558   0.04866   3.50594
    Y6        2.66966  -0.02864   0.00000  -0.03243  -0.02260   2.64707
    Z6        0.02992   0.00171   0.00000   0.02966   0.02332   0.05324
    X7       -1.60718   0.00285   0.00000   0.01499  -0.00618  -1.61336
    Y7        3.83640   0.00200   0.00000   0.06002   0.05277   3.88917
    Z7        0.00722  -0.00160   0.00000  -0.00934  -0.00895  -0.00172
    X8       -1.50096   0.00111   0.00000  -0.04049  -0.03539  -1.53635
    Y8       -3.93116   0.02180   0.00000  -0.01747  -0.02450  -3.95566
    Z8        0.05566  -0.00356   0.00000   0.00999   0.01010   0.06576
    X9        3.34103  -0.01188   0.00000   0.04068   0.04130   3.38232
    Y9       -2.64527   0.00521   0.00000  -0.01409  -0.00470  -2.64997
    Z9       -0.05136   0.00508   0.00000   0.00263  -0.00366  -0.05502
         Item               Value     Threshold  Converged?
 Maximum Force            0.133281     0.000450     NO 
 RMS     Force            0.052023     0.000300     NO 
 Maximum Displacement     0.172466     0.001800     NO 
 RMS     Displacement     0.057210     0.001200     NO 
 Predicted change in Energy=-3.972535D-02
 GradGradGradGradGradGradGradGradGradGradGradGradGradGradGradGradGradGrad

 Leave Link  103 at Tue Dec 15 16:27:18 2015, MaxMem=    33554432 cpu:         0.0
 (Enter /home/Applications/g09/g09/l9999.exe)
 1\1\GINC-DUSTIN-DESKTOP\Force\RB3LYP-FC\3-21G\C4H4O1\DUSTIN\15-Dec-201
 5\0\\#P B3LYP/3-21G CIS(Singlets,NStates=15) pop(full) force\\FuranDFT
 \\0,1\C,0.910916,-0.717304,0.034102\C,-0.368838,-1.058036,-0.04128\O,-
 1.133165,0.001242,0.045775\C,-0.342753,1.086022,-0.04042\C,0.996627,0.
 666001,-0.028135\H,1.829514,1.412725,0.015832\H,-0.850481,2.030136,0.0
 03822\H,-0.794274,-2.080281,0.029453\H,1.767995,-1.399817,-0.027176\\V
 ersion=ES64L-G09RevD.01\State=1-A\HF=-228.7317178\RMSD=4.139e-09\RMSF=
 5.202e-02\Dipole=0.2217174,-0.6695018,0.0789494\PG=C01 [X(C4H4O1)]\\@


 THE UNDERLYING PHYSICAL LAWS NECESSARY FOR THE 
 MATHEMATICAL THEORY OF A LARGE PART OF PHYSICS AND THE
 WHOLE OF CHEMISTRY ARE THUS COMPLETELY KNOWN, AND THE
 DIFFICULTY IS ONLY THAT THE EXACT APPLICATION OF THESE
 LAWS LEADS TO EQUATIONS MUCH TOO COMPLICATED 
 TO BE SOLUBLE.

                                        -- P. A. M. DIRAC, 1929
 Job cpu time:       0 days  0 hours  0 minutes 51.1 seconds.
 File lengths (MBytes):  RWF=     14 Int=      0 D2E=      0 Chk=      3 Scr=      1
 Normal termination of Gaussian 09 at Tue Dec 15 16:27:18 2015.
