 Entering Gaussian System, Link 0=g09
 Input=FuranAM1_15.com
 Output=FuranAM1_15.log
 Initial command:
 /home/Applications/g09/g09/l1.exe "/home/Applications/g09/scratch/Gau-5549.inp" -scrdir="/home/Applications/g09/scratch/"
 Entering Link 1 = /home/Applications/g09/g09/l1.exe PID=      5551.
  
 Copyright (c) 1988,1990,1992,1993,1995,1998,2003,2009,2013,
            Gaussian, Inc.  All Rights Reserved.
  
 This is part of the Gaussian(R) 09 program.  It is based on
 the Gaussian(R) 03 system (copyright 2003, Gaussian, Inc.),
 the Gaussian(R) 98 system (copyright 1998, Gaussian, Inc.),
 the Gaussian(R) 94 system (copyright 1995, Gaussian, Inc.),
 the Gaussian 92(TM) system (copyright 1992, Gaussian, Inc.),
 the Gaussian 90(TM) system (copyright 1990, Gaussian, Inc.),
 the Gaussian 88(TM) system (copyright 1988, Gaussian, Inc.),
 the Gaussian 86(TM) system (copyright 1986, Carnegie Mellon
 University), and the Gaussian 82(TM) system (copyright 1983,
 Carnegie Mellon University). Gaussian is a federally registered
 trademark of Gaussian, Inc.
  
 This software contains proprietary and confidential information,
 including trade secrets, belonging to Gaussian, Inc.
  
 This software is provided under written license and may be
 used, copied, transmitted, or stored only in accord with that
 written license.
  
 The following legend is applicable only to US Government
 contracts under FAR:
  
                    RESTRICTED RIGHTS LEGEND
  
 Use, reproduction and disclosure by the US Government is
 subject to restrictions as set forth in subparagraphs (a)
 and (c) of the Commercial Computer Software - Restricted
 Rights clause in FAR 52.227-19.
  
 Gaussian, Inc.
 340 Quinnipiac St., Bldg. 40, Wallingford CT 06492
  
  
 ---------------------------------------------------------------
 Warning -- This program may not be used in any manner that
 competes with the business of Gaussian, Inc. or will provide
 assistance to any competitor of Gaussian, Inc.  The licensee
 of this program is prohibited from giving any competitor of
 Gaussian, Inc. access to this program.  By using this program,
 the user acknowledges that Gaussian, Inc. is engaged in the
 business of creating and licensing software in the field of
 computational chemistry and represents and warrants to the
 licensee that it is not a competitor of Gaussian, Inc. and that
 it will not use this program in any manner prohibited above.
 ---------------------------------------------------------------
  

 Cite this work as:
 Gaussian 09, Revision D.01,
 M. J. Frisch, G. W. Trucks, H. B. Schlegel, G. E. Scuseria, 
 M. A. Robb, J. R. Cheeseman, G. Scalmani, V. Barone, B. Mennucci, 
 G. A. Petersson, H. Nakatsuji, M. Caricato, X. Li, H. P. Hratchian, 
 A. F. Izmaylov, J. Bloino, G. Zheng, J. L. Sonnenberg, M. Hada, 
 M. Ehara, K. Toyota, R. Fukuda, J. Hasegawa, M. Ishida, T. Nakajima, 
 Y. Honda, O. Kitao, H. Nakai, T. Vreven, J. A. Montgomery, Jr., 
 J. E. Peralta, F. Ogliaro, M. Bearpark, J. J. Heyd, E. Brothers, 
 K. N. Kudin, V. N. Staroverov, T. Keith, R. Kobayashi, J. Normand, 
 K. Raghavachari, A. Rendell, J. C. Burant, S. S. Iyengar, J. Tomasi, 
 M. Cossi, N. Rega, J. M. Millam, M. Klene, J. E. Knox, J. B. Cross, 
 V. Bakken, C. Adamo, J. Jaramillo, R. Gomperts, R. E. Stratmann, 
 O. Yazyev, A. J. Austin, R. Cammi, C. Pomelli, J. W. Ochterski, 
 R. L. Martin, K. Morokuma, V. G. Zakrzewski, G. A. Voth, 
 P. Salvador, J. J. Dannenberg, S. Dapprich, A. D. Daniels, 
 O. Farkas, J. B. Foresman, J. V. Ortiz, J. Cioslowski, 
 and D. J. Fox, Gaussian, Inc., Wallingford CT, 2013.
 
 ******************************************
 Gaussian 09:  ES64L-G09RevD.01 24-Apr-2013
                15-Dec-2015 
 ******************************************
 ------------------------------------------------------------
 #P AM1(Input,print) CIS(Singlets,NStates=15) pop(full) force
 ------------------------------------------------------------
 1/10=7,30=1,38=1/1,3;
 2/12=2,17=6,18=5,40=1/2;
 3/5=2,16=1,25=1,41=700000,71=1,135=100,136=1/1,2,8,3;
 4/35=1/1;
 5/5=2,35=1,38=5/2;
 8/6=1,10=1,108=15/1;
 9/15=2,41=15,42=1,48=1,49=10/14;
 10/5=4/2;
 6/7=3,18=1/1;
 7/12=6,13=5,29=1/1,2,3,16;
 1/10=7,30=1/3;
 99//99;
 Leave Link    1 at Tue Dec 15 16:12:59 2015, MaxMem=           0 cpu:         0.0
 (Enter /home/Applications/g09/g09/l101.exe)
 -----------------
 AM1-Reparam Input
 -----------------
 Symbolic Z-matrix:
 Charge =  0 Multiplicity = 1
 6                     0.92271  -0.70638   0.0385 
 6                    -0.34662  -1.07523   0.0011 
 8                    -1.11436   0.01364  -0.01345 
 6                    -0.36058   1.05053  -0.00662 
 6                     0.92119   0.7015    0.03 
 1                     1.83468   1.4114   -0.01435 
 1                    -0.87381   2.05082   0.02731 
 1                    -0.87611  -2.07163   0.03716 
 1                     1.7656   -1.33683   0.00143 
 
 NAtoms=      9 NQM=        9 NQMF=       0 NMMI=      0 NMMIF=      0
                NMic=       0 NMicF=      0.
                    Isotopes and Nuclear Properties:
 (Nuclear quadrupole moments (NQMom) in fm**2, nuclear magnetic moments (NMagM)
  in nuclear magnetons)

  Atom         1           2           3           4           5           6           7           8           9
 IAtWgt=          12          12          16          12          12           1           1           1           1
 AtmWgt=  12.0000000  12.0000000  15.9949146  12.0000000  12.0000000   1.0078250   1.0078250   1.0078250   1.0078250
 NucSpn=           0           0           0           0           0           1           1           1           1
 AtZEff=   0.0000000   0.0000000   0.0000000   0.0000000   0.0000000   0.0000000   0.0000000   0.0000000   0.0000000
 NQMom=    0.0000000   0.0000000   0.0000000   0.0000000   0.0000000   0.0000000   0.0000000   0.0000000   0.0000000
 NMagM=    0.0000000   0.0000000   0.0000000   0.0000000   0.0000000   2.7928460   2.7928460   2.7928460   2.7928460
 AtZNuc=   6.0000000   6.0000000   8.0000000   6.0000000   6.0000000   1.0000000   1.0000000   1.0000000   1.0000000
 Leave Link  101 at Tue Dec 15 16:12:59 2015, MaxMem=    33554432 cpu:         0.0
 (Enter /home/Applications/g09/g09/l103.exe)

 GradGradGradGradGradGradGradGradGradGradGradGradGradGradGradGradGradGrad
 Berny optimization.
 Initialization pass.
 Trust Radius=3.00D-01 FncErr=1.00D-07 GrdErr=1.00D-07
 Number of steps in this run=      2 maximum allowed number of steps=      2.
 GradGradGradGradGradGradGradGradGradGradGradGradGradGradGradGradGradGrad

 Leave Link  103 at Tue Dec 15 16:12:59 2015, MaxMem=    33554432 cpu:         0.0
 (Enter /home/Applications/g09/g09/l202.exe)
                          Input orientation:                          
 ---------------------------------------------------------------------
 Center     Atomic      Atomic             Coordinates (Angstroms)
 Number     Number       Type             X           Y           Z
 ---------------------------------------------------------------------
      1          6           0        0.922713   -0.706378    0.038500
      2          6           0       -0.346620   -1.075226    0.001102
      3          8           0       -1.114359    0.013635   -0.013448
      4          6           0       -0.360582    1.050530   -0.006622
      5          6           0        0.921190    0.701503    0.030000
      6          1           0        1.834683    1.411398   -0.014351
      7          1           0       -0.873811    2.050817    0.027306
      8          1           0       -0.876105   -2.071633    0.037156
      9          1           0        1.765595   -1.336826    0.001434
 ---------------------------------------------------------------------
                    Distance matrix (angstroms):
                    1          2          3          4          5
     1  C    0.000000
     2  C    1.322367   0.000000
     3  O    2.161199   1.332386   0.000000
     4  C    2.176145   2.125816   1.281943   0.000000
     5  C    1.407907   2.182875   2.149072   1.328947   0.000000
     6  H    2.306395   3.307812   3.263524   2.224741   1.157751
     7  H    3.290858   3.170294   2.051739   1.124780   2.245592
     8  H    2.258245   1.128929   2.099445   3.164740   3.304634
     9  H    1.053228   2.128353   3.180896   3.196899   2.206495
                    6          7          8          9
     6  H    0.000000
     7  H    2.783259   0.000000
     8  H    4.413902   4.122462   0.000000
     9  H    2.749138   4.294562   2.742225   0.000000
 Stoichiometry    C4H4O
 Framework group  C1[X(C4H4O)]
 Deg. of freedom    21
 Full point group                 C1      NOp   1
 Largest Abelian subgroup         C1      NOp   1
 Largest concise Abelian subgroup C1      NOp   1
                         Standard orientation:                         
 ---------------------------------------------------------------------
 Center     Atomic      Atomic             Coordinates (Angstroms)
 Number     Number       Type             X           Y           Z
 ---------------------------------------------------------------------
      1          6           0       -0.680242    0.948863   -0.013063
      2          6           0       -1.083726   -0.310280    0.007307
      3          8           0       -0.016349   -1.107750    0.006145
      4          6           0        1.040856   -0.382702    0.006055
      5          6           0        0.727086    0.908568   -0.010395
      6          1           0        1.462002    1.801478    0.044368
      7          1           0        2.026513   -0.922641   -0.039495
      8          1           0       -2.094448   -0.811625   -0.032368
      9          1           0       -1.287123    1.808097    0.038915
 ---------------------------------------------------------------------
 Rotational constants (GHZ):      9.8711115      9.8152096      4.9225273
 Leave Link  202 at Tue Dec 15 16:12:59 2015, MaxMem=    33554432 cpu:         0.0
 (Enter /home/Applications/g09/g09/l301.exe)

 Semi-emprical parameters in input format:
 Method=8 CoreType=1 PeptideFC=0.0114510000 RIJScale=0.5291770000
 ****
 H       
 PQN=1 NValence=1 F0ss=0.4721550000 ZetaOverlap=1.1880780000 U=-0.4188110000
 Beta=-0.2268830000 CoreKO=1.0589200000 KON=0,0,0,1.0589200000 KON=1,0,1,1.0589200000
 KON=0,1,1,1.0589200000 KON=2,1,1,1.0589200000 EISol=-0.4188110042 EHeat=0.0830298228
 Alpha=1.5252600000
 GCore=0.0085280000,1.4001430000,2.2676710000
 GCore=0.0003530000,1.4001430000,3.4015070000
 GCore=-0.0012730000,0.5600570000,3.9684250000
 ****
 C       
 PQN=2,2 NValence=4 F0ss=0.4494440000 F0sp=0.4215150000 F0pp=0.3768030000 F2pp=0.1898720000
 G1sp=0.2679030000
 ZetaOverlap=1.8086650000,1.6851160000
 U=-1.9120180000,-1.4557970000
 Beta=-0.5775440000,-0.2836780000 DDN=0,1,0.8236740000 DDN=1,1,0.7268010000
 CoreKO=1.1124280000 KON=0,0,0,1.1124280000 KON=1,0,1,0.8219700000 KON=0,1,1,1.1124280000
 KON=2,1,1,0.7783930000 EISol=-4.4398989268 EHeat=0.2723305520 Alpha=1.4014060000
 DipHyp=1.6472532266
 GCore=0.0007890000,1.4001430000,3.0235620000
 GCore=0.0031890000,1.4001430000,3.4959930000
 GCore=-0.0013930000,1.4001430000,3.8739390000
 GCore=-0.0000880000,1.4001430000,5.0077740000
 ****
 O       
 PQN=2,2 NValence=6 F0ss=0.5666750000 F0sp=0.5321300000 F0pp=0.4958710000 F2pp=0.2358080000
 G1sp=0.4343770000
 ZetaOverlap=3.1080320000,2.5240390000
 U=-3.5951870000,-2.8760900000
 Beta=-1.0757550000,-1.0757550000 DDN=0,1,0.4988900000 DDN=1,1,0.4852320000
 CoreKO=0.8822960000 KON=0,0,0,0.8822960000 KON=1,0,1,0.5019540000 KON=0,1,1,0.8822960000
 KON=2,1,1,0.5515580000 EISol=-11.6164441184 EHeat=0.0949133088 Alpha=2.3576810000
 DipHyp=0.9977225968
 GCore=0.0195120000,1.4001430000,1.6023330000
 GCore=0.0056550000,1.9602000000,2.7307880000
 ****
 
 Standard basis: VSTO-6G (5D, 7F)
 Ernie: Thresh=  0.10000D-02 Tol=  0.10000D-05 Strict=F.
  NNHCO=     0 NNPyr=     0 NCTC=     0               EPep=         0.000000000
    EC=        69.750735560  ECS=         1.938789553   EG=         0.392131678
   EHC=         0.000000000  EAt=       -31.051283842  AtH=         1.516354808
 EPDDG=         0.000000000  ECC=        72.081656792 EAtT=        32.567638650
 There are    24 symmetry adapted cartesian basis functions of A   symmetry.
 There are    24 symmetry adapted basis functions of A   symmetry.
    24 basis functions,   144 primitive gaussians,    24 cartesian basis functions
    13 alpha electrons       13 beta electrons
       nuclear repulsion energy       104.6492954424 Hartrees.
 IExCor=    0 DFT=F Ex=HF Corr=None ExCW=0 ScaHFX=  1.000000
 ScaDFX=  1.000000  1.000000  1.000000  1.000000 ScalE2=  1.000000  1.000000
 IRadAn=      0 IRanWt=     -1 IRanGd=            0 ICorTp=0 IEmpDi=  4
 Integral buffers will be    131072 words long.
 Regular integral format.
 Two-electron integral symmetry is turned off.
 Leave Link  301 at Tue Dec 15 16:13:00 2015, MaxMem=    33554432 cpu:         0.0
 (Enter /home/Applications/g09/g09/l302.exe)
 Do NDO integrals.
 NPDir=0 NMtPBC=     1 NCelOv=     1 NCel=       1 NClECP=     1 NCelD=      1
         NCelK=      1 NCelE2=     1 NClLst=     1 CellRange=     0.0.
 One-electron integrals computed using PRISM.
 NBasis=    24 RedAO= F EigKep=  0.00D+00  NBF=    24
 NBsUse=    24 1.00D-04 EigRej=  0.00D+00 NBFU=    24
 Leave Link  302 at Tue Dec 15 16:13:00 2015, MaxMem=    33554432 cpu:         0.0
 (Enter /home/Applications/g09/g09/l308.exe)
 Leave Link  308 at Tue Dec 15 16:13:00 2015, MaxMem=    33554432 cpu:         0.0
 (Enter /home/Applications/g09/g09/l303.exe)
 DipDrv:  MaxL=1.
 Leave Link  303 at Tue Dec 15 16:13:00 2015, MaxMem=    33554432 cpu:         0.0
 (Enter /home/Applications/g09/g09/l401.exe)
 Simple Huckel Guess.
 JPrj=0 DoOrth=F DoCkMO=F.
 Leave Link  401 at Tue Dec 15 16:13:00 2015, MaxMem=    33554432 cpu:         0.0
 (Enter /home/Applications/g09/g09/l502.exe)
 Closed shell SCF:
 Using DIIS extrapolation, IDIIS=  1040.
 Overlap will be assumed to be unity.
 Two-electron integral symmetry not used.
 Keep J ints in memory in canonical form, NReq=888082.
 IVT=       79475 IEndB=       79475 NGot=    33554432 MDV=    33473473
 LenX=    33473473 LenY=    33472456
 Requested convergence on RMS density matrix=1.00D-08 within 128 cycles.
 Requested convergence on MAX density matrix=1.00D-06.
 Requested convergence on             energy=1.00D-06.
 No special actions if energy rises.
 FoFCou: FMM=F IPFlag=           0 FMFlag=           0 FMFlg1=           0
         NFxFlg=           0 DoJE=F BraDBF=F KetDBF=F FulRan=T
         wScrn=  0.000000 ICntrl=     600 IOpCl=  2 I1Cent=           0 NGrid=           0
         NMat0=    1 NMatS0=     54 NMatT0=    0 NMatD0=    1 NMtDS0=    0 NMtDT0=    0
 Symmetry not used in FoFCou.

 Cycle   1  Pass 1  IDiag  1:
 E= 0.365853365038277    
 DIIS: error= 5.72D-02 at cycle   1 NSaved=   1.
 NSaved= 1 IEnMin= 1 EnMin= 0.365853365038277     IErMin= 1 ErrMin= 5.72D-02
 ErrMax= 5.72D-02  0.00D+00 EMaxC= 1.00D-01 BMatC= 1.14D-01 BMatP= 1.14D-01
 IDIUse=3 WtCom= 4.28D-01 WtEn= 5.72D-01
 Coeff-Com:  0.100D+01
 Coeff-En:   0.100D+01
 Coeff:      0.100D+01
 GapD=    2.000 DampG=2.000 DampE=0.500 DampFc=1.0000 IDamp=-1.
 RMSDP=1.97D-02 MaxDP=1.66D-01              OVMax= 0.00D+00

 Cycle   2  Pass 1  IDiag  1:
 E= 0.822152818336974E-01 Delta-E=       -0.283638083205 Rises=F Damp=F
 DIIS: error= 2.03D-02 at cycle   2 NSaved=   2.
 NSaved= 2 IEnMin= 2 EnMin= 0.822152818336974E-01 IErMin= 2 ErrMin= 2.03D-02
 ErrMax= 2.03D-02  0.00D+00 EMaxC= 1.00D-01 BMatC= 9.77D-03 BMatP= 1.14D-01
 IDIUse=3 WtCom= 7.97D-01 WtEn= 2.03D-01
 Coeff-Com: -0.350D+00 0.135D+01
 Coeff-En:   0.000D+00 0.100D+01
 Coeff:     -0.279D+00 0.128D+01
 RMSDP=8.30D-03 MaxDP=7.44D-02 DE=-2.84D-01 OVMax= 0.00D+00

 Cycle   3  Pass 1  IDiag  1:
 E= 0.505120324268376E-01 Delta-E=       -0.031703249407 Rises=F Damp=F
 DIIS: error= 4.04D-03 at cycle   3 NSaved=   3.
 NSaved= 3 IEnMin= 3 EnMin= 0.505120324268376E-01 IErMin= 3 ErrMin= 4.04D-03
 ErrMax= 4.04D-03  0.00D+00 EMaxC= 1.00D-01 BMatC= 4.39D-04 BMatP= 9.77D-03
 IDIUse=3 WtCom= 9.60D-01 WtEn= 4.04D-02
 Coeff-Com:  0.128D+00-0.600D+00 0.147D+01
 Coeff-En:   0.000D+00 0.000D+00 0.100D+01
 Coeff:      0.123D+00-0.576D+00 0.145D+01
 RMSDP=2.73D-03 MaxDP=3.27D-02 DE=-3.17D-02 OVMax= 0.00D+00

 Cycle   4  Pass 1  IDiag  3:
 E= 0.481186410158045E-01 Delta-E=       -0.002393391411 Rises=F Damp=F
 DIIS: error= 1.17D-03 at cycle   4 NSaved=   4.
 NSaved= 4 IEnMin= 4 EnMin= 0.481186410158045E-01 IErMin= 4 ErrMin= 1.17D-03
 ErrMax= 1.17D-03  0.00D+00 EMaxC= 1.00D-01 BMatC= 3.19D-05 BMatP= 4.39D-04
 IDIUse=3 WtCom= 9.88D-01 WtEn= 1.17D-02
 Coeff-Com:  0.849D-02-0.193D-01-0.285D+00 0.130D+01
 Coeff-En:   0.000D+00 0.000D+00 0.000D+00 0.100D+01
 Coeff:      0.839D-02-0.191D-01-0.282D+00 0.129D+01
 Gap=     0.393 Goal=   None    Shift=    0.000
 RMSDP=9.03D-04 MaxDP=1.16D-02 DE=-2.39D-03 OVMax= 8.75D-03

 Cycle   5  Pass 1  IDiag  3:
 E= 0.479231745345601E-01 Delta-E=       -0.000195466481 Rises=F Damp=F
 DIIS: error= 1.71D-04 at cycle   5 NSaved=   5.
 NSaved= 5 IEnMin= 5 EnMin= 0.479231745345601E-01 IErMin= 5 ErrMin= 1.71D-04
 ErrMax= 1.71D-04  0.00D+00 EMaxC= 1.00D-01 BMatC= 1.45D-06 BMatP= 3.19D-05
 IDIUse=3 WtCom= 9.98D-01 WtEn= 1.71D-03
 Coeff-Com: -0.601D-02 0.227D-01 0.533D-01-0.494D+00 0.142D+01
 Coeff-En:   0.000D+00 0.000D+00 0.000D+00 0.000D+00 0.100D+01
 Coeff:     -0.600D-02 0.227D-01 0.532D-01-0.493D+00 0.142D+01
 Gap=     0.393 Goal=   None    Shift=    0.000
 RMSDP=2.00D-04 MaxDP=1.89D-03 DE=-1.95D-04 OVMax= 1.68D-03

 Cycle   6  Pass 1  IDiag  3:
 E= 0.479138751015284E-01 Delta-E=       -0.000009299433 Rises=F Damp=F
 DIIS: error= 6.28D-05 at cycle   6 NSaved=   6.
 NSaved= 6 IEnMin= 6 EnMin= 0.479138751015284E-01 IErMin= 6 ErrMin= 6.28D-05
 ErrMax= 6.28D-05  0.00D+00 EMaxC= 1.00D-01 BMatC= 1.04D-07 BMatP= 1.45D-06
 IDIUse=1 WtCom= 1.00D+00 WtEn= 0.00D+00
 Coeff-Com:  0.267D-02-0.103D-01-0.139D-01 0.183D+00-0.694D+00 0.153D+01
 Coeff:      0.267D-02-0.103D-01-0.139D-01 0.183D+00-0.694D+00 0.153D+01
 Gap=     0.393 Goal=   None    Shift=    0.000
 RMSDP=6.28D-05 MaxDP=4.77D-04 DE=-9.30D-06 OVMax= 7.74D-04

 Cycle   7  Pass 1  IDiag  3:
 E= 0.479130451142282E-01 Delta-E=       -0.000000829987 Rises=F Damp=F
 DIIS: error= 2.45D-05 at cycle   7 NSaved=   7.
 NSaved= 7 IEnMin= 7 EnMin= 0.479130451142282E-01 IErMin= 7 ErrMin= 2.45D-05
 ErrMax= 2.45D-05  0.00D+00 EMaxC= 1.00D-01 BMatC= 9.22D-09 BMatP= 1.04D-07
 IDIUse=1 WtCom= 1.00D+00 WtEn= 0.00D+00
 Coeff-Com: -0.529D-03 0.169D-02 0.390D-02-0.411D-01 0.173D+00-0.633D+00
 Coeff-Com:  0.150D+01
 Coeff:     -0.529D-03 0.169D-02 0.390D-02-0.411D-01 0.173D+00-0.633D+00
 Coeff:      0.150D+01
 Gap=     0.393 Goal=   None    Shift=    0.000
 RMSDP=2.27D-05 MaxDP=2.03D-04 DE=-8.30D-07 OVMax= 2.65D-04

 Cycle   8  Pass 1  IDiag  3:
 E= 0.479129587323683E-01 Delta-E=       -0.000000086382 Rises=F Damp=F
 DIIS: error= 6.40D-06 at cycle   8 NSaved=   8.
 NSaved= 8 IEnMin= 8 EnMin= 0.479129587323683E-01 IErMin= 8 ErrMin= 6.40D-06
 ErrMax= 6.40D-06  0.00D+00 EMaxC= 1.00D-01 BMatC= 6.38D-10 BMatP= 9.22D-09
 IDIUse=1 WtCom= 1.00D+00 WtEn= 0.00D+00
 Coeff-Com:  0.646D-04 0.507D-05-0.192D-02 0.113D-01-0.468D-01 0.221D+00
 Coeff-Com: -0.774D+00 0.159D+01
 Coeff:      0.646D-04 0.507D-05-0.192D-02 0.113D-01-0.468D-01 0.221D+00
 Coeff:     -0.774D+00 0.159D+01
 Gap=     0.393 Goal=   None    Shift=    0.000
 RMSDP=6.64D-06 MaxDP=6.17D-05 DE=-8.64D-08 OVMax= 7.58D-05

 Cycle   9  Pass 1  IDiag  3:
 E= 0.479129527699627E-01 Delta-E=       -0.000000005962 Rises=F Damp=F
 DIIS: error= 8.29D-07 at cycle   9 NSaved=   9.
 NSaved= 9 IEnMin= 9 EnMin= 0.479129527699627E-01 IErMin= 9 ErrMin= 8.29D-07
 ErrMax= 8.29D-07  0.00D+00 EMaxC= 1.00D-01 BMatC= 2.12D-11 BMatP= 6.38D-10
 IDIUse=1 WtCom= 1.00D+00 WtEn= 0.00D+00
 Coeff-Com:  0.108D-04-0.137D-03 0.547D-03-0.192D-02 0.805D-02-0.543D-01
 Coeff-Com:  0.236D+00-0.618D+00 0.143D+01
 Coeff:      0.108D-04-0.137D-03 0.547D-03-0.192D-02 0.805D-02-0.543D-01
 Coeff:      0.236D+00-0.618D+00 0.143D+01
 Gap=     0.393 Goal=   None    Shift=    0.000
 RMSDP=9.14D-07 MaxDP=7.70D-06 DE=-5.96D-09 OVMax= 1.20D-05

 Cycle  10  Pass 1  IDiag  3:
 E= 0.479129526264899E-01 Delta-E=       -0.000000000143 Rises=F Damp=F
 DIIS: error= 1.47D-07 at cycle  10 NSaved=  10.
 NSaved=10 IEnMin=10 EnMin= 0.479129526264899E-01 IErMin=10 ErrMin= 1.47D-07
 ErrMax= 1.47D-07  0.00D+00 EMaxC= 1.00D-01 BMatC= 1.02D-12 BMatP= 2.12D-11
 IDIUse=1 WtCom= 1.00D+00 WtEn= 0.00D+00
 Coeff-Com: -0.856D-05 0.738D-04-0.238D-03 0.697D-03-0.268D-02 0.199D-01
 Coeff-Com: -0.900D-01 0.243D+00-0.684D+00 0.151D+01
 Coeff:     -0.856D-05 0.738D-04-0.238D-03 0.697D-03-0.268D-02 0.199D-01
 Coeff:     -0.900D-01 0.243D+00-0.684D+00 0.151D+01
 Gap=     0.393 Goal=   None    Shift=    0.000
 RMSDP=1.72D-07 MaxDP=1.06D-06 DE=-1.43D-10 OVMax= 1.93D-06

 Cycle  11  Pass 1  IDiag  3:
 E= 0.479129526205924E-01 Delta-E=       -0.000000000006 Rises=F Damp=F
 DIIS: error= 2.40D-08 at cycle  11 NSaved=  11.
 NSaved=11 IEnMin=11 EnMin= 0.479129526205924E-01 IErMin=11 ErrMin= 2.40D-08
 ErrMax= 2.40D-08  0.00D+00 EMaxC= 1.00D-01 BMatC= 3.23D-14 BMatP= 1.02D-12
 IDIUse=1 WtCom= 1.00D+00 WtEn= 0.00D+00
 Coeff-Com:  0.280D-05-0.245D-04 0.809D-04-0.245D-03 0.891D-03-0.651D-02
 Coeff-Com:  0.290D-01-0.769D-01 0.220D+00-0.587D+00 0.142D+01
 Coeff:      0.280D-05-0.245D-04 0.809D-04-0.245D-03 0.891D-03-0.651D-02
 Coeff:      0.290D-01-0.769D-01 0.220D+00-0.587D+00 0.142D+01
 Gap=     0.393 Goal=   None    Shift=    0.000
 RMSDP=2.73D-08 MaxDP=1.40D-07 DE=-5.90D-12 OVMax= 2.07D-07

 Cycle  12  Pass 1  IDiag  3:
 E= 0.479129526202939E-01 Delta-E=        0.000000000000 Rises=F Damp=F
 DIIS: error= 4.22D-09 at cycle  12 NSaved=  12.
 NSaved=12 IEnMin=12 EnMin= 0.479129526202939E-01 IErMin=12 ErrMin= 4.22D-09
 ErrMax= 4.22D-09  0.00D+00 EMaxC= 1.00D-01 BMatC= 1.33D-15 BMatP= 3.23D-14
 IDIUse=1 WtCom= 1.00D+00 WtEn= 0.00D+00
 Coeff-Com: -0.670D-06 0.580D-05-0.189D-04 0.584D-04-0.199D-03 0.146D-02
 Coeff-Com: -0.638D-02 0.165D-01-0.476D-01 0.136D+00-0.463D+00 0.136D+01
 Coeff:     -0.670D-06 0.580D-05-0.189D-04 0.584D-04-0.199D-03 0.146D-02
 Coeff:     -0.638D-02 0.165D-01-0.476D-01 0.136D+00-0.463D+00 0.136D+01
 Gap=     0.393 Goal=   None    Shift=    0.000
 RMSDP=5.69D-09 MaxDP=3.56D-08 DE=-2.98D-13 OVMax= 2.78D-08

 Cycle  13  Pass 2  IDiag  1:
 SCF Done:  E(RAM1) =  0.479129526203E-01 A.U. after   13 cycles
            NFock= 12  Conv=0.57D-08     -V/T= 1.0029
 KE=-1.667687273734D+01 PE=-1.729988902857D+02 EE= 8.507438053325D+01
 Leave Link  502 at Tue Dec 15 16:13:00 2015, MaxMem=    33554432 cpu:         0.0
 (Enter /home/Applications/g09/g09/l801.exe)
 Range of M.O.s used for correlation:     1    24
 NBasis=    24 NAE=    13 NBE=    13 NFC=     0 NFV=     0
 NROrb=     24 NOA=    13 NOB=    13 NVA=    11 NVB=    11
 Leave Link  801 at Tue Dec 15 16:13:00 2015, MaxMem=    33554432 cpu:         0.0
 (Enter /home/Applications/g09/g09/l914.exe)
 RHF ground state
 MDV=    33554432 DFT=F DoStab=F Mixed=F DoRPA=F DoScal=F NonHer=F
 Making orbital integer symmetry assigments:
 Orbital symmetries:
       Occupied  (A) (A) (A) (A) (A) (A) (A) (A) (A) (A) (A) (A)
                 (A)
       Virtual   (A) (A) (A) (A) (A) (A) (A) (A) (A) (A) (A)
    60 initial guesses have been made.
 Convergence on wavefunction:    0.000001000000000
 Davidson Disk Diagonalization:  ConvIn= 1.00D-06 SkipCon=T Conv= 1.00D-06.
 Max sub-space:   240 roots to seek:    60 dimension of matrix:          286
 Iteration     1 Dimension    60 NMult     0 NNew     60
 CISAX will form    60 AO SS matrices at one time.
 NMat=    60 NSing=    60 JSym2X= 0.
 FoFJK:  IHMeth= 8 ICntrl=       0 DoSepK=F KAlg= 0 I1Cent=   0 FoldK=F
 IRaf=         1 NMat= 120 IRICut=       1 DoRegI=T DoRafI=F ISym2E= 0.
 FoFCou: FMM=F IPFlag=           0 FMFlag=      100000 FMFlg1=           0
         NFxFlg=           0 DoJE=F BraDBF=F KetDBF=F FulRan=T
         wScrn=  0.000000 ICntrl=       0 IOpCl=  0 I1Cent=           0 NGrid=           0
         NMat0=  120 NMatS0=     60 NMatT0=    0 NMatD0=  120 NMtDS0=    0 NMtDT0=    0
 Symmetry not used in FoFCou.
 New state      2 was old state      4
 New state      3 was old state      2
 New state      4 was old state      9
 New state      5 was old state      7
 New state      6 was old state      8
 New state      7 was old state      6
 New state      8 was old state      5
 New state      9 was old state      3
 New state     10 was old state     11
 New state     11 was old state     12
 New state     12 was old state     16
 New state     14 was old state     20
 New state     15 was old state     19
 Excitation Energies [eV] at current iteration:
 Root      1 :     4.807718690816751
 Root      2 :     5.064386267861602
 Root      3 :     5.271432182987213
 Root      4 :     6.240636373141715
 Root      5 :     6.358596008377263
 Root      6 :     6.435536140562273
 Root      7 :     6.537347984063421
 Root      8 :     6.627389897886172
 Root      9 :     6.656505560071400
 Root     10 :     7.144629649933213
 Root     11 :     7.257237170163487
 Root     12 :     7.443717928001020
 Root     13 :     7.616787153318475
 Root     14 :     7.720873796312786
 Root     15 :     7.833745663451944
 Root     16 :     7.982232113477267
 Root     17 :     8.064481360800286
 Root     18 :     8.215926020919985
 Root     19 :     8.361616608766141
 Root     20 :     8.501859853373491
 Root     21 :     8.641155565616636
 Root     22 :     8.845636286713839
 Root     23 :     8.990681860907221
 Root     24 :     9.235332505669149
 Root     25 :     9.346621044081990
 Root     26 :     9.375069567597711
 Root     27 :     9.500069022482091
 Root     28 :     9.630933516269760
 Root     29 :     9.715905566999007
 Root     30 :     9.773186566800661
 Root     31 :     9.893832422742234
 Root     32 :     9.952707735020232
 Root     33 :    10.040766530370210
 Root     34 :    10.071839737446400
 Root     35 :    10.242800404397090
 Root     36 :    10.266909039883940
 Root     37 :    10.445821604723960
 Root     38 :    10.472787165099830
 Root     39 :    10.791563395693010
 Root     40 :    10.997166810646020
 Root     41 :    11.105332704375240
 Root     42 :    11.159760168669130
 Root     43 :    11.192313979965890
 Root     44 :    11.448260101224130
 Root     45 :    11.510909530896170
 Root     46 :    11.753043899327480
 Root     47 :    11.800375316851880
 Root     48 :    12.004365881212510
 Root     49 :    12.098245362960930
 Root     50 :    12.275933013688870
 Root     51 :    12.453281250750840
 Root     52 :    12.561565221448470
 Root     53 :    12.798453884585480
 Root     54 :    12.830709259865830
 Root     55 :    12.957927900750610
 Root     56 :    13.187511068534530
 Root     57 :    13.383922146869920
 Root     58 :    13.458423995313690
 Root     59 :    13.741998599931120
 Root     60 :    13.872349694656900
 Iteration     2 Dimension   120 NMult    60 NNew     60
 CISAX will form    60 AO SS matrices at one time.
 NMat=    60 NSing=    60 JSym2X= 0.
 Root      1 not converged, maximum delta is    0.036493199603071
 Root      2 not converged, maximum delta is    0.034718537638044
 Root      3 not converged, maximum delta is    0.012747374860807
 New state      4 was old state      6
 Root      4 not converged, maximum delta is    0.327908569897614
 New state      5 was old state      4
 Root      5 not converged, maximum delta is    0.219465091387861
 New state      6 was old state      5
 Root      6 not converged, maximum delta is    0.474117767359943
 Root      7 not converged, maximum delta is    0.162115757007028
 New state      8 was old state      9
 Root      8 not converged, maximum delta is    0.406959492985751
 New state      9 was old state      8
 Root      9 not converged, maximum delta is    0.288961848862367
 Root     10 not converged, maximum delta is    0.050214021973400
 Root     11 not converged, maximum delta is    0.032331452657684
 Root     12 not converged, maximum delta is    0.041196408260730
 Root     13 not converged, maximum delta is    0.039501585095223
 Root     14 not converged, maximum delta is    0.041581826426979
 Root     15 not converged, maximum delta is    0.123683674127712
 Excitation Energies [eV] at current iteration:
 Root      1 :     4.732369775359452   Change is   -0.075348915457299
 Root      2 :     5.026714131172858   Change is   -0.037672136688744
 Root      3 :     5.259683448072026   Change is   -0.011748734915187
 Root      4 :     6.121906419709309   Change is   -0.313629720852964
 Root      5 :     6.142558176289990   Change is   -0.098078196851725
 Root      6 :     6.274940346076241   Change is   -0.083655662301023
 Root      7 :     6.445384078074462   Change is   -0.091963905988958
 Root      8 :     6.532836367774124   Change is   -0.123669192297277
 Root      9 :     6.579774062961893   Change is   -0.047615834924278
 Root     10 :     7.063835407493092   Change is   -0.080794242440122
 Root     11 :     7.196658787819389   Change is   -0.060578382344098
 Root     12 :     7.353390098104625   Change is   -0.090327829896396
 Root     13 :     7.508608375929953   Change is   -0.108178777388522
 Root     14 :     7.588552145142818   Change is   -0.132321651169968
 Root     15 :     7.771324872238098   Change is   -0.062420791213846
 Root     16 :     7.860483155292322   Change is   -0.121748958184946
 Root     17 :     8.004833223369310   Change is   -0.059648137430976
 Root     18 :     8.132036726032926   Change is   -0.083889294887060
 Root     19 :     8.199775253861649   Change is   -0.302084599511842
 Root     20 :     8.215107458416044   Change is   -0.146509150350097
 Root     21 :     8.500180688416002   Change is   -0.140974877200634
 Root     22 :     8.731512839222502   Change is   -0.114123447491338
 Root     23 :     8.927965150756194   Change is   -0.062716710151027
 Root     24 :     8.967117505752858   Change is   -0.407952061844852
 Root     25 :     9.128652357128583   Change is   -0.106680148540566
 Root     26 :     9.238754625123750   Change is   -0.655077797618484
 Root     27 :     9.288882609290260   Change is   -0.057738434791730
 Root     28 :     9.328992075632989   Change is   -0.386913491366018
 Root     29 :     9.433869499877410   Change is   -0.066199522604680
 Root     30 :     9.541935250938492   Change is   -0.088998265331267
 Root     31 :     9.572312690133030   Change is   -0.380395044887202
 Root     32 :     9.665328232618490   Change is   -0.406511504827907
 Root     33 :     9.698670311458088   Change is   -0.074516255342574
 Root     34 :     9.804739311709252   Change is   -0.236027218660959
 Root     35 :     9.845912971992592   Change is   -0.396887432404504
 Root     36 :     9.921918720477670   Change is   -0.344990319406265
 Root     37 :    10.033663467068540   Change is   -0.412158137655415
 Root     38 :    10.090789915455790   Change is   -0.381997249644037
 Root     39 :    10.291675318968100   Change is   -0.499888076724905
 Root     40 :    10.702023658950630   Change is   -0.295143151695387
 Root     41 :    10.800903626394380   Change is   -0.391410353571513
 Root     42 :    10.818362720395950   Change is   -0.341397448273177
 Root     43 :    10.983542289089250   Change is   -0.121790415285993
 Root     44 :    11.194061790651980   Change is   -0.254198310572153
 Root     45 :    11.346289454478980   Change is   -0.164620076417190
 Root     46 :    11.444554648056170   Change is   -0.308489251271309
 Root     47 :    11.510572650712700   Change is   -0.289802666139182
 Root     48 :    11.532881689167440   Change is   -0.471484192045062
 Root     49 :    11.747919049438450   Change is   -0.350326313522484
 Root     50 :    11.819603807447640   Change is   -0.456329206241230
 Root     51 :    11.898739257881850   Change is   -0.554541992868982
 Root     52 :    12.117387684221600   Change is   -0.444177537226869
 Root     53 :    12.288042282695510   Change is   -0.542666977170318
 Root     54 :    12.641023036263750   Change is   -0.157430848321736
 Root     55 :    12.700670384803440   Change is   -0.257257515947170
 Root     56 :    12.755084715449540
 Root     57 :    12.997188926090360   Change is   -0.744809673840764
 Root     58 :    13.083922784973300   Change is   -0.103588283561224
 Root     59 :    13.188109492473540   Change is   -0.195812654396378
 Root     60 :    13.253100151299800   Change is   -0.205323844013889
 Iteration     3 Dimension   135 NMult   120 NNew     15
 CISAX will form    15 AO SS matrices at one time.
 NMat=    15 NSing=    15 JSym2X= 0.
 Root      1 not converged, maximum delta is    0.001873211946676
 Root      2 not converged, maximum delta is    0.000147109584372
 Root      3 not converged, maximum delta is    0.000337778588739
 Root      4 not converged, maximum delta is    0.000166579143124
 Root      5 not converged, maximum delta is    0.000105824635534
 Root      6 not converged, maximum delta is    0.000175989775406
 Root      7 not converged, maximum delta is    0.001210763400205
 Root      8 not converged, maximum delta is    0.001117942212270
 Root      9 not converged, maximum delta is    0.002501606014953
 Root     10 not converged, maximum delta is    0.000174521963740
 Root     11 not converged, maximum delta is    0.000161107917625
 Root     12 not converged, maximum delta is    0.000357803208423
 Root     13 not converged, maximum delta is    0.000225811327421
 Root     14 not converged, maximum delta is    0.000746502387621
 Root     15 not converged, maximum delta is    0.000215696542617
 Excitation Energies [eV] at current iteration:
 Root      1 :     4.731816645740015   Change is   -0.000553129619437
 Root      2 :     5.026710993001029   Change is   -0.000003138171828
 Root      3 :     5.259642456098035   Change is   -0.000040991973990
 Root      4 :     6.121898816285017   Change is   -0.000007603424292
 Root      5 :     6.142556938343434   Change is   -0.000001237946556
 Root      6 :     6.274935313647640   Change is   -0.000005032428601
 Root      7 :     6.445066972914602   Change is   -0.000317105159860
 Root      8 :     6.532681444873496   Change is   -0.000154922900628
 Root      9 :     6.579229984960819   Change is   -0.000544078001073
 Root     10 :     7.063832276511580   Change is   -0.000003130981511
 Root     11 :     7.196654226872716   Change is   -0.000004560946673
 Root     12 :     7.353377371335364   Change is   -0.000012726769260
 Root     13 :     7.508594954446416   Change is   -0.000013421483537
 Root     14 :     7.588499901649295   Change is   -0.000052243493523
 Root     15 :     7.771319511453080   Change is   -0.000005360785018
 Iteration     4 Dimension   143 NMult   135 NNew      8
 CISAX will form     8 AO SS matrices at one time.
 NMat=     8 NSing=     8 JSym2X= 0.
 Root      1 not converged, maximum delta is    0.000041321272846
 Root      2 not converged, maximum delta is    0.000003204229897
 Root      3 not converged, maximum delta is    0.000008759146083
 Root      4 not converged, maximum delta is    0.000006351089385
 Root      5 not converged, maximum delta is    0.000002825832288
 Root      6 not converged, maximum delta is    0.000006324536363
 Root      7 not converged, maximum delta is    0.000062318804358
 Root      8 not converged, maximum delta is    0.000045522394176
 Root      9 not converged, maximum delta is    0.000036735635703
 Root     10 not converged, maximum delta is    0.000004985180180
 Root     11 not converged, maximum delta is    0.000006251784312
 Root     12 not converged, maximum delta is    0.000017657219433
 Root     13 not converged, maximum delta is    0.000012051429450
 Root     14 not converged, maximum delta is    0.000032300818622
 Root     15 not converged, maximum delta is    0.000007712626283
 Excitation Energies [eV] at current iteration:
 Root      1 :     4.731815876762600   Change is   -0.000000768977415
 Root      2 :     5.026710989209133   Change is   -0.000000003791897
 Root      3 :     5.259642424833104   Change is   -0.000000031264932
 Root      4 :     6.121898805991492   Change is   -0.000000010293524
 Root      5 :     6.142556935623377   Change is   -0.000000002720057
 Root      6 :     6.274935299425365   Change is   -0.000000014222275
 Root      7 :     6.445066210094642   Change is   -0.000000762819960
 Root      8 :     6.532681035951902   Change is   -0.000000408921594
 Root      9 :     6.579229330392643   Change is   -0.000000654568177
 Root     10 :     7.063832272129173   Change is   -0.000000004382407
 Root     11 :     7.196654210547008   Change is   -0.000000016325708
 Root     12 :     7.353377325158658   Change is   -0.000000046176706
 Root     13 :     7.508594921636533   Change is   -0.000000032809883
 Root     14 :     7.588499698569191   Change is   -0.000000203080104
 Root     15 :     7.771319494648430   Change is   -0.000000016804650
 Convergence achieved on expansion vectors.
 ***********************************************************************
 Excited states from <AA,BB:AA,BB> singles matrix:
 ***********************************************************************
 
 1PDM for each excited state written to RWF  633
 Ground to excited state transition densities written to RWF  633
 Ground to excited state transition electric dipole moments (Au):
       state          X           Y           Z        Dip. S.      Osc.
         1        -0.8236      0.0873      0.0049      0.6860      0.0795
         2        -0.0457     -0.0001     -0.0123      0.0022      0.0003
         3        -0.0543     -0.3173      0.0251      0.1042      0.0134
         4        -0.0107      0.0168      0.1048      0.0114      0.0017
         5        -0.0075     -0.0146     -0.0450      0.0023      0.0003
         6         0.0231      0.0023     -0.0446      0.0025      0.0004
         7         0.0916      1.2793     -0.0449      1.6471      0.2601
         8        -0.0656     -0.8991      0.0390      0.8142      0.1303
         9        -0.9726      0.0051     -0.0068      0.9460      0.1525
        10         0.0058      0.0006      0.0015      0.0000      0.0000
        11         0.0226     -0.0169     -0.1410      0.0207      0.0036
        12         0.0320      0.0381      0.0846      0.0096      0.0017
        13         0.0249     -0.0085      0.0731      0.0060      0.0011
        14        -0.0205     -0.0169      0.0229      0.0012      0.0002
        15         0.0042      0.0039     -0.2817      0.0794      0.0151
 Ground to excited state transition velocity dipole moments (Au):
       state          X           Y           Z        Dip. S.      Osc.
         1         0.0399     -0.0117     -0.0013      0.0017      0.0066
         2         0.0045     -0.0003      0.0042      0.0000      0.0001
         3         0.0153      0.0216      0.0053      0.0007      0.0025
         4         0.0013     -0.0047     -0.0793      0.0063      0.0187
         5         0.0028      0.0039      0.0245      0.0006      0.0018
         6        -0.0062      0.0006      0.0028      0.0000      0.0001
         7        -0.0121     -0.2802     -0.0948      0.0876      0.2467
         8         0.0111      0.2004     -0.1503      0.0629      0.1746
         9         0.1718      0.0027      0.0024      0.0295      0.0814
        10         0.0017     -0.0004      0.0244      0.0006      0.0015
        11        -0.0034      0.0012     -0.0110      0.0001      0.0003
        12        -0.0001     -0.0112      0.0080      0.0002      0.0005
        13         0.0026      0.0020     -0.0277      0.0008      0.0019
        14         0.0040      0.0037     -0.0301      0.0009      0.0022
        15         0.0016      0.0024      0.0771      0.0060      0.0139
 Ground to excited state transition magnetic dipole moments (Au):
       state          X           Y           Z
         1        -0.0104     -0.0562     -0.6066
         2         0.0656      0.5970     -0.0202
         3        -0.0144      0.0017      0.0308
         4         0.0759     -0.1117     -0.0050
         5        -0.2805     -0.0834     -0.0021
         6        -0.1532      0.0139     -0.0027
         7        -0.0368      0.0832      0.0260
         8        -0.0001      0.1102     -0.0073
         9        -0.0069      0.0415     -0.0890
        10        -0.0872      0.8851      0.0284
        11        -1.7146     -0.1282     -0.0007
        12         0.1476     -0.0807      0.0150
        13         0.0557     -0.5640      0.0011
        14        -0.5034      0.5305      0.0187
        15         0.3539     -0.0757      0.0108
 Ground to excited state transition velocity quadrupole moments (Au):
       state          XX          YY          ZZ          XY          XZ          YZ
         1        -0.0242      0.0381     -0.0148     -0.5035      0.0064      0.0003
         2        -0.0027      0.0050     -0.0028     -0.0293      0.1671     -0.0044
         3        -0.1022      0.1350     -0.0730      0.1243     -0.0027     -0.0081
         4         0.0097      0.0100     -0.0167      0.0102      0.0014      0.1474
         5         0.0159     -0.0056      0.0184      0.0063      0.0633     -0.2667
         6         0.0094     -0.0028      0.0138     -0.0285     -0.1332     -0.1405
         7         0.3681     -0.2012     -0.0315      0.0370     -0.0127      0.0584
         8        -0.2682      0.1496      0.0277     -0.0049     -0.0193      0.1021
         9         0.0404     -0.0435      0.0113      0.5024      0.0128     -0.0027
        10         0.0061     -0.0040     -0.0016      0.0279     -0.2901     -0.0576
        11        -0.0189     -0.0127     -0.0023      0.0020     -0.0146      0.0360
        12        -0.0012     -0.0105      0.0059      0.0014     -0.1652      0.2457
        13         0.0111      0.0088     -0.0058      0.0200     -0.1739     -0.2387
        14        -0.0025      0.0035     -0.0034     -0.0139      0.0196     -0.1378
        15        -0.0044     -0.0174      0.0057      0.0051     -0.0450      0.3147
 <0|del|b> * <b|rxdel|0> + <0|del|b> * <b|delr+rdel|0>
 Rotatory Strengths (R) in cgs (10**-40 erg-esu-cm/Gauss)
       state          XX          YY          ZZ    R(velocity)    E-M Angle
         1         4.5060     -0.5325      0.3114      1.4283       87.62
         2        -0.6558      0.6039      0.1481      0.0321       90.00
         3         1.6701     -1.5351     -0.2144     -0.0265       90.00
         4         0.1905      2.3501      0.6757      1.0721       84.53
         5        -0.7333     -2.6989     -0.1822     -1.2048       99.11
         6         0.0014      2.9185      0.0117      0.9772       25.09
         7       -49.0381      1.1670    -27.7688    -25.2133      154.74
         8        40.9209      2.2014     25.1437     22.7553       33.15
         9         1.5524     -4.4535     -0.8450     -1.2487       94.34
        10         1.2978     -0.3274     -0.3600      0.2035       89.41
        11        -0.1956      7.6574      7.7220      5.0613       73.37
        12        -1.0650      0.0927      3.6139      0.8805       64.26
        13        -1.7273      0.0686     -0.8838     -0.8475       93.59
        14         2.2124     -4.5229      0.7095     -0.5337       91.62
        15         1.4249      1.8743     -0.2753      1.0080       87.49
 1/2[<0|r|b>*<b|rxdel|0> + (<0|rxdel|b>*<b|r|0>)*]
 Rotatory Strengths (R) in cgs (10**-40 erg-esu-cm/Gauss)
       state          XX          YY          ZZ     R(length)
         1        -6.0281      3.4698      2.1202     -0.1460
         2         2.1228      0.0628     -0.1755      0.6700
         3        -0.5524      0.3707     -0.5461     -0.2426
         4         0.5724      1.3297      0.3671      0.7564
         5        -1.4876     -0.8633     -0.0668     -0.8059
         6         2.5012     -0.0224     -0.0850      0.7979
         7         2.3839    -75.2783      0.8245    -24.0233
         8        -0.0052     70.0448      0.2029     23.4142
         9        -4.7333     -0.1493     -0.4308     -1.7711
        10         0.3606     -0.3990     -0.0291     -0.0225
        11        27.3520     -1.5354     -0.0702      8.5821
        12        -3.3393      2.1776     -0.8961     -0.6860
        13        -0.9798     -3.3845     -0.0560     -1.4734
        14        -7.3146      6.3246     -0.3031     -0.4310
        15        -1.0509      0.2071      2.1547      0.4370
  1/2[<0|del|b>*<b|r|0> + (<0|r|b>*<b|del|0>)*] (Au)
       state          X           Y           Z        Dip. S.   Osc.(frdel)
         1        -0.0329     -0.0010      0.0000      0.0339      0.0226
         2        -0.0002      0.0000     -0.0001      0.0003      0.0002
         3        -0.0008     -0.0069      0.0001      0.0076      0.0050
         4         0.0000     -0.0001     -0.0083      0.0084      0.0056
         5         0.0000     -0.0001     -0.0011      0.0012      0.0008
         6        -0.0001      0.0000     -0.0001      0.0003      0.0002
         7        -0.0011     -0.3585      0.0043      0.3553      0.2369
         8        -0.0007     -0.1801     -0.0059      0.1867      0.1245
         9        -0.1671      0.0000      0.0000      0.1671      0.1114
        10         0.0000      0.0000      0.0000      0.0000      0.0000
        11        -0.0001      0.0000      0.0015     -0.0014     -0.0010
        12         0.0000     -0.0004      0.0007     -0.0002     -0.0002
        13         0.0001      0.0000     -0.0020      0.0020      0.0013
        14        -0.0001     -0.0001     -0.0007      0.0008      0.0006
        15         0.0000      0.0000     -0.0217      0.0217      0.0145

 Excitation energies and oscillator strengths:
 
 Excited State   1:      Singlet-A      4.7318 eV  262.02 nm  f=0.0795  <S**2>=0.000
      12 -> 15        -0.22889
      13 -> 14         0.66160
 This state for optimization and/or second-order correction.
 Total Energy, E(CIS) =  0.221803993996    
 Copying the excited state density for this state as the 1-particle RhoCI density.
 
 Excited State   2:      Singlet-A      5.0267 eV  246.65 nm  f=0.0003  <S**2>=0.000
      13 -> 16         0.67841
      13 -> 19         0.10154
 
 Excited State   3:      Singlet-A      5.2596 eV  235.73 nm  f=0.0134  <S**2>=0.000
      12 -> 14         0.39521
      13 -> 15         0.58234
 
 Excited State   4:      Singlet-A      6.1219 eV  202.53 nm  f=0.0017  <S**2>=0.000
       7 -> 16        -0.14246
      12 -> 16         0.64033
      12 -> 22        -0.15181
 
 Excited State   5:      Singlet-A      6.1426 eV  201.84 nm  f=0.0003  <S**2>=0.000
      12 -> 19         0.19787
      12 -> 22         0.14585
      13 -> 19         0.48472
      13 -> 22         0.25206
      13 -> 23        -0.27141
 
 Excited State   6:      Singlet-A      6.2749 eV  197.59 nm  f=0.0004  <S**2>=0.000
      12 -> 18        -0.17850
      12 -> 20         0.17903
      12 -> 22         0.11326
      12 -> 23         0.14498
      13 -> 17         0.18985
      13 -> 18         0.36848
      13 -> 20        -0.20058
      13 -> 22        -0.34502
      13 -> 23        -0.16252
 
 Excited State   7:      Singlet-A      6.4451 eV  192.37 nm  f=0.2601  <S**2>=0.000
      12 -> 14         0.45834
      13 -> 15        -0.31075
      13 -> 17         0.32667
      13 -> 18        -0.16369
 
 Excited State   8:      Singlet-A      6.5327 eV  189.79 nm  f=0.1303  <S**2>=0.000
      12 -> 14        -0.30312
      13 -> 15         0.21390
      13 -> 17         0.48609
      13 -> 18        -0.23873
      13 -> 20         0.11022
 
 Excited State   9:      Singlet-A      6.5792 eV  188.45 nm  f=0.1525  <S**2>=0.000
      12 -> 15         0.65692
      13 -> 14         0.21391
 
 Excited State  10:      Singlet-A      7.0638 eV  175.52 nm  f=0.0000  <S**2>=0.000
      12 -> 17         0.40303
      12 -> 18        -0.19997
      12 -> 19        -0.20180
      12 -> 20         0.19105
      12 -> 21        -0.16124
      13 -> 17        -0.11335
      13 -> 18        -0.22058
      13 -> 19         0.20515
      13 -> 22        -0.24960
 
 Excited State  11:      Singlet-A      7.1967 eV  172.28 nm  f=0.0036  <S**2>=0.000
       9 -> 14         0.19865
       9 -> 15         0.13978
      10 -> 14         0.27632
      10 -> 15        -0.23370
      11 -> 14         0.48918
      11 -> 15        -0.14330
 
 Excited State  12:      Singlet-A      7.3534 eV  168.61 nm  f=0.0017  <S**2>=0.000
      11 -> 14         0.10284
      12 -> 17         0.25562
      12 -> 18         0.30485
      12 -> 20         0.15785
      12 -> 21        -0.10487
      12 -> 22        -0.17155
      12 -> 23        -0.15134
      13 -> 17         0.13645
      13 -> 18         0.35664
      13 -> 20         0.23028
 
 Excited State  13:      Singlet-A      7.5086 eV  165.12 nm  f=0.0011  <S**2>=0.000
       9 -> 14        -0.21394
      10 -> 14         0.17949
      11 -> 15        -0.23542
      12 -> 18        -0.11875
      12 -> 21        -0.18702
      12 -> 23        -0.17023
      13 -> 19        -0.22153
      13 -> 20        -0.12784
      13 -> 21        -0.25843
      13 -> 22         0.26904
      13 -> 23        -0.13199
 
 Excited State  14:      Singlet-A      7.5885 eV  163.38 nm  f=0.0002  <S**2>=0.000
       9 -> 14         0.31181
      10 -> 14        -0.31393
      11 -> 15         0.33476
      12 -> 21        -0.15768
      13 -> 19        -0.19523
      13 -> 21        -0.15185
      13 -> 22         0.13780
      13 -> 23        -0.12276
 
 Excited State  15:      Singlet-A      7.7713 eV  159.54 nm  f=0.0151  <S**2>=0.000
       9 -> 14        -0.10373
      10 -> 14        -0.13226
      12 -> 18        -0.11945
      12 -> 20         0.20534
      12 -> 23        -0.10118
      13 -> 17         0.13357
      13 -> 20        -0.31237
      13 -> 21         0.25381
      13 -> 22         0.18119
      13 -> 23         0.40787
 SavETr:  write IOETrn=   770 NScale= 10 NData=  16 NLR=1 NState=   15 LETran=     280.
 The selected state is a singlet
 CISAX will form     1 AO SS matrices at one time.
 NMat=     1 NSing=     1 JSym2X= 0.
 Leave Link  914 at Tue Dec 15 16:13:00 2015, MaxMem=    33554432 cpu:         0.1
 (Enter /home/Applications/g09/g09/l1002.exe)
 Minotr:  Closed shell wavefunction.
          Computing CIS/TD-HF/TD-KS derivatives.
          Using Z-Vector for PSCF gradient.
          Skipping F1 and S1 gradient terms here.
          IDoAtm=111111111
          Direct CPHF calculation.
          Differentiating once with respect to electric field.
                with respect to dipole field.
          Differentiating once with respect to nuclear coordinates.
          Electric field/nuclear overlap derivatives assumed to be zero.
          Requested convergence is 1.0D-10 RMS, and 1.0D-09 maximum.
          NewPWx=T KeepS1=F KeepF1=F KeepIn=T MapXYZ=F SortEE=F KeepMc=T.
          MDV=      33495423 using IRadAn=       0.
 Keep J ints in memory in canonical form, NReq=871704.
 FoFCou: FMM=F IPFlag=           0 FMFlag=           0 FMFlg1=           0
         NFxFlg=           0 DoJE=F BraDBF=F KetDBF=F FulRan=T
         wScrn=  0.000000 ICntrl=     600 IOpCl=  2 I1Cent=           0 NGrid=           0
         NMat0=    1 NMatS0=     54 NMatT0=    0 NMatD0=    1 NMtDS0=    0 NMtDT0=    0
 Symmetry not used in FoFCou.
          Solving linear equations separately, MaxMat=       0.
          There are     1 degrees of freedom in the 1st order CPHF.  IDoFFX=0 NUNeed=     1.
 LinEq1:  Iter=  0 NonCon=     1 RMS=1.20D-02 Max=8.78D-02 NDo=     1
 AX will form     1 AO Fock derivatives at one time.
 LinEq1:  Iter=  1 NonCon=     1 RMS=2.19D-03 Max=1.34D-02 NDo=     1
 LinEq1:  Iter=  2 NonCon=     1 RMS=3.20D-04 Max=1.92D-03 NDo=     1
 LinEq1:  Iter=  3 NonCon=     1 RMS=3.96D-05 Max=1.89D-04 NDo=     1
 LinEq1:  Iter=  4 NonCon=     1 RMS=4.46D-06 Max=2.15D-05 NDo=     1
 LinEq1:  Iter=  5 NonCon=     1 RMS=8.11D-07 Max=6.33D-06 NDo=     1
 LinEq1:  Iter=  6 NonCon=     1 RMS=1.12D-07 Max=4.43D-07 NDo=     1
 LinEq1:  Iter=  7 NonCon=     1 RMS=1.47D-08 Max=5.87D-08 NDo=     1
 LinEq1:  Iter=  8 NonCon=     1 RMS=1.57D-09 Max=5.47D-09 NDo=     1
 LinEq1:  Iter=  9 NonCon=     1 RMS=1.73D-10 Max=7.50D-10 NDo=     1
 LinEq1:  Iter= 10 NonCon=     0 RMS=2.03D-11 Max=7.17D-11 NDo=     1
 Linear equations converged to 1.000D-10 1.000D-09 after    10 iterations.
 End of Minotr F.D. properties file   721 does not exist.
 End of Minotr F.D. properties file   722 does not exist.
 End of Minotr F.D. properties file   788 does not exist.
 Leave Link 1002 at Tue Dec 15 16:13:00 2015, MaxMem=    33554432 cpu:         0.0
 (Enter /home/Applications/g09/g09/l601.exe)
 Copying SCF densities to generalized density rwf, IOpCl= 0 IROHF=0.

 **********************************************************************

            Population analysis using the SCF density.

 **********************************************************************

 Orbital symmetries:
       Occupied  (A) (A) (A) (A) (A) (A) (A) (A) (A) (A) (A) (A)
                 (A)
       Virtual   (A) (A) (A) (A) (A) (A) (A) (A) (A) (A) (A)
 The electronic state is 1-A.
 Alpha  occ. eigenvalues --   -1.63299  -1.25044  -1.11252  -0.83861  -0.80201
 Alpha  occ. eigenvalues --   -0.69209  -0.63188  -0.55954  -0.50898  -0.49601
 Alpha  occ. eigenvalues --   -0.49226  -0.39589  -0.35028
 Alpha virt. eigenvalues --    0.04281   0.06989   0.09516   0.13384   0.14643
 Alpha virt. eigenvalues --    0.15446   0.17921   0.18815   0.19180   0.20700
 Alpha virt. eigenvalues --    0.23717
     Molecular Orbital Coefficients:
                           1         2         3         4         5
                           O         O         O         O         O
     Eigenvalues --    -1.63299  -1.25044  -1.11252  -0.83861  -0.80201
   1 1   C  1S          0.27164  -0.49809  -0.24491   0.36492  -0.21755
   2        1PX         0.06366  -0.07915   0.15978  -0.19164  -0.23212
   3        1PY        -0.11575   0.04865   0.11909   0.05369  -0.29707
   4        1PZ         0.00215  -0.00372  -0.00247   0.00498  -0.00329
   5 2   C  1S          0.35334  -0.16636  -0.50692  -0.11006   0.38466
   6        1PX         0.18980   0.03903  -0.01311  -0.10717  -0.13857
   7        1PY        -0.01403  -0.24081   0.00775   0.36587   0.04446
   8        1PZ        -0.00166   0.00208   0.00327  -0.00008  -0.00692
   9 3   O  1S          0.64149   0.56933  -0.06533   0.01841  -0.29902
  10        1PX         0.01948   0.03412   0.37455   0.51637   0.05982
  11        1PY         0.20956  -0.04070  -0.00054  -0.04806   0.20018
  12        1PZ        -0.00066   0.00097  -0.00042  -0.00005  -0.00642
  13 4   C  1S          0.37881  -0.07781   0.52032   0.04592   0.37547
  14        1PX        -0.20228  -0.06600   0.01093  -0.11091   0.11444
  15        1PY        -0.01590  -0.24754   0.03229  -0.37793  -0.03296
  16        1PZ        -0.00141   0.00153  -0.00345   0.00065  -0.00690
  17 5   C  1S          0.27035  -0.44930   0.31382  -0.32301  -0.27860
  18        1PX        -0.07173   0.10726   0.13340  -0.19486   0.17930
  19        1PY        -0.11617   0.02960  -0.13497   0.04468  -0.28994
  20        1PZ         0.00162  -0.00239   0.00224  -0.00354  -0.00343
  21 6   H  1S          0.04829  -0.12492   0.10665  -0.17437  -0.17476
  22 7   H  1S          0.07314  -0.01039   0.19238   0.05949   0.22830
  23 8   H  1S          0.06686  -0.03729  -0.18548  -0.07986   0.22528
  24 9   H  1S          0.05763  -0.16144  -0.09661   0.24203  -0.16054
                           6         7         8         9        10
                           O         O         O         O         O
     Eigenvalues --    -0.69209  -0.63188  -0.55954  -0.50898  -0.49601
   1 1   C  1S         -0.07414  -0.00542   0.17393  -0.02019  -0.04526
   2        1PX         0.17863  -0.01386  -0.10024  -0.25964  -0.23986
   3        1PY        -0.20301   0.00545   0.14388   0.51255  -0.12073
   4        1PZ        -0.00091   0.21761   0.00871   0.01286   0.01029
   5 2   C  1S         -0.11821   0.01038  -0.15724  -0.03405   0.06806
   6        1PX         0.35248  -0.00498   0.41292  -0.10249   0.27800
   7        1PY         0.10454   0.00025  -0.03438  -0.31960   0.17833
   8        1PZ         0.00654   0.37473   0.01093  -0.00270  -0.00222
   9 3   O  1S         -0.18923  -0.00254   0.00739  -0.10727  -0.05741
  10        1PX         0.04174   0.00136  -0.39962  -0.00492   0.01168
  11        1PY         0.49727   0.00315   0.01952   0.41977   0.32727
  12        1PZ         0.01036   0.76974   0.00174  -0.02282  -0.02346
  13 4   C  1S         -0.11789   0.01026   0.15575   0.08368  -0.05608
  14        1PX        -0.38277   0.00286   0.38863  -0.25562   0.06962
  15        1PY         0.08339   0.00145   0.05150   0.10383  -0.22883
  16        1PZ         0.00842   0.41074  -0.00952  -0.00469  -0.00352
  17 5   C  1S         -0.10620  -0.00333  -0.20354  -0.04935   0.00975
  18        1PX        -0.20884   0.01422  -0.05575   0.16118   0.38322
  19        1PY        -0.17532   0.00292  -0.17873  -0.05875   0.45007
  20        1PZ        -0.00088   0.22366  -0.00636   0.00627   0.01754
  21 6   H  1S         -0.20609   0.01080  -0.23452   0.01463   0.47880
  22 7   H  1S         -0.27893  -0.00224   0.31787  -0.16297   0.10599
  23 8   H  1S         -0.26990   0.00128  -0.34460   0.16641  -0.22414
  24 9   H  1S         -0.20267   0.01087   0.23003   0.44465   0.00267
                          11        12        13        14        15
                           O         O         O         V         V
     Eigenvalues --    -0.49226  -0.39589  -0.35028   0.04281   0.06989
   1 1   C  1S         -0.00350  -0.01056   0.01067   0.00464   0.01576
   2        1PX         0.42496   0.02626  -0.00291  -0.00301  -0.01677
   3        1PY         0.15726  -0.00744   0.00161   0.01223   0.01093
   4        1PZ        -0.01023   0.62712  -0.30946  -0.34792  -0.58336
   5 2   C  1S          0.07956   0.00513  -0.01237   0.02126  -0.00028
   6        1PX        -0.00156  -0.00558   0.00826  -0.00547  -0.01665
   7        1PY        -0.32994  -0.00121  -0.00590  -0.00585  -0.00543
   8        1PZ         0.00233   0.22861  -0.59153   0.57371   0.35591
   9 3   O  1S         -0.18345  -0.00112  -0.00057  -0.00488   0.00158
  10        1PX        -0.01343   0.00035  -0.00674   0.00017  -0.00485
  11        1PY         0.27119  -0.01290  -0.00037  -0.00733   0.00221
  12        1PZ         0.01658  -0.49274  -0.06964  -0.39652   0.02983
  13 4   C  1S          0.05590   0.00213   0.01282   0.02067  -0.00602
  14        1PX         0.11287   0.00375   0.01050   0.00871  -0.01615
  15        1PY        -0.42165  -0.00242   0.00193  -0.00669   0.01145
  16        1PZ        -0.00074   0.08504   0.59232   0.55677  -0.40135
  17 5   C  1S         -0.01752  -0.00686  -0.01177   0.00215  -0.01556
  18        1PX        -0.38786  -0.02683  -0.00942   0.00498  -0.01969
  19        1PY         0.30839  -0.00692  -0.00235   0.01063  -0.01329
  20        1PZ        -0.01048   0.54993   0.44461  -0.28278   0.60612
  21 6   H  1S         -0.00993  -0.00659   0.00098  -0.00733   0.02323
  22 7   H  1S          0.29848   0.00395  -0.00190  -0.02338   0.01905
  23 8   H  1S          0.18587   0.00378   0.00351  -0.02228  -0.01115
  24 9   H  1S         -0.09144  -0.00470  -0.00152  -0.00816  -0.02018
                          16        17        18        19        20
                           V         V         V         V         V
     Eigenvalues --     0.09516   0.13384   0.14643   0.15446   0.17921
   1 1   C  1S          0.03383   0.22822   0.11011   0.15776  -0.06641
   2        1PX        -0.03098   0.20820  -0.14951  -0.16952   0.49590
   3        1PY         0.02331  -0.05866  -0.24443   0.16309   0.18180
   4        1PZ        -0.00136  -0.00852   0.01273   0.02823  -0.00419
   5 2   C  1S         -0.30414  -0.27072  -0.27037  -0.03708   0.27116
   6        1PX        -0.20824   0.32858   0.01272  -0.35323  -0.17862
   7        1PY         0.34500   0.04738  -0.17248   0.06624   0.14678
   8        1PZ         0.01770   0.02090   0.00872  -0.01782  -0.01092
   9 3   O  1S          0.24507   0.00662  -0.05889   0.06646   0.09095
  10        1PX        -0.02754   0.02810  -0.15213  -0.22639   0.17213
  11        1PY         0.43526   0.01178  -0.10442   0.10661   0.12360
  12        1PZ        -0.01085  -0.00055  -0.00843   0.00676   0.00164
  13 4   C  1S         -0.29023   0.18220  -0.04833   0.40013  -0.14220
  14        1PX         0.14595   0.29518  -0.33112   0.08276   0.22466
  15        1PY         0.31388  -0.05463  -0.00232   0.19539   0.13870
  16        1PZ         0.02525  -0.01661   0.02708  -0.01162   0.00347
  17 5   C  1S          0.04686  -0.23844  -0.21709  -0.24664  -0.31029
  18        1PX        -0.00742   0.19509  -0.25922  -0.28200   0.06548
  19        1PY         0.05572  -0.03972  -0.29973   0.25109  -0.32882
  20        1PZ        -0.00979   0.00654  -0.03690  -0.01655  -0.01070
  21 6   H  1S         -0.11966   0.12099   0.57764   0.18049   0.38650
  22 7   H  1S          0.37987  -0.43058   0.29920  -0.27547  -0.00188
  23 8   H  1S          0.33002   0.54261   0.15145  -0.22043  -0.24393
  24 9   H  1S         -0.11870  -0.03966   0.02398  -0.39377   0.16936
                          21        22        23        24
                           V         V         V         V
     Eigenvalues --     0.18815   0.19180   0.20700   0.23717
   1 1   C  1S         -0.39797  -0.33727  -0.16962   0.05791
   2        1PX        -0.09551   0.10018  -0.33614  -0.22673
   3        1PY        -0.36968   0.22086   0.43894  -0.11461
   4        1PZ        -0.02062  -0.01207   0.00793   0.00634
   5 2   C  1S         -0.10225   0.16331   0.13687   0.09601
   6        1PX        -0.13509   0.33714   0.23709   0.22880
   7        1PY         0.11093   0.36518   0.21089  -0.42873
   8        1PZ         0.00745   0.00118  -0.00484   0.00064
   9 3   O  1S          0.07412  -0.06119  -0.00394   0.02149
  10        1PX        -0.08206  -0.01309   0.05750   0.55707
  11        1PY         0.14113  -0.24519   0.00208   0.01108
  12        1PZ         0.00085  -0.00026  -0.00001  -0.00034
  13 4   C  1S          0.09267   0.19933  -0.15225  -0.11346
  14        1PX         0.29017  -0.26759   0.19152   0.28353
  15        1PY        -0.08165   0.33588  -0.24879   0.44997
  16        1PZ        -0.00881  -0.00066   0.00324  -0.00054
  17 5   C  1S          0.15287  -0.19357   0.24681  -0.05981
  18        1PX        -0.40616  -0.19239  -0.28806  -0.22344
  19        1PY         0.03363   0.31276  -0.36409   0.14139
  20        1PZ         0.00458  -0.00449  -0.00522  -0.00617
  21 6   H  1S          0.07083   0.03564   0.17038   0.04524
  22 7   H  1S         -0.26032   0.14747  -0.09907   0.02787
  23 8   H  1S          0.01789   0.21871   0.12016  -0.03044
  24 9   H  1S          0.50997   0.14909  -0.30200  -0.05251
     Density Matrix:
                           1         2         3         4         5
   1 1   C  1S          1.20165
   2        1PX        -0.03631   0.94967
   3        1PY         0.06817  -0.04355   0.97020
   4        1PZ        -0.00927   0.00602   0.00344   1.07383
   5 2   C  1S          0.31530  -0.18506  -0.48266   0.01661   1.24135
   6        1PX         0.12343   0.08067  -0.16935  -0.00417  -0.11756
   7        1PY         0.44765  -0.27788  -0.53226   0.00870  -0.00420
   8        1PZ        -0.02002   0.01341   0.00324   0.81596   0.00954
   9 3   O  1S         -0.00163  -0.03932  -0.00389  -0.00089   0.10872
  10        1PX        -0.00216  -0.02833  -0.03612   0.00129  -0.32916
  11        1PY        -0.08269  -0.01307   0.06382  -0.00374   0.26211
  12        1PZ         0.00420  -0.00363   0.00324  -0.24127   0.00536
  13 4   C  1S         -0.02832  -0.00772   0.02022  -0.00038   0.01919
  14        1PX         0.01506  -0.04177  -0.01299  -0.00283  -0.00665
  15        1PY        -0.01425  -0.07559  -0.02361   0.00180  -0.04505
  16        1PZ         0.00523  -0.00052  -0.00140  -0.08149  -0.00800
  17 5   C  1S          0.27230   0.46769   0.02541  -0.00527  -0.02969
  18        1PX        -0.45810  -0.65441  -0.04866  -0.00714   0.00583
  19        1PY         0.05563   0.10434   0.12266  -0.00501   0.02404
  20        1PZ        -0.00732   0.00473  -0.00531   0.51253  -0.00041
  21 6   H  1S         -0.04764  -0.06502  -0.00015   0.00258   0.05669
  22 7   H  1S          0.04667   0.06802   0.00448   0.00161   0.06168
  23 8   H  1S         -0.05958   0.03306   0.08785  -0.00733   0.59849
  24 9   H  1S          0.57841  -0.44517   0.64438   0.02291  -0.05307
                           6         7         8         9        10
   6        1PX         0.90212
   7        1PY         0.09585   0.89808
   8        1PZ        -0.00173   0.00504   1.08568
   9 3   O  1S          0.23197  -0.17724  -0.00012   1.82800
  10        1PX        -0.42020   0.42444   0.00249  -0.01892   1.14774
  11        1PY         0.49306  -0.23153  -0.00225  -0.31391   0.00145
  12        1PZ        -0.00137  -0.00134   0.43456  -0.00097   0.00030
  13 4   C  1S          0.00727  -0.04398  -0.00796   0.12138   0.35347
  14        1PX         0.05179  -0.02648  -0.00458  -0.25262  -0.44663
  15        1PY         0.01810  -0.01518  -0.00184  -0.17279  -0.41684
  16        1PZ         0.00328  -0.00324  -0.35400  -0.00008  -0.00121
  17 5   C  1S         -0.02169  -0.00894   0.00578   0.00208   0.00320
  18        1PX        -0.04230   0.07572   0.00032   0.04021  -0.03028
  19        1PY         0.02265  -0.03592  -0.00101  -0.01116   0.03890
  20        1PZ         0.00370   0.00119  -0.10720  -0.00117  -0.00186
  21 6   H  1S          0.01586   0.05835  -0.00368   0.02390   0.05382
  22 7   H  1S          0.10310  -0.06538   0.00527  -0.05391  -0.04624
  23 8   H  1S         -0.65215  -0.36695  -0.01627  -0.05124   0.04658
  24 9   H  1S         -0.03794  -0.04362   0.00803   0.02557  -0.05296
                          11        12        13        14        15
  11        1PY         1.38528
  12        1PZ        -0.00046   1.68329
  13 4   C  1S          0.26317   0.00476   1.23015
  14        1PX        -0.49635   0.00349   0.11781   0.90278
  15        1PY        -0.16971  -0.00176  -0.00704  -0.08780   0.91409
  16        1PZ        -0.00222   0.46663   0.00853   0.00189   0.00378
  17 5   C  1S         -0.08890   0.00368   0.31237  -0.08991   0.45799
  18        1PX         0.01827   0.00483   0.15697   0.10166   0.23799
  19        1PY         0.06005   0.00322  -0.48689   0.12140  -0.56020
  20        1PZ        -0.00332  -0.26100   0.01550   0.00705   0.00518
  21 6   H  1S          0.08349  -0.00370  -0.05684   0.03043  -0.05566
  22 7   H  1S         -0.05369  -0.00260   0.59304   0.64106  -0.39265
  23 8   H  1S         -0.05904  -0.00285   0.05547  -0.09235  -0.05024
  24 9   H  1S          0.08293  -0.00354   0.05342  -0.00820   0.05766
                          16        17        18        19        20
  16        1PZ         1.05408
  17 5   C  1S         -0.01622   1.22227
  18        1PX        -0.01324   0.04724   0.95115
  19        1PY         0.00122   0.07247   0.04607   0.96503
  20        1PZ         0.80392  -0.00801  -0.00685   0.00333   1.10131
  21 6   H  1S          0.00734   0.56281   0.49228   0.61775   0.02266
  22 7   H  1S         -0.01847  -0.05847  -0.02474   0.08616  -0.00731
  23 8   H  1S          0.00537   0.04947  -0.06657   0.00565   0.00161
  24 9   H  1S         -0.00297  -0.04251   0.05534   0.00059   0.00327
                          21        22        23        24
  21 6   H  1S          0.83491
  22 7   H  1S          0.00672   0.80776
  23 8   H  1S         -0.01528  -0.02675   0.80299
  24 9   H  1S         -0.00968  -0.00962   0.00825   0.84657
    Full Mulliken population analysis:
                           1         2         3         4         5
   1 1   C  1S          1.20165
   2        1PX         0.00000   0.94967
   3        1PY         0.00000   0.00000   0.97020
   4        1PZ         0.00000   0.00000   0.00000   1.07383
   5 2   C  1S          0.00000   0.00000   0.00000   0.00000   1.24135
   6        1PX         0.00000   0.00000   0.00000   0.00000   0.00000
   7        1PY         0.00000   0.00000   0.00000   0.00000   0.00000
   8        1PZ         0.00000   0.00000   0.00000   0.00000   0.00000
   9 3   O  1S          0.00000   0.00000   0.00000   0.00000   0.00000
  10        1PX         0.00000   0.00000   0.00000   0.00000   0.00000
  11        1PY         0.00000   0.00000   0.00000   0.00000   0.00000
  12        1PZ         0.00000   0.00000   0.00000   0.00000   0.00000
  13 4   C  1S          0.00000   0.00000   0.00000   0.00000   0.00000
  14        1PX         0.00000   0.00000   0.00000   0.00000   0.00000
  15        1PY         0.00000   0.00000   0.00000   0.00000   0.00000
  16        1PZ         0.00000   0.00000   0.00000   0.00000   0.00000
  17 5   C  1S          0.00000   0.00000   0.00000   0.00000   0.00000
  18        1PX         0.00000   0.00000   0.00000   0.00000   0.00000
  19        1PY         0.00000   0.00000   0.00000   0.00000   0.00000
  20        1PZ         0.00000   0.00000   0.00000   0.00000   0.00000
  21 6   H  1S          0.00000   0.00000   0.00000   0.00000   0.00000
  22 7   H  1S          0.00000   0.00000   0.00000   0.00000   0.00000
  23 8   H  1S          0.00000   0.00000   0.00000   0.00000   0.00000
  24 9   H  1S          0.00000   0.00000   0.00000   0.00000   0.00000
                           6         7         8         9        10
   6        1PX         0.90212
   7        1PY         0.00000   0.89808
   8        1PZ         0.00000   0.00000   1.08568
   9 3   O  1S          0.00000   0.00000   0.00000   1.82800
  10        1PX         0.00000   0.00000   0.00000   0.00000   1.14774
  11        1PY         0.00000   0.00000   0.00000   0.00000   0.00000
  12        1PZ         0.00000   0.00000   0.00000   0.00000   0.00000
  13 4   C  1S          0.00000   0.00000   0.00000   0.00000   0.00000
  14        1PX         0.00000   0.00000   0.00000   0.00000   0.00000
  15        1PY         0.00000   0.00000   0.00000   0.00000   0.00000
  16        1PZ         0.00000   0.00000   0.00000   0.00000   0.00000
  17 5   C  1S          0.00000   0.00000   0.00000   0.00000   0.00000
  18        1PX         0.00000   0.00000   0.00000   0.00000   0.00000
  19        1PY         0.00000   0.00000   0.00000   0.00000   0.00000
  20        1PZ         0.00000   0.00000   0.00000   0.00000   0.00000
  21 6   H  1S          0.00000   0.00000   0.00000   0.00000   0.00000
  22 7   H  1S          0.00000   0.00000   0.00000   0.00000   0.00000
  23 8   H  1S          0.00000   0.00000   0.00000   0.00000   0.00000
  24 9   H  1S          0.00000   0.00000   0.00000   0.00000   0.00000
                          11        12        13        14        15
  11        1PY         1.38528
  12        1PZ         0.00000   1.68329
  13 4   C  1S          0.00000   0.00000   1.23015
  14        1PX         0.00000   0.00000   0.00000   0.90278
  15        1PY         0.00000   0.00000   0.00000   0.00000   0.91409
  16        1PZ         0.00000   0.00000   0.00000   0.00000   0.00000
  17 5   C  1S          0.00000   0.00000   0.00000   0.00000   0.00000
  18        1PX         0.00000   0.00000   0.00000   0.00000   0.00000
  19        1PY         0.00000   0.00000   0.00000   0.00000   0.00000
  20        1PZ         0.00000   0.00000   0.00000   0.00000   0.00000
  21 6   H  1S          0.00000   0.00000   0.00000   0.00000   0.00000
  22 7   H  1S          0.00000   0.00000   0.00000   0.00000   0.00000
  23 8   H  1S          0.00000   0.00000   0.00000   0.00000   0.00000
  24 9   H  1S          0.00000   0.00000   0.00000   0.00000   0.00000
                          16        17        18        19        20
  16        1PZ         1.05408
  17 5   C  1S          0.00000   1.22227
  18        1PX         0.00000   0.00000   0.95115
  19        1PY         0.00000   0.00000   0.00000   0.96503
  20        1PZ         0.00000   0.00000   0.00000   0.00000   1.10131
  21 6   H  1S          0.00000   0.00000   0.00000   0.00000   0.00000
  22 7   H  1S          0.00000   0.00000   0.00000   0.00000   0.00000
  23 8   H  1S          0.00000   0.00000   0.00000   0.00000   0.00000
  24 9   H  1S          0.00000   0.00000   0.00000   0.00000   0.00000
                          21        22        23        24
  21 6   H  1S          0.83491
  22 7   H  1S          0.00000   0.80776
  23 8   H  1S          0.00000   0.00000   0.80299
  24 9   H  1S          0.00000   0.00000   0.00000   0.84657
     Gross orbital populations:
                           1
   1 1   C  1S          1.20165
   2        1PX         0.94967
   3        1PY         0.97020
   4        1PZ         1.07383
   5 2   C  1S          1.24135
   6        1PX         0.90212
   7        1PY         0.89808
   8        1PZ         1.08568
   9 3   O  1S          1.82800
  10        1PX         1.14774
  11        1PY         1.38528
  12        1PZ         1.68329
  13 4   C  1S          1.23015
  14        1PX         0.90278
  15        1PY         0.91409
  16        1PZ         1.05408
  17 5   C  1S          1.22227
  18        1PX         0.95115
  19        1PY         0.96503
  20        1PZ         1.10131
  21 6   H  1S          0.83491
  22 7   H  1S          0.80776
  23 8   H  1S          0.80299
  24 9   H  1S          0.84657
          Condensed to atoms (all electrons):
               1          2          3          4          5          6
     1  C    4.195352   0.000000   0.000000   0.000000   0.000000   0.000000
     2  C    0.000000   4.127236   0.000000   0.000000   0.000000   0.000000
     3  O    0.000000   0.000000   6.044306   0.000000   0.000000   0.000000
     4  C    0.000000   0.000000   0.000000   4.101105   0.000000   0.000000
     5  C    0.000000   0.000000   0.000000   0.000000   4.239768   0.000000
     6  H    0.000000   0.000000   0.000000   0.000000   0.000000   0.834915
     7  H    0.000000   0.000000   0.000000   0.000000   0.000000   0.000000
     8  H    0.000000   0.000000   0.000000   0.000000   0.000000   0.000000
     9  H    0.000000   0.000000   0.000000   0.000000   0.000000   0.000000
               7          8          9
     1  C    0.000000   0.000000   0.000000
     2  C    0.000000   0.000000   0.000000
     3  O    0.000000   0.000000   0.000000
     4  C    0.000000   0.000000   0.000000
     5  C    0.000000   0.000000   0.000000
     6  H    0.000000   0.000000   0.000000
     7  H    0.807758   0.000000   0.000000
     8  H    0.000000   0.802992   0.000000
     9  H    0.000000   0.000000   0.846568
 Mulliken charges:
               1
     1  C   -0.195352
     2  C   -0.127236
     3  O   -0.044306
     4  C   -0.101105
     5  C   -0.239768
     6  H    0.165085
     7  H    0.192242
     8  H    0.197008
     9  H    0.153432
 Sum of Mulliken charges =   0.00000
 Mulliken charges with hydrogens summed into heavy atoms:
               1
     1  C   -0.041920
     2  C    0.069771
     3  O   -0.044306
     4  C    0.091137
     5  C   -0.074683
 Charge=              0.0000 electrons
 Dipole moment (field-independent basis, Debye):
    X=              0.0625    Y=              0.0698    Z=              0.0114  Tot=              0.0944
 N-N= 1.046492954424D+02 E-N=-1.729988902148D+02  KE=-1.667687273734D+01
 Orbital energies and kinetic energies (alpha):
                                 1                 2
   1         O                -1.632987         -1.361825
   2         O                -1.250439         -1.060380
   3         O                -1.112523         -0.962473
   4         O                -0.838614         -0.704145
   5         O                -0.802013         -0.712143
   6         O                -0.692085         -0.607120
   7         O                -0.631876         -0.507829
   8         O                -0.559545         -0.507193
   9         O                -0.508978         -0.428105
  10         O                -0.496012         -0.432262
  11         O                -0.492262         -0.399521
  12         O                -0.395887         -0.341936
  13         O                -0.350279         -0.313506
  14         V                 0.042813         -0.181706
  15         V                 0.069894         -0.186958
  16         V                 0.095165         -0.202559
  17         V                 0.133836         -0.241432
  18         V                 0.146434         -0.213571
  19         V                 0.154457         -0.187738
  20         V                 0.179213         -0.158448
  21         V                 0.188153         -0.176287
  22         V                 0.191800         -0.113575
  23         V                 0.207000         -0.119640
  24         V                 0.237172         -0.023210
 Total kinetic energy from orbitals=-1.667687273734D+01
 Leave Link  601 at Tue Dec 15 16:13:00 2015, MaxMem=    33554432 cpu:         0.0
 (Enter /home/Applications/g09/g09/l701.exe)
 Compute integral first derivatives.
 ... and contract with generalized density number  6.
 Leave Link  701 at Tue Dec 15 16:13:00 2015, MaxMem=    33554432 cpu:         0.0
 (Enter /home/Applications/g09/g09/l702.exe)
 L702 exits ... SP integral derivatives will be done elsewhere.
 Leave Link  702 at Tue Dec 15 16:13:00 2015, MaxMem=    33554432 cpu:         0.0
 (Enter /home/Applications/g09/g09/l703.exe)
 Compute integral first derivatives, UseDBF=F ICtDFT=           0.
 Integral derivatives from FoFJK, PRISM(SPDF).
 Calling FoFJK, ICntrl=  10005127 FMM=F ISym2X=0 I1Cent= 0 IOpClX= 0 NMat=1 NMatS=1 NMatT=0.
 FoFJK:  IHMeth= 8 ICntrl=10005127 DoSepK=F KAlg= 0 I1Cent=   0 FoldK=F
 IRaf=         0 NMat=   1 IRICut=       1 DoRegI=T DoRafI=F ISym2E= 0.
 FoFCou: FMM=F IPFlag=           0 FMFlag=      100000 FMFlg1=         800
         NFxFlg=           0 DoJE=F BraDBF=F KetDBF=F FulRan=T
         wScrn=  0.000000 ICntrl=10005127 IOpCl=  0 I1Cent=           0 NGrid=           0
         NMat0=    1 NMatS0=      1 NMatT0=    0 NMatD0=    1 NMtDS0=    0 NMtDT0=    0
 Symmetry not used in FoFCou.
 Leave Link  703 at Tue Dec 15 16:13:00 2015, MaxMem=    33554432 cpu:         0.0
 (Enter /home/Applications/g09/g09/l716.exe)
 Dipole        = 1.29236071D-01 1.44486107D-01-3.33210624D-02
 ***** Axes restored to original set *****
 -------------------------------------------------------------------
 Center     Atomic                   Forces (Hartrees/Bohr)
 Number     Number              X              Y              Z
 -------------------------------------------------------------------
      1        6           0.141578451    0.017846240   -0.000677144
      2        6          -0.073252022   -0.161112918    0.003970717
      3        8          -0.222584770   -0.039608609   -0.006848333
      4        6          -0.043983190    0.198189695    0.003292138
      5        6           0.188334902    0.020992141   -0.002844632
      6        1          -0.030761994   -0.027884263    0.003959361
      7        1           0.006710833   -0.016819359   -0.001283852
      8        1           0.008737794    0.023669505   -0.001634960
      9        1           0.025219995   -0.015272432    0.002066705
 -------------------------------------------------------------------
 Cartesian Forces:  Max     0.222584770 RMS     0.082459272
 Z-matrix is all fixed cartesians, so copy forces.
 Force constants in Cartesian coordinates: 
                1             2             3             4             5 
      1  0.101901D+01
      2 -0.220100D-01  0.854195D+00
      3  0.562033D-02  0.777035D-02  0.238315D+00
      4 -0.578843D+00 -0.127783D+00 -0.151682D-01  0.100258D+01
      5 -0.101219D+00 -0.228572D+00 -0.483808D-02 -0.236996D-02  0.906109D+00
      6 -0.160342D-01 -0.411646D-02 -0.119331D+00  0.140751D-01 -0.683336D-02
      7 -0.904756D-02  0.311435D-01 -0.569351D-04 -0.304761D+00  0.189723D+00
      8 -0.638778D-02  0.219839D-01 -0.219633D-04  0.239508D+00 -0.428288D+00
      9 -0.806873D-03  0.191621D-02  0.773196D-02 -0.214202D-02  0.262776D-02
     10  0.983120D-02  0.128778D-04  0.505270D-03  0.270966D-01  0.191055D-01
     11  0.360656D-01  0.507576D-04  0.191101D-02 -0.196999D-01 -0.138891D-01
     12 -0.305487D-03  0.470688D-04 -0.175526D-02  0.160990D-03  0.570872D-04
     13 -0.170975D+00  0.122310D-01  0.230362D-03  0.104751D-01 -0.360689D-01
     14 -0.140670D-01 -0.443334D+00 -0.476481D-03  0.154763D-04 -0.517737D-04
     15  0.324833D-03  0.521738D-02 -0.885729D-01  0.608313D-03 -0.209285D-02
     16  0.168712D-01  0.175444D-04 -0.116998D-03 -0.652643D-05  0.125556D-05
     17 -0.216864D-01 -0.154898D-04  0.132008D-02  0.000000D+00  0.000000D+00
     18  0.375012D-03  0.113425D-03  0.187198D-01 -0.148929D-03  0.286511D-04
     19  0.885819D-05 -0.197594D-05 -0.328869D-03 -0.220793D-05  0.000000D+00
     20  0.113817D-04 -0.253884D-05 -0.422555D-03  0.226444D-05  0.000000D+00
     21 -0.201564D-03  0.449616D-04  0.748325D-02 -0.100161D-03  0.254718D-04
     22  0.734528D-02 -0.253479D-01  0.692400D-03 -0.151138D+00 -0.876360D-01
     23 -0.391382D-02  0.133863D-01  0.813656D-03 -0.825394D-01 -0.259864D+00
     24 -0.292193D-03 -0.230541D-02  0.326551D-01  0.423928D-02  0.882909D-02
     25 -0.294197D+00  0.131737D+00  0.862260D-02 -0.540219D-02  0.184639D-01
     26  0.133207D+00 -0.217691D+00 -0.605601D-02 -0.713288D-02  0.245563D-01
     27  0.113202D-01 -0.868752D-02 -0.952459D-01 -0.152443D-02  0.219624D-02
                6             7             8             9            10 
      6  0.218233D+00
      7 -0.351384D-02  0.643499D+00
      8  0.490791D-02  0.620363D-01  0.913435D+00
      9 -0.563572D-01  0.654096D-02 -0.194679D-02  0.748558D-01
     10 -0.910346D-04 -0.364816D+00 -0.300401D+00 -0.649695D-03  0.105092D+01
     11  0.932070D-04 -0.250920D+00 -0.514061D+00 -0.714688D-03  0.741271D-01
     12 -0.486387D-03 -0.261845D-02 -0.298239D-02 -0.592004D-01  0.124106D-01
     13  0.286361D-03 -0.872732D-02  0.634655D-02 -0.807423D-03 -0.568219D+00
     14 -0.533360D-04 -0.320348D-01  0.233008D-01 -0.186409D-02  0.118817D+00
     15 -0.327212D-02  0.126804D-03 -0.655894D-04  0.112588D-01 -0.147113D-01
     16  0.209132D-03  0.165080D-05  0.000000D+00 -0.651292D-04 -0.471947D-02
     17  0.290385D-04 -0.141728D-04  0.662199D-05  0.559160D-03  0.599608D-02
     18  0.477226D-02 -0.192852D-03  0.901069D-04  0.760861D-02 -0.123136D-02
     19  0.158523D-03  0.223547D-01 -0.162440D-01 -0.104158D-02 -0.150085D+00
     20 -0.162580D-03  0.114718D-01 -0.833539D-02 -0.623822D-03  0.823451D-01
     21  0.719125D-02 -0.588487D-04  0.254276D-04  0.263596D-02  0.398824D-02
     22  0.365838D-02  0.214944D-01  0.151426D-01 -0.955167D-03 -0.152186D-05
     23  0.623075D-02 -0.114220D-01 -0.804510D-02  0.625878D-03 -0.217485D-05
     24 -0.808302D-01  0.000000D+00  0.437006D-04  0.326960D-02 -0.824551D-04
     25  0.125159D-02  0.202236D-05  0.000000D+00 -0.730744D-04 -0.670909D-05
     26 -0.951682D-04  0.160411D-04  0.356515D-05 -0.579616D-03  0.000000D+00
     27  0.300799D-01 -0.226851D-03 -0.504179D-04  0.819686D-02 -0.138245D-03
               11            12            13            14            15 
     11  0.991869D+00
     12  0.450694D-02  0.218715D+00
     13  0.896575D-01 -0.146349D-01  0.924187D+00
     14 -0.220584D+00  0.426743D-02 -0.123316D-01  0.796648D+00
     15  0.472182D-02 -0.114244D+00  0.736936D-02 -0.109968D-01  0.218778D+00
     16 -0.172037D-01  0.122116D-02 -0.211798D+00 -0.860604D-01  0.602322D-02
     17  0.220217D-01  0.153448D-04 -0.875810D-01 -0.169084D+00  0.469260D-02
     18 -0.185717D-02  0.253978D-01  0.811636D-02  0.682011D-02 -0.810822D-01
     19  0.879711D-01  0.340777D-02  0.696051D-02  0.256444D-01  0.786167D-03
     20 -0.265408D+00 -0.609890D-02  0.358009D-02  0.130852D-01 -0.594245D-03
     21 -0.871293D-02 -0.794791D-01 -0.258688D-03  0.213610D-02  0.294122D-01
     22  0.000000D+00  0.109265D-03  0.116921D-04 -0.224933D-05 -0.374658D-03
     23  0.000000D+00  0.156148D-03 -0.151616D-04  0.291681D-05  0.485836D-03
     24  0.209690D-04  0.592002D-02 -0.247307D-03  0.475770D-04  0.792464D-02
     25  0.149656D-05  0.249082D-03  0.180846D-01  0.186413D-04 -0.152720D-03
     26  0.000000D+00  0.312565D-04  0.241815D-01  0.178986D-04 -0.136816D-02
     27  0.308375D-04  0.513249D-02 -0.541134D-04  0.119470D-03  0.197979D-01
               16            17            18            19            20 
     16  0.199670D+00
     17  0.103253D+00  0.147026D+00
     18 -0.705013D-02 -0.576886D-02  0.427041D-01
     19 -0.411373D-05  0.353179D-04  0.480579D-03  0.120767D+00
     20 -0.528563D-05  0.453792D-04  0.617485D-03 -0.974053D-01  0.260616D+00
     21  0.936058D-04 -0.803643D-03 -0.109353D-01 -0.346259D-02  0.728461D-02
     22  0.000000D+00  0.000000D+00  0.000000D+00  0.000000D+00  0.000000D+00
     23  0.000000D+00  0.000000D+00  0.000000D+00  0.000000D+00  0.000000D+00
     24  0.000000D+00  0.000000D+00  0.000000D+00  0.000000D+00  0.000000D+00
     25 -0.152803D-04 -0.212171D-05 -0.348687D-03  0.000000D+00  0.000000D+00
     26 -0.191748D-05  0.000000D+00 -0.437557D-04  0.000000D+00  0.000000D+00
     27 -0.314860D-03 -0.437191D-04 -0.718492D-02  0.000000D+00  0.000000D+00
               21            22            23            24            25 
     21  0.436917D-01
     22  0.000000D+00  0.122294D+00
     23  0.000000D+00  0.978856D-01  0.254465D+00
     24  0.000000D+00 -0.373054D-02 -0.753381D-02  0.437585D-01
     25  0.000000D+00 -0.535178D-05  0.693991D-05  0.113199D-03  0.281540D+00
     26  0.000000D+00 -0.424496D-04  0.550464D-04  0.897880D-03 -0.150227D+00
     27  0.000000D+00  0.600317D-03 -0.778459D-03 -0.126977D-01 -0.966199D-02
               26            27 
     26  0.193059D+00
     27  0.721357D-02  0.519214D-01
 Leave Link  716 at Tue Dec 15 16:13:00 2015, MaxMem=    33554432 cpu:         0.0
 (Enter /home/Applications/g09/g09/l103.exe)

 GradGradGradGradGradGradGradGradGradGradGradGradGradGradGradGradGradGrad
 Berny optimization.
 Search for a local minimum.
 Step number   1 out of a maximum of    2
 All quantities printed in internal units (Hartrees-Bohrs-Radians)
 Second derivative matrix not updated -- first step.
 ITU=  0
     Eigenvalues ---    0.02137   0.03698   0.06592   0.07178   0.07700
     Eigenvalues ---    0.10028   0.12966   0.16005   0.16335   0.24111
     Eigenvalues ---    0.26524   0.35240   0.40004   0.43704   0.60955
     Eigenvalues ---    0.80991   1.15005   1.43338   1.56259   1.70770
     Eigenvalues ---    1.88450
 Quadratic step=5.882D-01 exceeds max=3.000D-01 adjusted using Lamda=-4.429D-01.
 Angle between NR and scaled steps=  23.32 degrees.
 Angle between quadratic step and forces=  19.03 degrees.
 Linear search not attempted -- first point.
 TrRot= -0.009146  0.002094 -0.000701  0.168819  0.000333 -0.168679
 Variable       Old X    -DE/DX   Delta X   Delta X   Delta X     New X
                                 (Linear)    (Quad)   (Total)
    X1        1.74367   0.14158   0.00000   0.10876   0.09982   1.84350
    Y1       -1.33486   0.01785   0.00000  -0.00450  -0.00214  -1.33700
    Z1        0.07275  -0.00068   0.00000  -0.00255  -0.00379   0.06897
    X2       -0.65502  -0.07325   0.00000  -0.03913  -0.04798  -0.70300
    Y2       -2.03188  -0.16111   0.00000  -0.08828  -0.08628  -2.11816
    Z2        0.00208   0.00397   0.00000   0.00627   0.00592   0.00800
    X3       -2.10583  -0.22258   0.00000  -0.17774  -0.18690  -2.29273
    Y3        0.02577  -0.03961   0.00000  -0.01192  -0.01015   0.01562
    Z3       -0.02541  -0.00685   0.00000  -0.00900  -0.00895  -0.03437
    X4       -0.68140  -0.04398   0.00000  -0.02794  -0.03738  -0.71878
    Y4        1.98521   0.19819   0.00000   0.09929   0.10129   2.08650
    Z4       -0.01251   0.00329   0.00000   0.00582   0.00524  -0.00728
    X5        1.74080   0.18833   0.00000   0.13369   0.12437   1.86517
    Y5        1.32565   0.02099   0.00000   0.03012   0.03248   1.35813
    Z5        0.05669  -0.00284   0.00000  -0.00400  -0.00539   0.05130
    X6        3.46705  -0.03076   0.00000   0.00746  -0.00206   3.46499
    Y6        2.66716  -0.02788   0.00000  -0.02079  -0.01821   2.64895
    Z6       -0.02712   0.00396   0.00000   0.00622   0.00423  -0.02289
    X7       -1.65126   0.00671   0.00000   0.00059  -0.00908  -1.66035
    Y7        3.87548  -0.01682   0.00000   0.01777   0.01964   3.89512
    Z7        0.05160  -0.00128   0.00000   0.00055   0.00017   0.05177
    X8       -1.65560   0.00874   0.00000   0.00190  -0.00668  -1.66228
    Y8       -3.91482   0.02367   0.00000  -0.00692  -0.00505  -3.91987
    Z8        0.07021  -0.00163   0.00000  -0.00013  -0.00007   0.07015
    X9        3.33649   0.02522   0.00000   0.07467   0.06588   3.40237
    Y9       -2.52624  -0.01527   0.00000  -0.03415  -0.03158  -2.55782
    Z9        0.00271   0.00207   0.00000   0.00432   0.00264   0.00535
         Item               Value     Threshold  Converged?
 Maximum Force            0.222585     0.000450     NO 
 RMS     Force            0.082459     0.000300     NO 
 Maximum Displacement     0.186899     0.001800     NO 
 RMS     Displacement     0.057527     0.001200     NO 
 Predicted change in Energy=-8.077628D-02
 GradGradGradGradGradGradGradGradGradGradGradGradGradGradGradGradGradGrad

 Leave Link  103 at Tue Dec 15 16:13:00 2015, MaxMem=    33554432 cpu:         0.0
 (Enter /home/Applications/g09/g09/l9999.exe)
 1\1\GINC-DUSTIN-DESKTOP\Force\RAM1-FC\STO-3G\C4H4O1\DUSTIN\15-Dec-2015
 \0\\#P AM1(Input,print) CIS(Singlets,NStates=15) pop(full) force\\AM1-
 Reparam Input\\0,1\C,0.922713,-0.706378,0.0385\C,-0.34662,-1.075226,0.
 001102\O,-1.114359,0.013635,-0.013448\C,-0.360582,1.05053,-0.006622\C,
 0.92119,0.701503,0.03\H,1.834683,1.411398,-0.014351\H,-0.873811,2.0508
 17,0.027306\H,-0.876105,-2.071633,0.037156\H,1.765595,-1.336826,0.0014
 34\\Version=ES64L-G09RevD.01\State=1-A\HF=0.047913\RMSD=5.685e-09\RMSF
 =8.246e-02\Dipole=0.1474842,0.1253575,0.0349627\PG=C01 [X(C4H4O1)]\\@


 UNDER MOST GREENE GRASSE LY MOST GREATE SNAKES.
 -- PROVERBS AND REASONS OF THE YEAR 1585
           AS REPRINTED IN PAISLEY MAGAZINE 1828.
 Job cpu time:       0 days  0 hours  0 minutes  0.5 seconds.
 File lengths (MBytes):  RWF=      7 Int=      0 D2E=      0 Chk=      2 Scr=      1
 Normal termination of Gaussian 09 at Tue Dec 15 16:13:00 2015.
