 Entering Gaussian System, Link 0=g09
 Input=FuranAM1_10P6.com
 Output=FuranAM1_10P6.log
 Initial command:
 /home/Applications/g09/g09/l1.exe "/home/Applications/g09/scratch/Gau-8091.inp" -scrdir="/home/Applications/g09/scratch/"
 Entering Link 1 = /home/Applications/g09/g09/l1.exe PID=      8095.
  
 Copyright (c) 1988,1990,1992,1993,1995,1998,2003,2009,2013,
            Gaussian, Inc.  All Rights Reserved.
  
 This is part of the Gaussian(R) 09 program.  It is based on
 the Gaussian(R) 03 system (copyright 2003, Gaussian, Inc.),
 the Gaussian(R) 98 system (copyright 1998, Gaussian, Inc.),
 the Gaussian(R) 94 system (copyright 1995, Gaussian, Inc.),
 the Gaussian 92(TM) system (copyright 1992, Gaussian, Inc.),
 the Gaussian 90(TM) system (copyright 1990, Gaussian, Inc.),
 the Gaussian 88(TM) system (copyright 1988, Gaussian, Inc.),
 the Gaussian 86(TM) system (copyright 1986, Carnegie Mellon
 University), and the Gaussian 82(TM) system (copyright 1983,
 Carnegie Mellon University). Gaussian is a federally registered
 trademark of Gaussian, Inc.
  
 This software contains proprietary and confidential information,
 including trade secrets, belonging to Gaussian, Inc.
  
 This software is provided under written license and may be
 used, copied, transmitted, or stored only in accord with that
 written license.
  
 The following legend is applicable only to US Government
 contracts under FAR:
  
                    RESTRICTED RIGHTS LEGEND
  
 Use, reproduction and disclosure by the US Government is
 subject to restrictions as set forth in subparagraphs (a)
 and (c) of the Commercial Computer Software - Restricted
 Rights clause in FAR 52.227-19.
  
 Gaussian, Inc.
 340 Quinnipiac St., Bldg. 40, Wallingford CT 06492
  
  
 ---------------------------------------------------------------
 Warning -- This program may not be used in any manner that
 competes with the business of Gaussian, Inc. or will provide
 assistance to any competitor of Gaussian, Inc.  The licensee
 of this program is prohibited from giving any competitor of
 Gaussian, Inc. access to this program.  By using this program,
 the user acknowledges that Gaussian, Inc. is engaged in the
 business of creating and licensing software in the field of
 computational chemistry and represents and warrants to the
 licensee that it is not a competitor of Gaussian, Inc. and that
 it will not use this program in any manner prohibited above.
 ---------------------------------------------------------------
  

 Cite this work as:
 Gaussian 09, Revision D.01,
 M. J. Frisch, G. W. Trucks, H. B. Schlegel, G. E. Scuseria, 
 M. A. Robb, J. R. Cheeseman, G. Scalmani, V. Barone, B. Mennucci, 
 G. A. Petersson, H. Nakatsuji, M. Caricato, X. Li, H. P. Hratchian, 
 A. F. Izmaylov, J. Bloino, G. Zheng, J. L. Sonnenberg, M. Hada, 
 M. Ehara, K. Toyota, R. Fukuda, J. Hasegawa, M. Ishida, T. Nakajima, 
 Y. Honda, O. Kitao, H. Nakai, T. Vreven, J. A. Montgomery, Jr., 
 J. E. Peralta, F. Ogliaro, M. Bearpark, J. J. Heyd, E. Brothers, 
 K. N. Kudin, V. N. Staroverov, T. Keith, R. Kobayashi, J. Normand, 
 K. Raghavachari, A. Rendell, J. C. Burant, S. S. Iyengar, J. Tomasi, 
 M. Cossi, N. Rega, J. M. Millam, M. Klene, J. E. Knox, J. B. Cross, 
 V. Bakken, C. Adamo, J. Jaramillo, R. Gomperts, R. E. Stratmann, 
 O. Yazyev, A. J. Austin, R. Cammi, C. Pomelli, J. W. Ochterski, 
 R. L. Martin, K. Morokuma, V. G. Zakrzewski, G. A. Voth, 
 P. Salvador, J. J. Dannenberg, S. Dapprich, A. D. Daniels, 
 O. Farkas, J. B. Foresman, J. V. Ortiz, J. Cioslowski, 
 and D. J. Fox, Gaussian, Inc., Wallingford CT, 2013.
 
 ******************************************
 Gaussian 09:  ES64L-G09RevD.01 24-Apr-2013
                15-Dec-2015 
 ******************************************
 ------------------------------------------------------------
 #P AM1(Input,print) CIS(Singlets,NStates=15) pop(full) force
 ------------------------------------------------------------
 1/10=7,30=1,38=1/1,3;
 2/12=2,17=6,18=5,40=1/2;
 3/5=2,16=1,25=1,41=700000,71=1,135=100,136=1/1,2,8,3;
 4/35=1/1;
 5/5=2,35=1,38=5/2;
 8/6=1,10=1,108=15/1;
 9/15=2,41=15,42=1,48=1,49=10/14;
 10/5=4/2;
 6/7=3,18=1/1;
 7/12=6,13=5,29=1/1,2,3,16;
 1/10=7,30=1/3;
 99//99;
 Leave Link    1 at Tue Dec 15 17:06:11 2015, MaxMem=           0 cpu:         0.0
 (Enter /home/Applications/g09/g09/l101.exe)
 -----------------
 AM1-Reparam Input
 -----------------
 Symbolic Z-matrix:
 Charge =  0 Multiplicity = 1
 6                     0.99247  -0.67412   0.01037 
 6                    -0.38348  -1.10937   0.00683 
 8                    -1.14636   0.00963  -0.04399 
 6                    -0.37523   1.08552  -0.03038 
 6                     0.92223   0.6933    0.01609 
 1                     1.85574   1.37923   0.0224 
 1                    -0.85956   2.09572   0.00681 
 1                    -0.88187  -2.09229   0.03226 
 1                     1.84163  -1.3992    0.03213 
 
 NAtoms=      9 NQM=        9 NQMF=       0 NMMI=      0 NMMIF=      0
                NMic=       0 NMicF=      0.
                    Isotopes and Nuclear Properties:
 (Nuclear quadrupole moments (NQMom) in fm**2, nuclear magnetic moments (NMagM)
  in nuclear magnetons)

  Atom         1           2           3           4           5           6           7           8           9
 IAtWgt=          12          12          16          12          12           1           1           1           1
 AtmWgt=  12.0000000  12.0000000  15.9949146  12.0000000  12.0000000   1.0078250   1.0078250   1.0078250   1.0078250
 NucSpn=           0           0           0           0           0           1           1           1           1
 AtZEff=   0.0000000   0.0000000   0.0000000   0.0000000   0.0000000   0.0000000   0.0000000   0.0000000   0.0000000
 NQMom=    0.0000000   0.0000000   0.0000000   0.0000000   0.0000000   0.0000000   0.0000000   0.0000000   0.0000000
 NMagM=    0.0000000   0.0000000   0.0000000   0.0000000   0.0000000   2.7928460   2.7928460   2.7928460   2.7928460
 AtZNuc=   6.0000000   6.0000000   8.0000000   6.0000000   6.0000000   1.0000000   1.0000000   1.0000000   1.0000000
 Leave Link  101 at Tue Dec 15 17:06:11 2015, MaxMem=    33554432 cpu:         0.1
 (Enter /home/Applications/g09/g09/l103.exe)

 GradGradGradGradGradGradGradGradGradGradGradGradGradGradGradGradGradGrad
 Berny optimization.
 Initialization pass.
 Trust Radius=3.00D-01 FncErr=1.00D-07 GrdErr=1.00D-07
 Number of steps in this run=      2 maximum allowed number of steps=      2.
 GradGradGradGradGradGradGradGradGradGradGradGradGradGradGradGradGradGrad

 Leave Link  103 at Tue Dec 15 17:06:11 2015, MaxMem=    33554432 cpu:         0.0
 (Enter /home/Applications/g09/g09/l202.exe)
                          Input orientation:                          
 ---------------------------------------------------------------------
 Center     Atomic      Atomic             Coordinates (Angstroms)
 Number     Number       Type             X           Y           Z
 ---------------------------------------------------------------------
      1          6           0        0.992465   -0.674124    0.010372
      2          6           0       -0.383482   -1.109366    0.006830
      3          8           0       -1.146361    0.009626   -0.043994
      4          6           0       -0.375225    1.085519   -0.030383
      5          6           0        0.922226    0.693301    0.016086
      6          1           0        1.855739    1.379229    0.022398
      7          1           0       -0.859564    2.095718    0.006809
      8          1           0       -0.881874   -2.092290    0.032261
      9          1           0        1.841631   -1.399196    0.032133
 ---------------------------------------------------------------------
                    Distance matrix (angstroms):
                    1          2          3          4          5
     1  C    0.000000
     2  C    1.443149   0.000000
     3  O    2.246118   1.355253   0.000000
     4  C    2.229031   2.195216   1.323776   0.000000
     5  C    1.369240   2.225886   2.179466   1.356235   0.000000
     6  H    2.227475   3.347754   3.300428   2.250834   1.158440
     7  H    3.331974   3.240250   2.106327   1.120924   2.267517
     8  H    2.350494   1.102352   2.119863   3.218554   3.318818
     9  H    1.116820   2.244052   3.304341   3.330491   2.285630
                    6          7          8          9
     6  H    0.000000
     7  H    2.808286   0.000000
     8  H    4.421093   4.188145   0.000000
     9  H    2.778478   4.417185   2.810313   0.000000
 Stoichiometry    C4H4O
 Framework group  C1[X(C4H4O)]
 Deg. of freedom    21
 Full point group                 C1      NOp   1
 Largest Abelian subgroup         C1      NOp   1
 Largest concise Abelian subgroup C1      NOp   1
                         Standard orientation:                         
 ---------------------------------------------------------------------
 Center     Atomic      Atomic             Coordinates (Angstroms)
 Number     Number       Type             X           Y           Z
 ---------------------------------------------------------------------
      1          6           0        0.793690    0.909031   -0.010062
      2          6           0        1.055359   -0.510029    0.011774
      3          8           0       -0.149891   -1.129275   -0.013064
      4          6           0       -1.121935   -0.230682   -0.006400
      5          6           0       -0.571771    1.008855    0.009104
      6          1           0       -1.136870    2.020088    0.001615
      7          1           0       -2.183792   -0.585309    0.049894
      8          1           0        1.969325   -1.125736    0.039170
      9          1           0        1.618412    1.662100   -0.012663
 ---------------------------------------------------------------------
 Rotational constants (GHZ):      9.5657405      9.2039320      4.6916354
 Leave Link  202 at Tue Dec 15 17:06:11 2015, MaxMem=    33554432 cpu:         0.0
 (Enter /home/Applications/g09/g09/l301.exe)

 Semi-emprical parameters in input format:
 Method=8 CoreType=1 PeptideFC=0.0106250000 RIJScale=0.5404210000
 ****
 H       
 PQN=1 NValence=1 F0ss=0.4721550000 ZetaOverlap=1.0856700000 U=-0.4219420000
 Beta=-0.2344680000 CoreKO=1.1349760000 KON=0,0,0,1.0458670000 KON=1,0,1,1.0589200000
 KON=0,1,1,1.0589200000 KON=2,1,1,1.0697690000 EISol=-0.4188110042 EHeat=0.0830298228
 Alpha=1.4609850000
 GCore=0.0079790000,1.5127750000,2.2676710000
 GCore=0.0003530000,1.4368830000,3.4779940000
 GCore=-0.0011950000,0.5600570000,3.5861320000
 ****
 C       
 PQN=2,2 NValence=4 F0ss=0.4494440000 F0sp=0.4215150000 F0pp=0.3497590000 F2pp=0.1878900000
 G1sp=0.2701540000
 ZetaOverlap=1.8086650000,1.3781170000
 U=-1.7687090000,-1.4557970000
 Beta=-0.5453250000,-0.3063130000 DDN=0,1,0.7474020000 DDN=1,1,0.7268010000
 CoreKO=1.1356210000 KON=0,0,0,1.1124280000 KON=1,0,1,0.8998210000 KON=0,1,1,1.1124280000
 KON=2,1,1,0.8516400000 EISol=-4.4398989268 EHeat=0.2723305520 Alpha=1.2789610000
 DipHyp=1.4947180026
 GCore=0.0007260000,1.3361580000,2.6678360000
 GCore=0.0028980000,1.4001430000,3.2840710000
 GCore=-0.0015090000,1.3017660000,3.8739390000
 GCore=-0.0001030000,1.4822700000,4.6744780000
 ****
 O       
 PQN=2,2 NValence=6 F0ss=0.5666750000 F0sp=0.5321300000 F0pp=0.4826590000 F2pp=0.2358080000
 G1sp=0.4216980000
 ZetaOverlap=2.6354490000,2.4967270000
 U=-3.3169990000,-1.9779290000
 Beta=-1.1573400000,-1.2994290000 DDN=0,1,0.4953610000 DDN=1,1,0.4852320000
 CoreKO=0.8515990000 KON=0,0,0,0.8822960000 KON=1,0,1,0.5019540000 KON=0,1,1,0.8682050000
 KON=2,1,1,0.5068780000 EISol=-11.6164441184 EHeat=0.0949133088 Alpha=2.4031680000
 DipHyp=0.9906650029
 GCore=0.0204720000,1.4001430000,1.6023330000
 GCore=0.0051530000,1.9602000000,2.7307880000
 ****
 
 Standard basis: VSTO-6G (5D, 7F)
 Ernie: Thresh=  0.10000D-02 Tol=  0.10000D-05 Strict=F.
  NNHCO=     0 NNPyr=     0 NCTC=     0               EPep=         0.000000000
    EC=        68.290441889  ECS=         2.344771943   EG=         0.357888567
   EHC=         0.000000000  EAt=       -31.051283842  AtH=         1.516354808
 EPDDG=         0.000000000  ECC=        70.993102400 EAtT=        32.567638650
 There are    24 symmetry adapted cartesian basis functions of A   symmetry.
 There are    24 symmetry adapted basis functions of A   symmetry.
    24 basis functions,   144 primitive gaussians,    24 cartesian basis functions
    13 alpha electrons       13 beta electrons
       nuclear repulsion energy       103.5607410500 Hartrees.
 IExCor=    0 DFT=F Ex=HF Corr=None ExCW=0 ScaHFX=  1.000000
 ScaDFX=  1.000000  1.000000  1.000000  1.000000 ScalE2=  1.000000  1.000000
 IRadAn=      0 IRanWt=     -1 IRanGd=            0 ICorTp=0 IEmpDi=  4
 Integral buffers will be    131072 words long.
 Regular integral format.
 Two-electron integral symmetry is turned off.
 Leave Link  301 at Tue Dec 15 17:06:11 2015, MaxMem=    33554432 cpu:         0.0
 (Enter /home/Applications/g09/g09/l302.exe)
 Do NDO integrals.
 NPDir=0 NMtPBC=     1 NCelOv=     1 NCel=       1 NClECP=     1 NCelD=      1
         NCelK=      1 NCelE2=     1 NClLst=     1 CellRange=     0.0.
 One-electron integrals computed using PRISM.
 NBasis=    24 RedAO= F EigKep=  0.00D+00  NBF=    24
 NBsUse=    24 1.00D-04 EigRej=  0.00D+00 NBFU=    24
 Leave Link  302 at Tue Dec 15 17:06:11 2015, MaxMem=    33554432 cpu:         0.0
 (Enter /home/Applications/g09/g09/l308.exe)
 Leave Link  308 at Tue Dec 15 17:06:11 2015, MaxMem=    33554432 cpu:         0.0
 (Enter /home/Applications/g09/g09/l303.exe)
 DipDrv:  MaxL=1.
 Leave Link  303 at Tue Dec 15 17:06:11 2015, MaxMem=    33554432 cpu:         0.0
 (Enter /home/Applications/g09/g09/l401.exe)
 Simple Huckel Guess.
 JPrj=0 DoOrth=F DoCkMO=F.
 Leave Link  401 at Tue Dec 15 17:06:11 2015, MaxMem=    33554432 cpu:         0.0
 (Enter /home/Applications/g09/g09/l502.exe)
 Closed shell SCF:
 Using DIIS extrapolation, IDIIS=  1040.
 Overlap will be assumed to be unity.
 Two-electron integral symmetry not used.
 Keep J ints in memory in canonical form, NReq=888082.
 IVT=       79475 IEndB=       79475 NGot=    33554432 MDV=    33473473
 LenX=    33473473 LenY=    33472456
 Requested convergence on RMS density matrix=1.00D-08 within 128 cycles.
 Requested convergence on MAX density matrix=1.00D-06.
 Requested convergence on             energy=1.00D-06.
 No special actions if energy rises.
 FoFCou: FMM=F IPFlag=           0 FMFlag=           0 FMFlg1=           0
         NFxFlg=           0 DoJE=F BraDBF=F KetDBF=F FulRan=T
         wScrn=  0.000000 ICntrl=     600 IOpCl=  2 I1Cent=           0 NGrid=           0
         NMat0=    1 NMatS0=     54 NMatT0=    0 NMatD0=    1 NMtDS0=    0 NMtDT0=    0
 Symmetry not used in FoFCou.

 Cycle   1  Pass 1  IDiag  1:
 E=  4.74604580247532    
 DIIS: error= 1.29D-01 at cycle   1 NSaved=   1.
 NSaved= 1 IEnMin= 1 EnMin=  4.74604580247532     IErMin= 1 ErrMin= 1.29D-01
 ErrMax= 1.29D-01  0.00D+00 EMaxC= 1.00D-01 BMatC= 4.76D-01 BMatP= 4.76D-01
 IDIUse=3 WtCom= 0.00D+00 WtEn= 1.00D+00
 Coeff-Com:  0.100D+01
 Coeff-En:   0.100D+01
 Coeff:      0.100D+01
 GapD=    2.000 DampG=2.000 DampE=0.250 DampFc=0.5000 IDamp=-1.
 Damping current iteration by 5.00D-01
 RMSDP=6.23D-02 MaxDP=6.74D-01              OVMax= 0.00D+00

 Cycle   2  Pass 1  IDiag  1:
 E=  3.80523655764115     Delta-E=       -0.940809244834 Rises=F Damp=T
 DIIS: error= 7.38D-02 at cycle   2 NSaved=   2.
 NSaved= 2 IEnMin= 2 EnMin=  3.80523655764115     IErMin= 2 ErrMin= 7.38D-02
 ErrMax= 7.38D-02  0.00D+00 EMaxC= 1.00D-01 BMatC= 1.73D-01 BMatP= 4.76D-01
 IDIUse=3 WtCom= 2.62D-01 WtEn= 7.38D-01
 Coeff-Com: -0.121D+01 0.221D+01
 Coeff-En:   0.000D+00 0.100D+01
 Coeff:     -0.316D+00 0.132D+01
 RMSDP=3.73D-02 MaxDP=3.81D-01 DE=-9.41D-01 OVMax= 0.00D+00

 Cycle   3  Pass 1  IDiag  1:
 E=  2.54265804096502     Delta-E=       -1.262578516676 Rises=F Damp=F
 DIIS: error= 1.67D-02 at cycle   3 NSaved=   3.
 NSaved= 3 IEnMin= 3 EnMin=  2.54265804096502     IErMin= 3 ErrMin= 1.67D-02
 ErrMax= 1.67D-02  0.00D+00 EMaxC= 1.00D-01 BMatC= 1.39D-02 BMatP= 1.73D-01
 IDIUse=3 WtCom= 8.33D-01 WtEn= 1.67D-01
 Coeff-Com:  0.422D+00-0.979D+00 0.156D+01
 Coeff-En:   0.000D+00 0.000D+00 0.100D+01
 Coeff:      0.351D+00-0.815D+00 0.146D+01
 RMSDP=1.18D-02 MaxDP=6.36D-02 DE=-1.26D+00 OVMax= 0.00D+00

 Cycle   4  Pass 1  IDiag  3:
 E=  2.48706921887990     Delta-E=       -0.055588822085 Rises=F Damp=F
 DIIS: error= 3.29D-03 at cycle   4 NSaved=   4.
 NSaved= 4 IEnMin= 4 EnMin=  2.48706921887990     IErMin= 4 ErrMin= 3.29D-03
 ErrMax= 3.29D-03  0.00D+00 EMaxC= 1.00D-01 BMatC= 7.37D-04 BMatP= 1.39D-02
 IDIUse=3 WtCom= 9.67D-01 WtEn= 3.29D-02
 Coeff-Com: -0.681D-01 0.147D+00-0.394D+00 0.132D+01
 Coeff-En:   0.000D+00 0.000D+00 0.000D+00 0.100D+01
 Coeff:     -0.659D-01 0.142D+00-0.381D+00 0.131D+01
 Gap=     0.424 Goal=   None    Shift=    0.000
 RMSDP=3.18D-03 MaxDP=1.83D-02 DE=-5.56D-02 OVMax= 2.84D-02

 Cycle   5  Pass 1  IDiag  3:
 E=  2.48381959833630     Delta-E=       -0.003249620544 Rises=F Damp=F
 DIIS: error= 8.78D-04 at cycle   5 NSaved=   5.
 NSaved= 5 IEnMin= 5 EnMin=  2.48381959833630     IErMin= 5 ErrMin= 8.78D-04
 ErrMax= 8.78D-04  0.00D+00 EMaxC= 1.00D-01 BMatC= 2.71D-05 BMatP= 7.37D-04
 IDIUse=3 WtCom= 9.91D-01 WtEn= 8.78D-03
 Coeff-Com:  0.165D-01-0.317D-01 0.814D-01-0.423D+00 0.136D+01
 Coeff-En:   0.000D+00 0.000D+00 0.000D+00 0.000D+00 0.100D+01
 Coeff:      0.164D-01-0.314D-01 0.807D-01-0.419D+00 0.135D+01
 Gap=     0.425 Goal=   None    Shift=    0.000
 RMSDP=6.84D-04 MaxDP=3.69D-03 DE=-3.25D-03 OVMax= 4.95D-03

 Cycle   6  Pass 1  IDiag  3:
 E=  2.48368489537259     Delta-E=       -0.000134702964 Rises=F Damp=F
 DIIS: error= 1.84D-04 at cycle   6 NSaved=   6.
 NSaved= 6 IEnMin= 6 EnMin=  2.48368489537259     IErMin= 6 ErrMin= 1.84D-04
 ErrMax= 1.84D-04  0.00D+00 EMaxC= 1.00D-01 BMatC= 1.02D-06 BMatP= 2.71D-05
 IDIUse=3 WtCom= 9.98D-01 WtEn= 1.84D-03
 Coeff-Com: -0.140D-02 0.266D-02-0.112D-01 0.883D-01-0.455D+00 0.138D+01
 Coeff-En:   0.000D+00 0.000D+00 0.000D+00 0.000D+00 0.000D+00 0.100D+01
 Coeff:     -0.140D-02 0.265D-02-0.112D-01 0.881D-01-0.454D+00 0.138D+01
 Gap=     0.425 Goal=   None    Shift=    0.000
 RMSDP=1.31D-04 MaxDP=9.80D-04 DE=-1.35D-04 OVMax= 9.99D-04

 Cycle   7  Pass 1  IDiag  3:
 E=  2.48368023851579     Delta-E=       -0.000004656857 Rises=F Damp=F
 DIIS: error= 2.57D-05 at cycle   7 NSaved=   7.
 NSaved= 7 IEnMin= 7 EnMin=  2.48368023851579     IErMin= 7 ErrMin= 2.57D-05
 ErrMax= 2.57D-05  0.00D+00 EMaxC= 1.00D-01 BMatC= 2.35D-08 BMatP= 1.02D-06
 IDIUse=1 WtCom= 1.00D+00 WtEn= 0.00D+00
 Coeff-Com:  0.121D-03-0.272D-03 0.360D-02-0.330D-01 0.180D+00-0.612D+00
 Coeff-Com:  0.146D+01
 Coeff:      0.121D-03-0.272D-03 0.360D-02-0.330D-01 0.180D+00-0.612D+00
 Coeff:      0.146D+01
 Gap=     0.425 Goal=   None    Shift=    0.000
 RMSDP=1.94D-05 MaxDP=1.42D-04 DE=-4.66D-06 OVMax= 1.17D-04

 Cycle   8  Pass 1  IDiag  3:
 E=  2.48368013126019     Delta-E=       -0.000000107256 Rises=F Damp=F
 DIIS: error= 3.65D-06 at cycle   8 NSaved=   8.
 NSaved= 8 IEnMin= 8 EnMin=  2.48368013126019     IErMin= 8 ErrMin= 3.65D-06
 ErrMax= 3.65D-06  0.00D+00 EMaxC= 1.00D-01 BMatC= 5.42D-10 BMatP= 2.35D-08
 IDIUse=1 WtCom= 1.00D+00 WtEn= 0.00D+00
 Coeff-Com: -0.296D-05-0.169D-05-0.104D-02 0.110D-01-0.625D-01 0.217D+00
 Coeff-Com: -0.583D+00 0.142D+01
 Coeff:     -0.296D-05-0.169D-05-0.104D-02 0.110D-01-0.625D-01 0.217D+00
 Coeff:     -0.583D+00 0.142D+01
 Gap=     0.425 Goal=   None    Shift=    0.000
 RMSDP=3.03D-06 MaxDP=2.12D-05 DE=-1.07D-07 OVMax= 1.86D-05

 Cycle   9  Pass 1  IDiag  3:
 E=  2.48368012863730     Delta-E=       -0.000000002623 Rises=F Damp=F
 DIIS: error= 8.49D-07 at cycle   9 NSaved=   9.
 NSaved= 9 IEnMin= 9 EnMin=  2.48368012863730     IErMin= 9 ErrMin= 8.49D-07
 ErrMax= 8.49D-07  0.00D+00 EMaxC= 1.00D-01 BMatC= 2.67D-11 BMatP= 5.42D-10
 IDIUse=1 WtCom= 1.00D+00 WtEn= 0.00D+00
 Coeff-Com:  0.710D-05-0.677D-05 0.304D-03-0.318D-02 0.182D-01-0.626D-01
 Coeff-Com:  0.165D+00-0.472D+00 0.135D+01
 Coeff:      0.710D-05-0.677D-05 0.304D-03-0.318D-02 0.182D-01-0.626D-01
 Coeff:      0.165D+00-0.472D+00 0.135D+01
 Gap=     0.425 Goal=   None    Shift=    0.000
 RMSDP=7.16D-07 MaxDP=5.88D-06 DE=-2.62D-09 OVMax= 6.44D-06

 Cycle  10  Pass 1  IDiag  3:
 E=  2.48368012848046     Delta-E=       -0.000000000157 Rises=F Damp=F
 DIIS: error= 3.26D-07 at cycle  10 NSaved=  10.
 NSaved=10 IEnMin=10 EnMin=  2.48368012848046     IErMin=10 ErrMin= 3.26D-07
 ErrMax= 3.26D-07  0.00D+00 EMaxC= 1.00D-01 BMatC= 3.23D-12 BMatP= 2.67D-11
 IDIUse=1 WtCom= 1.00D+00 WtEn= 0.00D+00
 Coeff-Com: -0.139D-05 0.970D-07-0.558D-04 0.578D-03-0.329D-02 0.109D-01
 Coeff-Com: -0.269D-01 0.850D-01-0.618D+00 0.155D+01
 Coeff:     -0.139D-05 0.970D-07-0.558D-04 0.578D-03-0.329D-02 0.109D-01
 Coeff:     -0.269D-01 0.850D-01-0.618D+00 0.155D+01
 Gap=     0.425 Goal=   None    Shift=    0.000
 RMSDP=3.42D-07 MaxDP=3.13D-06 DE=-1.57D-10 OVMax= 3.40D-06

 Cycle  11  Pass 1  IDiag  3:
 E=  2.48368012845759     Delta-E=       -0.000000000023 Rises=F Damp=F
 DIIS: error= 6.76D-08 at cycle  11 NSaved=  11.
 NSaved=11 IEnMin=11 EnMin=  2.48368012845759     IErMin=11 ErrMin= 6.76D-08
 ErrMax= 6.76D-08  0.00D+00 EMaxC= 1.00D-01 BMatC= 1.23D-13 BMatP= 3.23D-12
 IDIUse=1 WtCom= 1.00D+00 WtEn= 0.00D+00
 Coeff-Com: -0.335D-06 0.739D-06 0.262D-05-0.117D-04 0.343D-04 0.984D-04
 Coeff-Com: -0.108D-02 0.271D-02 0.105D+00-0.483D+00 0.138D+01
 Coeff:     -0.335D-06 0.739D-06 0.262D-05-0.117D-04 0.343D-04 0.984D-04
 Coeff:     -0.108D-02 0.271D-02 0.105D+00-0.483D+00 0.138D+01
 Gap=     0.425 Goal=   None    Shift=    0.000
 RMSDP=6.21D-08 MaxDP=5.22D-07 DE=-2.29D-11 OVMax= 6.13D-07

 Cycle  12  Pass 1  IDiag  3:
 E=  2.48368012845693     Delta-E=       -0.000000000001 Rises=F Damp=F
 DIIS: error= 7.06D-09 at cycle  12 NSaved=  12.
 NSaved=12 IEnMin=12 EnMin=  2.48368012845693     IErMin=12 ErrMin= 7.06D-09
 ErrMax= 7.06D-09  0.00D+00 EMaxC= 1.00D-01 BMatC= 2.39D-15 BMatP= 1.23D-13
 IDIUse=1 WtCom= 1.00D+00 WtEn= 0.00D+00
 Coeff-Com:  0.190D-07-0.261D-07 0.277D-06-0.117D-04 0.826D-04-0.370D-03
 Coeff-Com:  0.129D-02-0.365D-02-0.259D-01 0.152D+00-0.512D+00 0.139D+01
 Coeff:      0.190D-07-0.261D-07 0.277D-06-0.117D-04 0.826D-04-0.370D-03
 Coeff:      0.129D-02-0.365D-02-0.259D-01 0.152D+00-0.512D+00 0.139D+01
 Gap=     0.425 Goal=   None    Shift=    0.000
 RMSDP=6.53D-09 MaxDP=3.81D-08 DE=-6.68D-13 OVMax= 5.01D-08

 Cycle  13  Pass 2  IDiag  1:
 SCF Done:  E(RAM1) =   2.48368012846     A.U. after   13 cycles
            NFock= 12  Conv=0.65D-08     -V/T= 1.1657
 KE=-1.498891758546D+01 PE=-1.683973766054D+02 EE= 8.230923326933D+01
 Leave Link  502 at Tue Dec 15 17:06:11 2015, MaxMem=    33554432 cpu:         0.0
 (Enter /home/Applications/g09/g09/l801.exe)
 Range of M.O.s used for correlation:     1    24
 NBasis=    24 NAE=    13 NBE=    13 NFC=     0 NFV=     0
 NROrb=     24 NOA=    13 NOB=    13 NVA=    11 NVB=    11
 Leave Link  801 at Tue Dec 15 17:06:11 2015, MaxMem=    33554432 cpu:         0.0
 (Enter /home/Applications/g09/g09/l914.exe)
 RHF ground state
 MDV=    33554432 DFT=F DoStab=F Mixed=F DoRPA=F DoScal=F NonHer=F
 Making orbital integer symmetry assigments:
 Orbital symmetries:
       Occupied  (A) (A) (A) (A) (A) (A) (A) (A) (A) (A) (A) (A)
                 (A)
       Virtual   (A) (A) (A) (A) (A) (A) (A) (A) (A) (A) (A)
    60 initial guesses have been made.
 Convergence on wavefunction:    0.000001000000000
 Davidson Disk Diagonalization:  ConvIn= 1.00D-06 SkipCon=T Conv= 1.00D-06.
 Max sub-space:   240 roots to seek:    60 dimension of matrix:          286
 Iteration     1 Dimension    60 NMult     0 NNew     60
 CISAX will form    60 AO SS matrices at one time.
 NMat=    60 NSing=    60 JSym2X= 0.
 FoFJK:  IHMeth= 8 ICntrl=       0 DoSepK=F KAlg= 0 I1Cent=   0 FoldK=F
 IRaf=         1 NMat= 120 IRICut=       1 DoRegI=T DoRafI=F ISym2E= 0.
 FoFCou: FMM=F IPFlag=           0 FMFlag=      100000 FMFlg1=           0
         NFxFlg=           0 DoJE=F BraDBF=F KetDBF=F FulRan=T
         wScrn=  0.000000 ICntrl=       0 IOpCl=  0 I1Cent=           0 NGrid=           0
         NMat0=  120 NMatS0=     60 NMatT0=    0 NMatD0=  120 NMtDS0=    0 NMtDT0=    0
 Symmetry not used in FoFCou.
 New state      5 was old state      7
 New state      6 was old state      5
 New state      7 was old state      8
 New state      8 was old state      6
 New state      9 was old state     10
 New state     10 was old state      9
 New state     11 was old state     18
 New state     12 was old state     11
 New state     13 was old state     12
 New state     14 was old state     15
 New state     15 was old state     16
 Excitation Energies [eV] at current iteration:
 Root      1 :     5.800935680828136
 Root      2 :     6.745981990521870
 Root      3 :     7.063372892888225
 Root      4 :     7.141452539566089
 Root      5 :     7.794441789691419
 Root      6 :     8.334200784134515
 Root      7 :     8.571008980807209
 Root      8 :     8.769467987795755
 Root      9 :     9.186361132781391
 Root     10 :     9.540399410329446
 Root     11 :     9.645096065797443
 Root     12 :     9.693591772253216
 Root     13 :     9.913515969898150
 Root     14 :     9.977850370139276
 Root     15 :    10.005586418225660
 Root     16 :    10.038224381588780
 Root     17 :    10.263998711247920
 Root     18 :    10.418149756674880
 Root     19 :    10.755518649286250
 Root     20 :    11.178611842750580
 Root     21 :    11.392769300201120
 Root     22 :    11.549648316519270
 Root     23 :    11.742188187546650
 Root     24 :    11.792199640433230
 Root     25 :    12.050656571993490
 Root     26 :    12.114919220928730
 Root     27 :    12.173620909671340
 Root     28 :    12.421900769945410
 Root     29 :    12.620547705163400
 Root     30 :    12.721778707085760
 Root     31 :    12.813655183777470
 Root     32 :    12.947488081346590
 Root     33 :    13.042173942308360
 Root     34 :    13.340252767697570
 Root     35 :    13.403906288538720
 Root     36 :    13.597557193580680
 Root     37 :    13.765095568970880
 Root     38 :    13.926612152251110
 Root     39 :    13.945976813852970
 Root     40 :    14.219542503564940
 Root     41 :    14.303442848712340
 Root     42 :    14.375525139217600
 Root     43 :    14.435097911423250
 Root     44 :    14.806381337891240
 Root     45 :    15.306631281818170
 Root     46 :    15.376304423668350
 Root     47 :    15.407968016109320
 Root     48 :    15.639074687811140
 Root     49 :    15.860724238752620
 Root     50 :    15.924018815107570
 Root     51 :    16.113390423533780
 Root     52 :    16.235873107004570
 Root     53 :    16.744814835946710
 Root     54 :    16.808626345466370
 Root     55 :    17.138717216598650
 Root     56 :    17.148907453690700
 Root     57 :    17.350034020125410
 Root     58 :    17.415595498872390
 Root     59 :    17.573359491456100
 Root     60 :    17.678555370909500
 Iteration     2 Dimension   120 NMult    60 NNew     60
 CISAX will form    60 AO SS matrices at one time.
 NMat=    60 NSing=    60 JSym2X= 0.
 Root      1 not converged, maximum delta is    0.019787893375918
 Root      2 not converged, maximum delta is    0.032824448716912
 Root      3 not converged, maximum delta is    0.064885018998164
 Root      4 not converged, maximum delta is    0.057880814887187
 Root      5 not converged, maximum delta is    0.017372211426463
 Root      6 not converged, maximum delta is    0.035617775896245
 Root      7 not converged, maximum delta is    0.037090743831974
 Root      8 not converged, maximum delta is    0.014059234887020
 Root      9 not converged, maximum delta is    0.044874438575129
 New state     10 was old state     12
 Root     10 not converged, maximum delta is    0.308908182932236
 New state     11 was old state     10
 Root     11 not converged, maximum delta is    0.128800061230930
 New state     12 was old state     11
 Root     12 not converged, maximum delta is    0.087403717085361
 Root     13 not converged, maximum delta is    0.036335905264797
 New state     14 was old state     15
 Root     14 not converged, maximum delta is    0.097664943219596
 New state     15 was old state     16
 Root     15 not converged, maximum delta is    0.442559216242216
 Excitation Energies [eV] at current iteration:
 Root      1 :     5.734357918127335   Change is   -0.066577762700801
 Root      2 :     6.712110704124663   Change is   -0.033871286397208
 Root      3 :     7.028980758230650   Change is   -0.034392134657575
 Root      4 :     7.119830701810947   Change is   -0.021621837755142
 Root      5 :     7.780374587093316   Change is   -0.014067202598102
 Root      6 :     8.301019968783379   Change is   -0.033180815351136
 Root      7 :     8.533794580176997   Change is   -0.037214400630211
 Root      8 :     8.752037357665975   Change is   -0.017430630129780
 Root      9 :     9.151817027720879   Change is   -0.034544105060512
 Root     10 :     9.367144465255882   Change is   -0.326447306997333
 Root     11 :     9.499559724230684   Change is   -0.040839686098761
 Root     12 :     9.600523968938539   Change is   -0.044572096858904
 Root     13 :     9.870256409848432   Change is   -0.043259560049718
 Root     14 :     9.927941359679956   Change is   -0.077645058545703
 Root     15 :     9.969196630870210   Change is   -0.069027750718568
 Root     16 :     9.974600453688334   Change is   -0.003249916450943
 Root     17 :    10.193190591028400   Change is   -0.224959165646482
 Root     18 :    10.273262837993240   Change is    0.009264126745317
 Root     19 :    10.568991542161510   Change is   -0.186527107124740
 Root     20 :    10.930171299529250   Change is   -0.248440543221331
 Root     21 :    11.211157401721540   Change is   -0.181611898479581
 Root     22 :    11.375554899554820   Change is   -0.174093416964456
 Root     23 :    11.582831433519840   Change is   -0.159356754026819
 Root     24 :    11.708896294972390   Change is   -0.083303345460838
 Root     25 :    11.912805386207410   Change is   -0.260815523463924
 Root     26 :    11.970140415716820   Change is   -0.144778805211908
 Root     27 :    12.010678364581560   Change is   -0.039978207411931
 Root     28 :    12.212738036517200   Change is   -0.209162733428212
 Root     29 :    12.453541901638300   Change is   -0.167005803525102
 Root     30 :    12.492070603078860   Change is   -0.229708104006898
 Root     31 :    12.669599656795440   Change is   -0.144055526982033
 Root     32 :    12.834245574617520   Change is   -0.207928367690839
 Root     33 :    12.850050806857160   Change is   -0.097437274489425
 Root     34 :    13.173115257174160   Change is   -0.230791031364566
 Root     35 :    13.213313017250890   Change is   -0.126939750446686
 Root     36 :    13.453506012230890   Change is   -0.144051181349793
 Root     37 :    13.600596514289500   Change is   -0.164499054681381
 Root     38 :    13.725918552511930   Change is   -0.200693599739174
 Root     39 :    13.785627765485730   Change is   -0.160349048367243
 Root     40 :    14.162103733503000   Change is   -0.057438770061946
 Root     41 :    14.218545591310240   Change is   -0.156979547907360
 Root     42 :    14.285660463696160   Change is   -0.017782385016176
 Root     43 :    14.304864217784400   Change is   -0.130233693638850
 Root     44 :    14.795562540545790   Change is   -0.010818797345448
 Root     45 :    15.097017137130950   Change is   -0.279287286537407
 Root     46 :    15.143585086353590   Change is   -0.717139152399025
 Root     47 :    15.169902353702320   Change is   -0.136728928115858
 Root     48 :    15.177534774017570   Change is   -0.230433242091759
 Root     49 :    15.436820338567750   Change is   -0.202254349243400
 Root     50 :    15.839821417727540   Change is   -0.396051689277027
 Root     51 :    15.862843612415830   Change is   -0.061175202691735
 Root     52 :    15.963441013143770   Change is   -0.149949410390014
 Root     53 :    16.299084604195250   Change is   -0.445730231751454
 Root     54 :    16.574183164902190   Change is   -0.234443180564173
 Root     55 :    16.844532600860570   Change is   -0.304374852830136
 Root     56 :    16.976646705208580   Change is   -0.162070511390061
 Root     57 :    17.176764766232390   Change is   -0.238830732640000
 Root     58 :    17.300900833911190   Change is   -0.377654536998313
 Root     59 :    17.360715273495740   Change is    0.010681253370324
 Root     60 :    17.416160621931450   Change is   -0.157198869524644
 Iteration     3 Dimension   135 NMult   120 NNew     15
 CISAX will form    15 AO SS matrices at one time.
 NMat=    15 NSing=    15 JSym2X= 0.
 Root      1 not converged, maximum delta is    0.000677778842414
 Root      2 not converged, maximum delta is    0.000066210298670
 Root      3 not converged, maximum delta is    0.000034438834489
 Root      4 not converged, maximum delta is    0.000031514946423
 Root      5 not converged, maximum delta is    0.000028722492369
 Root      6 not converged, maximum delta is    0.000065620783374
 Root      7 not converged, maximum delta is    0.000074713273608
 Root      8 not converged, maximum delta is    0.000581098650193
 Root      9 not converged, maximum delta is    0.000064261433438
 Root     10 not converged, maximum delta is    0.003219438741813
 Root     11 not converged, maximum delta is    0.001340903926591
 Root     12 not converged, maximum delta is    0.000138794603793
 Root     13 not converged, maximum delta is    0.000284113697851
 Root     14 not converged, maximum delta is    0.001472495704001
 Root     15 not converged, maximum delta is    0.003304191730947
 Excitation Energies [eV] at current iteration:
 Root      1 :     5.734205020721982   Change is   -0.000152897405354
 Root      2 :     6.712109830026570   Change is   -0.000000874098093
 Root      3 :     7.028980299448628   Change is   -0.000000458782021
 Root      4 :     7.119830373411903   Change is   -0.000000328399045
 Root      5 :     7.780374291982716   Change is   -0.000000295110600
 Root      6 :     8.301018658344274   Change is   -0.000001310439104
 Root      7 :     8.533793006080135   Change is   -0.000001574096862
 Root      8 :     8.751977072535167   Change is   -0.000060285130808
 Root      9 :     9.151816234262656   Change is   -0.000000793458224
 Root     10 :     9.365867121946273   Change is   -0.001277343309609
 Root     11 :     9.499100845285735   Change is   -0.000458878944948
 Root     12 :     9.600520145930163   Change is   -0.000003823008374
 Root     13 :     9.870245433062435   Change is   -0.000010976785997
 Root     14 :     9.927671682019813   Change is   -0.000269677660142
 Root     15 :     9.969163590546051   Change is   -0.000033040324159
 Iteration     4 Dimension   143 NMult   135 NNew      8
 CISAX will form     8 AO SS matrices at one time.
 NMat=     8 NSing=     8 JSym2X= 0.
 Root      1 not converged, maximum delta is    0.000035281888011
 Root      2 not converged, maximum delta is    0.000002284615426
 Root      3 not converged, maximum delta is    0.000001325453968
 Root      4 not converged, maximum delta is    0.000001560716586
 Root      5 not converged, maximum delta is    0.000001347384408
 Root      6 not converged, maximum delta is    0.000003428070543
 Root      7 not converged, maximum delta is    0.000002909290527
 Root      8 not converged, maximum delta is    0.000024758062504
 Root      9 not converged, maximum delta is    0.000002611002092
 Root     10 not converged, maximum delta is    0.000057769242969
 Root     11 not converged, maximum delta is    0.000061009316170
 Root     12 not converged, maximum delta is    0.000002509852992
 Root     13 not converged, maximum delta is    0.000008922626927
 Root     14 not converged, maximum delta is    0.000040638973826
 Root     15 not converged, maximum delta is    0.000013802916418
 Excitation Energies [eV] at current iteration:
 Root      1 :     5.734204716148305   Change is   -0.000000304573676
 Root      2 :     6.712109828876672   Change is   -0.000000001149897
 Root      3 :     7.028980298839842   Change is   -0.000000000608786
 Root      4 :     7.119830372611506   Change is   -0.000000000800396
 Root      5 :     7.780374291451904   Change is   -0.000000000530813
 Root      6 :     8.301018656968910   Change is   -0.000000001375365
 Root      7 :     8.533793004611475   Change is   -0.000000001468660
 Root      8 :     8.751976955451690   Change is   -0.000000117083476
 Root      9 :     9.151816233349068   Change is   -0.000000000913588
 Root     10 :     9.365866417194523   Change is   -0.000000704751750
 Root     11 :     9.499100046827982   Change is   -0.000000798457754
 Root     12 :     9.600520143997402   Change is   -0.000000001932763
 Root     13 :     9.870245409243354   Change is   -0.000000023819080
 Root     14 :     9.927671239092344   Change is   -0.000000442927469
 Root     15 :     9.969163535901171   Change is   -0.000000054644880
 Convergence achieved on expansion vectors.
 ***********************************************************************
 Excited states from <AA,BB:AA,BB> singles matrix:
 ***********************************************************************
 
 1PDM for each excited state written to RWF  633
 Ground to excited state transition densities written to RWF  633
 Ground to excited state transition electric dipole moments (Au):
       state          X           Y           Z        Dip. S.      Osc.
         1         1.5092     -0.0802     -0.0328      2.2853      0.3210
         2         0.0323     -0.0101      0.1645      0.0282      0.0046
         3        -0.0102     -0.0089      0.0868      0.0077      0.0013
         4         0.0388      0.0037     -0.0400      0.0031      0.0005
         5         0.0385     -0.0102     -0.1421      0.0218      0.0041
         6        -0.0179      0.0057     -0.0385      0.0018      0.0004
         7        -0.0362     -0.0064     -0.1998      0.0413      0.0086
         8         0.1243      0.6028      0.0079      0.3788      0.0812
         9        -0.0021      0.0187      0.0674      0.0049      0.0011
        10         0.6696     -0.4158     -0.0067      0.6213      0.1426
        11        -0.3704     -0.4013      0.0069      0.2983      0.0694
        12        -0.0578     -0.0002     -0.0554      0.0064      0.0015
        13         0.1611     -0.0328     -0.1987      0.0665      0.0161
        14         0.4711     -0.0604      0.2802      0.3041      0.0740
        15        -0.1167     -0.0195      0.3686      0.1498      0.0366
 Ground to excited state transition velocity dipole moments (Au):
       state          X           Y           Z        Dip. S.      Osc.
         1        -0.2065      0.0094      0.0086      0.0428      0.1354
         2        -0.0061      0.0029     -0.1885      0.0356      0.0961
         3         0.0047     -0.0037     -0.0557      0.0031      0.0081
         4        -0.0057     -0.0021     -0.0166      0.0003      0.0008
         5        -0.0057      0.0028     -0.0127      0.0002      0.0005
         6         0.0045     -0.0020     -0.0074      0.0001      0.0002
         7         0.0041      0.0015      0.0048      0.0000      0.0001
         8        -0.0373     -0.2182      0.0002      0.0490      0.1016
         9        -0.0032     -0.0046      0.0287      0.0009      0.0017
        10        -0.0714      0.0807     -0.0021      0.0116      0.0225
        11         0.0532      0.0147     -0.0007      0.0030      0.0058
        12         0.0068     -0.0010      0.0101      0.0002      0.0003
        13        -0.0277     -0.0070     -0.0588      0.0043      0.0079
        14        -0.0722     -0.0206      0.0437      0.0075      0.0138
        15         0.0160      0.0152      0.0441      0.0024      0.0044
 Ground to excited state transition magnetic dipole moments (Au):
       state          X           Y           Z
         1         0.0006     -0.0102      0.5960
         2        -0.2906     -0.1526      0.0075
         3        -0.2098      0.2119     -0.0014
         4         0.3256      0.7932      0.0169
         5         0.7723     -0.3300      0.0207
         6         0.3425      0.5619     -0.0089
         7         0.4579     -0.3755     -0.0111
         8         0.0090     -0.0056      0.0421
         9        -0.1084     -0.3693      0.0015
        10        -0.0018     -0.0146      0.2458
        11         0.0064      0.0308      0.0516
        12        -0.0157     -0.2265     -0.0081
        13         0.0225     -0.2553      0.0131
        14        -0.0287     -0.0111      0.1100
        15        -0.0020      0.3885     -0.0111
 Ground to excited state transition velocity quadrupole moments (Au):
       state          XX          YY          ZZ          XY          XZ          YZ
         1        -0.0756      0.0440      0.0019     -0.3410     -0.0040      0.0203
         2         0.0107      0.0076     -0.0044     -0.0194      0.0833     -0.1390
         3         0.0056     -0.0005     -0.0045     -0.0002     -0.2751     -0.0065
         4         0.0008     -0.0030     -0.0049     -0.0104      0.1351     -0.0724
         5        -0.0095      0.0015      0.0008     -0.0093     -0.1175     -0.1313
         6        -0.0005     -0.0024     -0.0010      0.0015     -0.4433      0.1734
         7         0.0182      0.0076     -0.0127      0.0059      0.2531      0.1650
         8         0.2094     -0.2331      0.0160     -0.0985     -0.0042     -0.0076
         9        -0.0032     -0.0188      0.0001      0.0040      0.0530     -0.0334
        10         0.0204      0.2596      0.0410     -0.2272     -0.0055      0.0032
        11        -0.2536     -0.0335     -0.0274      0.1472     -0.0077     -0.0024
        12         0.0102      0.0049      0.0044      0.0153      0.0559     -0.0135
        13        -0.0499     -0.0256     -0.0071     -0.0238      0.2761      0.0271
        14        -0.3319     -0.0959     -0.0669     -0.0752      0.0190     -0.0246
        15         0.1015      0.0553      0.0315      0.0100      0.1724     -0.0073
 <0|del|b> * <b|rxdel|0> + <0|del|b> * <b|delr+rdel|0>
 Rotatory Strengths (R) in cgs (10**-40 erg-esu-cm/Gauss)
       state          XX          YY          ZZ    R(velocity)    E-M Angle
         1         3.5838      6.2702      6.5900      5.4813       87.72
         2         2.2528     -3.5203      1.0310     -0.0789       90.00
         3        -2.3516     -1.3107     -0.9973     -1.5532       95.85
         4        -2.0444     -2.5718     -5.7547     -3.4570      104.64
         5        -0.9214     -5.0249     -7.9825     -4.6430      118.13
         6        -2.2707      2.7523      0.5975      0.3597       85.44
         7        -1.1186      2.7571      1.1281      0.9222       71.44
         8         0.3068     -0.0246      1.6687      0.6503       84.70
         9         2.1912      0.4075      1.7720      1.4569       79.35
        10        -0.7960     -1.1272     -1.3047     -1.0760       93.40
        11         0.4221      0.2864      0.8197      0.5094       76.92
        12         0.3514     -0.4380      0.1533      0.0222       90.00
        13         4.2248     -3.4528     -0.0169      0.2517       88.68
        14         2.0766     11.5773      0.1249      4.5929       44.24
        15         3.1208     -1.0420      8.3004      3.4597       73.71
 1/2[<0|r|b>*<b|rxdel|0> + (<0|rxdel|b>*<b|r|0>)*]
 Rotatory Strengths (R) in cgs (10**-40 erg-esu-cm/Gauss)
       state          XX          YY          ZZ     R(length)
         1        -0.6861     -0.5770     13.8288      4.1886
         2         6.6406     -1.0879     -0.8665      1.5621
         3        -1.5063      1.3367      0.0882     -0.0271
         4        -8.9347     -2.0798      0.4792     -3.5118
         5       -21.0190     -2.3713      2.0810     -7.1031
         6         4.3417     -2.2640     -0.2413      0.6121
         7        11.7314     -1.7054     -1.5663      2.8199
         8        -0.7890      2.3721     -0.2343      0.4496
         9        -0.1641      4.8805     -0.0721      1.5481
        10         0.8589     -4.3022      1.1672     -0.7587
        11         1.6808      8.7383     -0.2524      3.3889
        12        -0.6406     -0.0290     -0.3161     -0.3286
        13        -2.5635     -5.9207      1.8401     -2.2147
        14         9.5596     -0.4731    -21.8021     -4.2385
        15        -0.1639      5.3458      2.8933      2.6918
  1/2[<0|del|b>*<b|r|0> + (<0|r|b>*<b|del|0>)*] (Au)
       state          X           Y           Z        Dip. S.   Osc.(frdel)
         1        -0.3117     -0.0008     -0.0003      0.3127      0.2085
         2        -0.0002      0.0000     -0.0310      0.0312      0.0208
         3         0.0000      0.0000     -0.0048      0.0049      0.0032
         4        -0.0002      0.0000      0.0007     -0.0004     -0.0003
         5        -0.0002      0.0000      0.0018     -0.0016     -0.0010
         6        -0.0001      0.0000      0.0003     -0.0002     -0.0001
         7        -0.0001      0.0000     -0.0010      0.0011      0.0008
         8        -0.0046     -0.1315      0.0000      0.1361      0.0908
         9         0.0000     -0.0001      0.0019     -0.0019     -0.0012
        10        -0.0478     -0.0335      0.0000      0.0813      0.0542
        11        -0.0197     -0.0059      0.0000      0.0256      0.0171
        12        -0.0004      0.0000     -0.0006      0.0010      0.0006
        13        -0.0045      0.0002      0.0117     -0.0075     -0.0050
        14        -0.0340      0.0012      0.0123      0.0205      0.0137
        15        -0.0019     -0.0003      0.0163     -0.0141     -0.0094

 Excitation energies and oscillator strengths:
 
 Excited State   1:      Singlet-A      5.7342 eV  216.22 nm  f=0.3210  <S**2>=0.000
      13 -> 14         0.69087
 This state for optimization and/or second-order correction.
 Total Energy, E(CIS) =   2.69440828347    
 Copying the excited state density for this state as the 1-particle RhoCI density.
 
 Excited State   2:      Singlet-A      6.7121 eV  184.72 nm  f=0.0046  <S**2>=0.000
      13 -> 15         0.61426
      13 -> 16         0.23375
      13 -> 17        -0.18886
 
 Excited State   3:      Singlet-A      7.0290 eV  176.39 nm  f=0.0013  <S**2>=0.000
      12 -> 14        -0.11131
      13 -> 15        -0.24316
      13 -> 16         0.59271
      13 -> 17        -0.11047
      13 -> 19         0.17400
 
 Excited State   4:      Singlet-A      7.1198 eV  174.14 nm  f=0.0005  <S**2>=0.000
       9 -> 14         0.13606
      12 -> 14         0.67929
      13 -> 16         0.11386
 
 Excited State   5:      Singlet-A      7.7804 eV  159.36 nm  f=0.0041  <S**2>=0.000
       9 -> 14        -0.10320
      10 -> 14         0.49769
      11 -> 14        -0.47837
 
 Excited State   6:      Singlet-A      8.3010 eV  149.36 nm  f=0.0004  <S**2>=0.000
      10 -> 16        -0.10397
      11 -> 16        -0.11361
      13 -> 16         0.11028
      13 -> 17         0.46134
      13 -> 18        -0.39437
      13 -> 21         0.28108
 
 Excited State   7:      Singlet-A      8.5338 eV  145.29 nm  f=0.0086  <S**2>=0.000
      13 -> 15         0.12493
      13 -> 17         0.44138
      13 -> 18         0.42965
      13 -> 21        -0.24189
 
 Excited State   8:      Singlet-A      8.7520 eV  141.66 nm  f=0.0812  <S**2>=0.000
      10 -> 14         0.47611
      11 -> 14         0.49758
 
 Excited State   9:      Singlet-A      9.1518 eV  135.47 nm  f=0.0011  <S**2>=0.000
      10 -> 16         0.11949
      11 -> 15         0.10223
      11 -> 16         0.13543
      13 -> 16        -0.10264
      13 -> 18        -0.14644
      13 -> 19         0.60871
      13 -> 21        -0.13798
 
 Excited State  10:      Singlet-A      9.3659 eV  132.38 nm  f=0.1426  <S**2>=0.000
       9 -> 15         0.15331
       9 -> 16        -0.10017
      10 -> 15        -0.20937
      10 -> 16        -0.15303
      10 -> 17         0.18151
      11 -> 15         0.20008
      11 -> 16         0.13281
      11 -> 17        -0.17580
      12 -> 15        -0.19227
      12 -> 16        -0.22195
      12 -> 17         0.23672
      12 -> 18        -0.21474
      13 -> 14         0.11378
 
 Excited State  11:      Singlet-A      9.4991 eV  130.52 nm  f=0.0694  <S**2>=0.000
      12 -> 15         0.62205
      12 -> 16        -0.14041
      12 -> 18        -0.15169
 
 Excited State  12:      Singlet-A      9.6005 eV  129.14 nm  f=0.0015  <S**2>=0.000
       9 -> 14        -0.17601
      13 -> 18         0.34407
      13 -> 19         0.19406
      13 -> 21         0.52790
 
 Excited State  13:      Singlet-A      9.8702 eV  125.61 nm  f=0.0161  <S**2>=0.000
       7 -> 15        -0.10022
      10 -> 15         0.37959
      11 -> 15         0.41624
      11 -> 16         0.19523
      12 -> 16         0.10297
      13 -> 15        -0.13498
      13 -> 16         0.12834
      13 -> 19        -0.11716
      13 -> 20        -0.12211
      13 -> 21         0.17620
 
 Excited State  14:      Singlet-A      9.9277 eV  124.89 nm  f=0.0740  <S**2>=0.000
      10 -> 15        -0.12466
      10 -> 16        -0.26466
      10 -> 19        -0.10739
      11 -> 16         0.37094
      11 -> 19         0.10130
      12 -> 16         0.33907
      12 -> 17        -0.14383
      13 -> 20         0.28146
 
 Excited State  15:      Singlet-A      9.9692 eV  124.37 nm  f=0.0366  <S**2>=0.000
       9 -> 14         0.48021
      10 -> 16         0.22532
      12 -> 16        -0.11969
      13 -> 20         0.37548
      13 -> 21         0.13495
 SavETr:  write IOETrn=   770 NScale= 10 NData=  16 NLR=1 NState=   15 LETran=     280.
 The selected state is a singlet
 CISAX will form     1 AO SS matrices at one time.
 NMat=     1 NSing=     1 JSym2X= 0.
 Leave Link  914 at Tue Dec 15 17:06:11 2015, MaxMem=    33554432 cpu:         0.1
 (Enter /home/Applications/g09/g09/l1002.exe)
 Minotr:  Closed shell wavefunction.
          Computing CIS/TD-HF/TD-KS derivatives.
          Using Z-Vector for PSCF gradient.
          Skipping F1 and S1 gradient terms here.
          IDoAtm=111111111
          Direct CPHF calculation.
          Differentiating once with respect to electric field.
                with respect to dipole field.
          Differentiating once with respect to nuclear coordinates.
          Electric field/nuclear overlap derivatives assumed to be zero.
          Requested convergence is 1.0D-10 RMS, and 1.0D-09 maximum.
          NewPWx=T KeepS1=F KeepF1=F KeepIn=T MapXYZ=F SortEE=F KeepMc=T.
          MDV=      33495423 using IRadAn=       0.
 Keep J ints in memory in canonical form, NReq=871704.
 FoFCou: FMM=F IPFlag=           0 FMFlag=           0 FMFlg1=           0
         NFxFlg=           0 DoJE=F BraDBF=F KetDBF=F FulRan=T
         wScrn=  0.000000 ICntrl=     600 IOpCl=  2 I1Cent=           0 NGrid=           0
         NMat0=    1 NMatS0=     54 NMatT0=    0 NMatD0=    1 NMtDS0=    0 NMtDT0=    0
 Symmetry not used in FoFCou.
          Solving linear equations separately, MaxMat=       0.
          There are     1 degrees of freedom in the 1st order CPHF.  IDoFFX=0 NUNeed=     1.
 LinEq1:  Iter=  0 NonCon=     1 RMS=6.47D-03 Max=3.43D-02 NDo=     1
 AX will form     1 AO Fock derivatives at one time.
 LinEq1:  Iter=  1 NonCon=     1 RMS=5.19D-04 Max=1.86D-03 NDo=     1
 LinEq1:  Iter=  2 NonCon=     1 RMS=5.02D-05 Max=1.43D-04 NDo=     1
 LinEq1:  Iter=  3 NonCon=     1 RMS=6.54D-06 Max=4.61D-05 NDo=     1
 LinEq1:  Iter=  4 NonCon=     1 RMS=1.14D-06 Max=3.80D-06 NDo=     1
 LinEq1:  Iter=  5 NonCon=     1 RMS=1.69D-07 Max=9.74D-07 NDo=     1
 LinEq1:  Iter=  6 NonCon=     1 RMS=2.06D-08 Max=7.30D-08 NDo=     1
 LinEq1:  Iter=  7 NonCon=     1 RMS=2.35D-09 Max=1.10D-08 NDo=     1
 LinEq1:  Iter=  8 NonCon=     1 RMS=2.80D-10 Max=1.43D-09 NDo=     1
 LinEq1:  Iter=  9 NonCon=     0 RMS=2.92D-11 Max=1.35D-10 NDo=     1
 Linear equations converged to 1.000D-10 1.000D-09 after     9 iterations.
 End of Minotr F.D. properties file   721 does not exist.
 End of Minotr F.D. properties file   722 does not exist.
 End of Minotr F.D. properties file   788 does not exist.
 Leave Link 1002 at Tue Dec 15 17:06:11 2015, MaxMem=    33554432 cpu:         0.0
 (Enter /home/Applications/g09/g09/l601.exe)
 Copying SCF densities to generalized density rwf, IOpCl= 0 IROHF=0.

 **********************************************************************

            Population analysis using the SCF density.

 **********************************************************************

 Orbital symmetries:
       Occupied  (A) (A) (A) (A) (A) (A) (A) (A) (A) (A) (A) (A)
                 (A)
       Virtual   (A) (A) (A) (A) (A) (A) (A) (A) (A) (A) (A)
 The electronic state is 1-A.
 Alpha  occ. eigenvalues --   -1.74609  -1.15720  -0.94146  -0.80428  -0.75549
 Alpha  occ. eigenvalues --   -0.66874  -0.65008  -0.55952  -0.49814  -0.43736
 Alpha  occ. eigenvalues --   -0.43624  -0.41655  -0.31276
 Alpha virt. eigenvalues --    0.11241   0.16440   0.18216   0.23339   0.25656
 Alpha virt. eigenvalues --    0.27595   0.29256   0.31398   0.41463   0.50076
 Alpha virt. eigenvalues --    0.55721
     Molecular Orbital Coefficients:
                           1         2         3         4         5
                           O         O         O         O         O
     Eigenvalues --    -1.74609  -1.15720  -0.94146  -0.80428  -0.75549
   1 1   C  1S          0.11756   0.47156  -0.23964  -0.30621  -0.11846
   2        1PX        -0.08134  -0.18852  -0.15034  -0.22847   0.19575
   3        1PY        -0.11503  -0.06157   0.12412  -0.00623  -0.35739
   4        1PZ         0.00052   0.00382  -0.00077  -0.00064   0.01031
   5 2   C  1S          0.27695   0.15278  -0.50818   0.12058   0.42562
   6        1PX        -0.27947  -0.04903   0.02016  -0.21150   0.16885
   7        1PY        -0.07281   0.30762   0.06699  -0.46275  -0.02509
   8        1PZ        -0.00530  -0.00071   0.00694  -0.00016   0.01423
   9 3   O  1S          0.75446  -0.33711  -0.01997   0.00942  -0.27362
  10        1PX         0.00477   0.01833  -0.26215   0.26408   0.01547
  11        1PY         0.08734   0.13822   0.03631  -0.03699   0.11843
  12        1PZ         0.00158   0.00091   0.00040   0.00373   0.01033
  13 4   C  1S          0.30301   0.18411   0.54528  -0.07692   0.35672
  14        1PX         0.26187   0.12674  -0.05634  -0.12251  -0.15208
  15        1PY        -0.15229   0.32322  -0.07646   0.50438  -0.03067
  16        1PZ        -0.00009   0.00283   0.00670   0.00675   0.02581
  17 5   C  1S          0.12952   0.50394   0.19752   0.25924  -0.17176
  18        1PX         0.05382   0.15366  -0.23363  -0.26319  -0.20646
  19        1PY        -0.14153  -0.09621  -0.11894   0.02433  -0.32532
  20        1PZ        -0.00158  -0.00381   0.00005   0.00025   0.01393
  21 6   H  1S          0.01011   0.15346   0.09558   0.19352  -0.16999
  22 7   H  1S          0.05616   0.01168   0.27410  -0.02625   0.25328
  23 8   H  1S          0.05181   0.00252  -0.23891   0.06759   0.29415
  24 9   H  1S          0.01028   0.14094  -0.12432  -0.23288  -0.10182
                           6         7         8         9        10
                           O         O         O         O         O
     Eigenvalues --    -0.66874  -0.65008  -0.55952  -0.49814  -0.43736
   1 1   C  1S         -0.21664  -0.01895  -0.12759  -0.01341  -0.05256
   2        1PX        -0.13628  -0.02398  -0.06451   0.38286  -0.19848
   3        1PY        -0.25981  -0.01250   0.06710  -0.14770  -0.35367
   4        1PZ        -0.03813   0.36892   0.01186   0.00642   0.16058
   5 2   C  1S         -0.10344  -0.01926  -0.04377  -0.13237   0.05406
   6        1PX        -0.33310  -0.05654   0.58019   0.18457   0.10818
   7        1PY         0.14381   0.01654  -0.18900   0.40100   0.29233
   8        1PZ        -0.05596   0.51204   0.03870  -0.00318   0.48536
   9 3   O  1S         -0.20021  -0.01580  -0.01050   0.34284   0.09507
  10        1PX         0.01972   0.00249  -0.15402  -0.01759  -0.05460
  11        1PY         0.20088   0.01639   0.01713  -0.13352  -0.06381
  12        1PZ        -0.02430   0.23903   0.00126  -0.00266   0.00272
  13 4   C  1S         -0.08465  -0.02926   0.06332  -0.09824  -0.12600
  14        1PX         0.42802   0.04930   0.56210   0.00693  -0.13840
  15        1PY         0.05919  -0.00365  -0.02044   0.50582  -0.11858
  16        1PZ        -0.07049   0.60440  -0.01735   0.01838  -0.43966
  17 5   C  1S         -0.18101  -0.01481   0.14150  -0.02597   0.06517
  18        1PX         0.07322   0.02771  -0.04050  -0.37616   0.00643
  19        1PY        -0.29494  -0.02020   0.00912  -0.18205   0.21986
  20        1PZ        -0.04275   0.40658  -0.00044   0.01506  -0.10445
  21 6   H  1S         -0.27172  -0.02859   0.09143   0.00662   0.18645
  22 7   H  1S         -0.29600  -0.02949  -0.31068  -0.13446   0.02915
  23 8   H  1S         -0.26522  -0.03666   0.35107  -0.09096   0.01785
  24 9   H  1S         -0.28475  -0.02788  -0.06688   0.12441  -0.33669
                          11        12        13        14        15
                           O         O         O         V         V
     Eigenvalues --    -0.43624  -0.41655  -0.31276   0.11241   0.16440
   1 1   C  1S          0.05549  -0.08922  -0.00428   0.00964  -0.10115
   2        1PX         0.18314   0.34971   0.00234  -0.00549   0.07574
   3        1PY         0.32643  -0.00605   0.01183  -0.00912   0.09565
   4        1PZ         0.15292   0.00832   0.59247  -0.67906  -0.01253
   5 2   C  1S         -0.04920   0.17853  -0.00005  -0.00435  -0.01867
   6        1PX        -0.12705  -0.29862   0.00270  -0.00534   0.01094
   7        1PY        -0.25488   0.06156  -0.01138  -0.00251   0.09875
   8        1PZ         0.52821   0.01635  -0.37132   0.18602   0.00521
   9 3   O  1S         -0.07251  -0.20137  -0.00371  -0.00040   0.01967
  10        1PX         0.05335   0.00713   0.00308  -0.00232   0.04494
  11        1PY         0.04816   0.19414   0.00211  -0.00275   0.10356
  12        1PZ         0.01266   0.00441  -0.19284  -0.00661  -0.00672
  13 4   C  1S          0.11908   0.08931   0.00979   0.00144  -0.15126
  14        1PX         0.07779   0.26225  -0.00520  -0.01081   0.43175
  15        1PY         0.13400  -0.22114   0.00091  -0.00598   0.28642
  16        1PZ        -0.46252  -0.01983  -0.36311  -0.19854  -0.01580
  17 5   C  1S         -0.06857  -0.02395   0.00671   0.00825  -0.14450
  18        1PX         0.00074  -0.40982   0.00737  -0.00322   0.14873
  19        1PY        -0.22465   0.37733  -0.00725  -0.00624   0.25305
  20        1PZ        -0.12368   0.00462   0.58427   0.68122   0.01385
  21 6   H  1S         -0.19382   0.42749  -0.00763  -0.00088  -0.05504
  22 7   H  1S         -0.01862  -0.10987  -0.00183  -0.01320   0.73204
  23 8   H  1S         -0.02012  -0.10992  -0.00220   0.00583   0.07220
  24 9   H  1S          0.31532   0.14950   0.00488   0.00182  -0.09153
                          16        17        18        19        20
                           V         V         V         V         V
     Eigenvalues --     0.18216   0.23339   0.25656   0.27595   0.29256
   1 1   C  1S         -0.11202  -0.04365  -0.05886  -0.11586  -0.42044
   2        1PX        -0.14505  -0.00030  -0.39966  -0.24717  -0.30923
   3        1PY         0.35803  -0.28586  -0.28454   0.46044  -0.03032
   4        1PZ        -0.00034   0.00661   0.00648  -0.00545  -0.00623
   5 2   C  1S         -0.08340  -0.35387  -0.03971   0.39359   0.17177
   6        1PX        -0.32707  -0.16605   0.01053   0.14835   0.12553
   7        1PY         0.41669  -0.08247  -0.02587   0.21370   0.15349
   8        1PZ        -0.01257  -0.00385   0.00018   0.00137   0.00200
   9 3   O  1S          0.02034  -0.02914  -0.01767   0.00659   0.05134
  10        1PX        -0.02661   0.00289  -0.01795  -0.01730   0.01841
  11        1PY         0.08832   0.02967  -0.01391   0.01803   0.11058
  12        1PZ        -0.00238  -0.00297  -0.00294  -0.00321  -0.00250
  13 4   C  1S          0.04888  -0.27935  -0.19041  -0.32802   0.26658
  14        1PX        -0.10649   0.02717   0.08442   0.03887  -0.09227
  15        1PY         0.02524  -0.12772  -0.13083  -0.19378   0.23508
  16        1PZ         0.00542  -0.00372  -0.00212  -0.00493   0.00539
  17 5   C  1S         -0.06451  -0.04948   0.16402   0.01288  -0.34496
  18        1PX        -0.13056   0.10399  -0.41385  -0.23521   0.31958
  19        1PY         0.07381  -0.43545   0.16809  -0.43034   0.11444
  20        1PZ        -0.00076  -0.00316  -0.00218   0.00241   0.00529
  21 6   H  1S         -0.14843   0.49556  -0.42451   0.17589   0.22585
  22 7   H  1S         -0.14695   0.16596   0.12851   0.14267  -0.13107
  23 8   H  1S          0.67219   0.33506   0.01161  -0.22532  -0.10744
  24 9   H  1S         -0.07108   0.26757   0.51847  -0.02736   0.44017
                          21        22        23        24
                           V         V         V         V
     Eigenvalues --     0.31398   0.41463   0.50076   0.55721
   1 1   C  1S         -0.54662  -0.00310   0.05980  -0.01409
   2        1PX         0.36637  -0.00362   0.04054  -0.02171
   3        1PY        -0.00320  -0.00006   0.01366   0.02801
   4        1PZ        -0.00952   0.01898   0.00082  -0.00066
   5 2   C  1S          0.09667   0.00011  -0.14116  -0.17459
   6        1PX        -0.04136   0.00285   0.21468   0.15364
   7        1PY         0.12982   0.00463  -0.05338   0.17086
   8        1PZ        -0.00044  -0.21292   0.00217   0.00448
   9 3   O  1S         -0.00277   0.00029   0.15579  -0.00440
  10        1PX        -0.00195  -0.01086   0.13190   0.89967
  11        1PY        -0.00990  -0.01464   0.89645  -0.13276
  12        1PZ         0.00049   0.95095   0.01630   0.00817
  13 4   C  1S         -0.11256  -0.00114  -0.14324   0.18045
  14        1PX        -0.06573   0.00237  -0.21914   0.10147
  15        1PY        -0.13491   0.00508  -0.00296  -0.20798
  16        1PZ        -0.00096  -0.22154  -0.00125  -0.00341
  17 5   C  1S          0.59378  -0.00205   0.06152   0.01769
  18        1PX         0.33005   0.00088  -0.03546  -0.02812
  19        1PY        -0.02784  -0.00042   0.03340  -0.02657
  20        1PZ        -0.00665   0.02185   0.00035  -0.00008
  21 6   H  1S         -0.16793   0.00094  -0.04085   0.00474
  22 7   H  1S          0.00336   0.00357  -0.03225   0.00848
  23 8   H  1S          0.00510   0.00149  -0.03475  -0.00901
  24 9   H  1S          0.11450   0.00248  -0.03924  -0.00362
     Density Matrix:
                           1         2         3         4         5
   1 1   C  1S          0.95797
   2        1PX         0.01360   1.04079
   3        1PY         0.11815   0.07299   0.97198
   4        1PZ        -0.00509  -0.00001   0.00231   1.07623
   5 2   C  1S          0.29534   0.18046  -0.49948   0.00702   1.24341
   6        1PX        -0.01083   0.08228  -0.00067  -0.00300  -0.20853
   7        1PY         0.43488   0.20239  -0.57395   0.00763  -0.18871
   8        1PZ        -0.00560  -0.00153   0.00782   0.26093  -0.00245
   9 3   O  1S          0.02684   0.01299  -0.05204   0.00096   0.00225
  10        1PX         0.02016   0.00366  -0.03512  -0.00047   0.35690
  11        1PY         0.01703   0.00481  -0.10107  -0.00099   0.19494
  12        1PZ        -0.00049   0.00032   0.00152  -0.04525   0.00750
  13 4   C  1S         -0.01917  -0.01062   0.03721   0.00248   0.00065
  14        1PX        -0.03536   0.00358   0.01553  -0.00696   0.01156
  15        1PY         0.03698  -0.00109  -0.01688   0.00024  -0.06153
  16        1PZ         0.00229   0.00004  -0.00275  -0.26155  -0.00350
  17 5   C  1S          0.32632  -0.51196   0.10739   0.01321  -0.02097
  18        1PX         0.53976  -0.54998   0.12956   0.01094   0.01620
  19        1PY         0.01096  -0.00831   0.14896  -0.00238   0.03183
  20        1PZ        -0.01320   0.01288   0.00533   0.92472   0.00154
  21 6   H  1S          0.00103  -0.02056   0.01004  -0.00216   0.09675
  22 7   H  1S          0.07567  -0.06083  -0.00594  -0.00363   0.05629
  23 8   H  1S          0.06265   0.01449  -0.09441   0.00190   0.55326
  24 9   H  1S          0.54349   0.58570   0.57035  -0.00279   0.05112
                           6         7         8         9        10
   6        1PX         1.51203
   7        1PY         0.12273   1.38200
   8        1PZ        -0.00967   0.00934   1.83966
   9 3   O  1S         -0.07705  -0.02628  -0.00050   1.94212
  10        1PX        -0.34976  -0.27817  -0.01352  -0.03599   0.33874
  11        1PY        -0.31233   0.01224  -0.00704  -0.29855  -0.00670
  12        1PZ        -0.01571  -0.00521   0.40728  -0.00518   0.00200
  13 4   C  1S         -0.02632  -0.05614  -0.00156   0.00350  -0.29756
  14        1PX        -0.00288  -0.01704  -0.00172   0.06967  -0.16187
  15        1PY         0.02298   0.01092   0.00244  -0.04761   0.33084
  16        1PZ         0.00345   0.00067  -0.02018  -0.00006   0.00202
  17 5   C  1S          0.04123   0.02943  -0.00305   0.03076  -0.01687
  18        1PX        -0.00472  -0.00230  -0.00225  -0.02620   0.00556
  19        1PY        -0.01501  -0.00597  -0.00127  -0.04928   0.00948
  20        1PZ         0.00263  -0.00039  -0.24436  -0.00096   0.00221
  21 6   H  1S         -0.02909   0.08745   0.00015   0.00841  -0.02169
  22 7   H  1S         -0.05781  -0.01614  -0.00346   0.01310  -0.06691
  23 8   H  1S          0.66115  -0.39125   0.01848   0.01454   0.04938
  24 9   H  1S         -0.04151  -0.00785   0.00004   0.00840   0.02173
                          11        12        13        14        15
  11        1PY         0.29255
  12        1PZ         0.00333   0.19047
  13 4   C  1S          0.28932  -0.00133   1.23204
  14        1PX         0.36768   0.00664   0.14889   1.44320
  15        1PY        -0.15732  -0.00374  -0.24559  -0.13145   1.45911
  16        1PZ        -0.00480   0.41859  -0.01358   0.01352   0.00102
  17 5   C  1S          0.03080  -0.00210   0.33467   0.12299   0.45154
  18        1PX        -0.02497  -0.00079  -0.29214   0.01873  -0.32465
  19        1PY        -0.11226   0.00005  -0.44037  -0.13669  -0.45496
  20        1PZ        -0.00025  -0.03236  -0.00286   0.00312  -0.00473
  21 6   H  1S          0.01130   0.00087   0.05683   0.04770  -0.02709
  22 7   H  1S         -0.04793   0.00509   0.52947  -0.74513  -0.21495
  23 8   H  1S         -0.06127   0.00276   0.05165   0.04573  -0.02600
  24 9   H  1S          0.00543   0.00162   0.08941   0.04379   0.07163
                          16        17        18        19        20
  16        1PZ         1.82228
  17 5   C  1S          0.00408   0.93940
  18        1PX        -0.00116   0.01220   1.02060
  19        1PY        -0.00362   0.10446  -0.08268   1.02344
  20        1PZ         0.28054   0.00460   0.00104   0.00007   1.07036
  21 6   H  1S          0.00074   0.50882  -0.43023   0.71737  -0.00170
  22 7   H  1S          0.02565   0.07268  -0.03749  -0.09204  -0.00029
  23 8   H  1S         -0.00068   0.06707   0.05034  -0.01500  -0.00450
  24 9   H  1S         -0.00103  -0.00587   0.00938   0.00007   0.00083
                          21        22        23        24
  21 6   H  1S          0.87462
  22 7   H  1S         -0.01103   0.71925
  23 8   H  1S          0.01203   0.01181   0.73376
  24 9   H  1S         -0.01009   0.01103  -0.00431   0.87399
    Full Mulliken population analysis:
                           1         2         3         4         5
   1 1   C  1S          0.95797
   2        1PX         0.00000   1.04079
   3        1PY         0.00000   0.00000   0.97198
   4        1PZ         0.00000   0.00000   0.00000   1.07623
   5 2   C  1S          0.00000   0.00000   0.00000   0.00000   1.24341
   6        1PX         0.00000   0.00000   0.00000   0.00000   0.00000
   7        1PY         0.00000   0.00000   0.00000   0.00000   0.00000
   8        1PZ         0.00000   0.00000   0.00000   0.00000   0.00000
   9 3   O  1S          0.00000   0.00000   0.00000   0.00000   0.00000
  10        1PX         0.00000   0.00000   0.00000   0.00000   0.00000
  11        1PY         0.00000   0.00000   0.00000   0.00000   0.00000
  12        1PZ         0.00000   0.00000   0.00000   0.00000   0.00000
  13 4   C  1S          0.00000   0.00000   0.00000   0.00000   0.00000
  14        1PX         0.00000   0.00000   0.00000   0.00000   0.00000
  15        1PY         0.00000   0.00000   0.00000   0.00000   0.00000
  16        1PZ         0.00000   0.00000   0.00000   0.00000   0.00000
  17 5   C  1S          0.00000   0.00000   0.00000   0.00000   0.00000
  18        1PX         0.00000   0.00000   0.00000   0.00000   0.00000
  19        1PY         0.00000   0.00000   0.00000   0.00000   0.00000
  20        1PZ         0.00000   0.00000   0.00000   0.00000   0.00000
  21 6   H  1S          0.00000   0.00000   0.00000   0.00000   0.00000
  22 7   H  1S          0.00000   0.00000   0.00000   0.00000   0.00000
  23 8   H  1S          0.00000   0.00000   0.00000   0.00000   0.00000
  24 9   H  1S          0.00000   0.00000   0.00000   0.00000   0.00000
                           6         7         8         9        10
   6        1PX         1.51203
   7        1PY         0.00000   1.38200
   8        1PZ         0.00000   0.00000   1.83966
   9 3   O  1S          0.00000   0.00000   0.00000   1.94212
  10        1PX         0.00000   0.00000   0.00000   0.00000   0.33874
  11        1PY         0.00000   0.00000   0.00000   0.00000   0.00000
  12        1PZ         0.00000   0.00000   0.00000   0.00000   0.00000
  13 4   C  1S          0.00000   0.00000   0.00000   0.00000   0.00000
  14        1PX         0.00000   0.00000   0.00000   0.00000   0.00000
  15        1PY         0.00000   0.00000   0.00000   0.00000   0.00000
  16        1PZ         0.00000   0.00000   0.00000   0.00000   0.00000
  17 5   C  1S          0.00000   0.00000   0.00000   0.00000   0.00000
  18        1PX         0.00000   0.00000   0.00000   0.00000   0.00000
  19        1PY         0.00000   0.00000   0.00000   0.00000   0.00000
  20        1PZ         0.00000   0.00000   0.00000   0.00000   0.00000
  21 6   H  1S          0.00000   0.00000   0.00000   0.00000   0.00000
  22 7   H  1S          0.00000   0.00000   0.00000   0.00000   0.00000
  23 8   H  1S          0.00000   0.00000   0.00000   0.00000   0.00000
  24 9   H  1S          0.00000   0.00000   0.00000   0.00000   0.00000
                          11        12        13        14        15
  11        1PY         0.29255
  12        1PZ         0.00000   0.19047
  13 4   C  1S          0.00000   0.00000   1.23204
  14        1PX         0.00000   0.00000   0.00000   1.44320
  15        1PY         0.00000   0.00000   0.00000   0.00000   1.45911
  16        1PZ         0.00000   0.00000   0.00000   0.00000   0.00000
  17 5   C  1S          0.00000   0.00000   0.00000   0.00000   0.00000
  18        1PX         0.00000   0.00000   0.00000   0.00000   0.00000
  19        1PY         0.00000   0.00000   0.00000   0.00000   0.00000
  20        1PZ         0.00000   0.00000   0.00000   0.00000   0.00000
  21 6   H  1S          0.00000   0.00000   0.00000   0.00000   0.00000
  22 7   H  1S          0.00000   0.00000   0.00000   0.00000   0.00000
  23 8   H  1S          0.00000   0.00000   0.00000   0.00000   0.00000
  24 9   H  1S          0.00000   0.00000   0.00000   0.00000   0.00000
                          16        17        18        19        20
  16        1PZ         1.82228
  17 5   C  1S          0.00000   0.93940
  18        1PX         0.00000   0.00000   1.02060
  19        1PY         0.00000   0.00000   0.00000   1.02344
  20        1PZ         0.00000   0.00000   0.00000   0.00000   1.07036
  21 6   H  1S          0.00000   0.00000   0.00000   0.00000   0.00000
  22 7   H  1S          0.00000   0.00000   0.00000   0.00000   0.00000
  23 8   H  1S          0.00000   0.00000   0.00000   0.00000   0.00000
  24 9   H  1S          0.00000   0.00000   0.00000   0.00000   0.00000
                          21        22        23        24
  21 6   H  1S          0.87462
  22 7   H  1S          0.00000   0.71925
  23 8   H  1S          0.00000   0.00000   0.73376
  24 9   H  1S          0.00000   0.00000   0.00000   0.87399
     Gross orbital populations:
                           1
   1 1   C  1S          0.95797
   2        1PX         1.04079
   3        1PY         0.97198
   4        1PZ         1.07623
   5 2   C  1S          1.24341
   6        1PX         1.51203
   7        1PY         1.38200
   8        1PZ         1.83966
   9 3   O  1S          1.94212
  10        1PX         0.33874
  11        1PY         0.29255
  12        1PZ         0.19047
  13 4   C  1S          1.23204
  14        1PX         1.44320
  15        1PY         1.45911
  16        1PZ         1.82228
  17 5   C  1S          0.93940
  18        1PX         1.02060
  19        1PY         1.02344
  20        1PZ         1.07036
  21 6   H  1S          0.87462
  22 7   H  1S          0.71925
  23 8   H  1S          0.73376
  24 9   H  1S          0.87399
          Condensed to atoms (all electrons):
               1          2          3          4          5          6
     1  C    4.046971   0.000000   0.000000   0.000000   0.000000   0.000000
     2  C    0.000000   5.977092   0.000000   0.000000   0.000000   0.000000
     3  O    0.000000   0.000000   2.763888   0.000000   0.000000   0.000000
     4  C    0.000000   0.000000   0.000000   5.956624   0.000000   0.000000
     5  C    0.000000   0.000000   0.000000   0.000000   4.053805   0.000000
     6  H    0.000000   0.000000   0.000000   0.000000   0.000000   0.874624
     7  H    0.000000   0.000000   0.000000   0.000000   0.000000   0.000000
     8  H    0.000000   0.000000   0.000000   0.000000   0.000000   0.000000
     9  H    0.000000   0.000000   0.000000   0.000000   0.000000   0.000000
               7          8          9
     1  C    0.000000   0.000000   0.000000
     2  C    0.000000   0.000000   0.000000
     3  O    0.000000   0.000000   0.000000
     4  C    0.000000   0.000000   0.000000
     5  C    0.000000   0.000000   0.000000
     6  H    0.000000   0.000000   0.000000
     7  H    0.719250   0.000000   0.000000
     8  H    0.000000   0.733756   0.000000
     9  H    0.000000   0.000000   0.873989
 Mulliken charges:
               1
     1  C   -0.046971
     2  C   -1.977092
     3  O    3.236112
     4  C   -1.956624
     5  C   -0.053805
     6  H    0.125376
     7  H    0.280750
     8  H    0.266244
     9  H    0.126011
 Sum of Mulliken charges =   0.00000
 Mulliken charges with hydrogens summed into heavy atoms:
               1
     1  C    0.079040
     2  C   -1.710848
     3  O    3.236112
     4  C   -1.675874
     5  C    0.071570
 Charge=              0.0000 electrons
 Dipole moment (field-independent basis, Debye):
    X=             -1.7515    Y=             -9.4579    Z=             -0.0683  Tot=              9.6190
 N-N= 1.035607410500D+02 E-N=-1.683973766460D+02  KE=-1.498891758546D+01
 Orbital energies and kinetic energies (alpha):
                                 1                 2
   1         O                -1.746089         -1.254377
   2         O                -1.157197         -1.005554
   3         O                -0.941462         -0.835393
   4         O                -0.804282         -0.616708
   5         O                -0.755494         -0.676141
   6         O                -0.668736         -0.585629
   7         O                -0.650079         -0.525038
   8         O                -0.559518         -0.409075
   9         O                -0.498142         -0.275589
  10         O                -0.437359         -0.359040
  11         O                -0.436243         -0.359104
  12         O                -0.416554         -0.312678
  13         O                -0.312758         -0.280132
  14         V                 0.112407         -0.171427
  15         V                 0.164404         -0.196699
  16         V                 0.182158         -0.185041
  17         V                 0.233390         -0.184066
  18         V                 0.256563         -0.176314
  19         V                 0.275947         -0.092675
  20         V                 0.292564         -0.128844
  21         V                 0.313984         -0.091848
  22         V                 0.414635          0.517033
  23         V                 0.500760          0.552802
  24         V                 0.557208          0.620491
 Total kinetic energy from orbitals=-1.498891758546D+01
 Leave Link  601 at Tue Dec 15 17:06:11 2015, MaxMem=    33554432 cpu:         0.0
 (Enter /home/Applications/g09/g09/l701.exe)
 Compute integral first derivatives.
 ... and contract with generalized density number  6.
 Leave Link  701 at Tue Dec 15 17:06:11 2015, MaxMem=    33554432 cpu:         0.0
 (Enter /home/Applications/g09/g09/l702.exe)
 L702 exits ... SP integral derivatives will be done elsewhere.
 Leave Link  702 at Tue Dec 15 17:06:11 2015, MaxMem=    33554432 cpu:         0.0
 (Enter /home/Applications/g09/g09/l703.exe)
 Compute integral first derivatives, UseDBF=F ICtDFT=           0.
 Integral derivatives from FoFJK, PRISM(SPDF).
 Calling FoFJK, ICntrl=  10005127 FMM=F ISym2X=0 I1Cent= 0 IOpClX= 0 NMat=1 NMatS=1 NMatT=0.
 FoFJK:  IHMeth= 8 ICntrl=10005127 DoSepK=F KAlg= 0 I1Cent=   0 FoldK=F
 IRaf=         0 NMat=   1 IRICut=       1 DoRegI=T DoRafI=F ISym2E= 0.
 FoFCou: FMM=F IPFlag=           0 FMFlag=      100000 FMFlg1=         800
         NFxFlg=           0 DoJE=F BraDBF=F KetDBF=F FulRan=T
         wScrn=  0.000000 ICntrl=10005127 IOpCl=  0 I1Cent=           0 NGrid=           0
         NMat0=    1 NMatS0=      1 NMatT0=    0 NMatD0=    1 NMtDS0=    0 NMtDT0=    0
 Symmetry not used in FoFCou.
 Leave Link  703 at Tue Dec 15 17:06:11 2015, MaxMem=    33554432 cpu:         0.0
 (Enter /home/Applications/g09/g09/l716.exe)
 Dipole        =-7.04167199D-01-4.13709274D+00-2.23404773D-02
 ***** Axes restored to original set *****
 -------------------------------------------------------------------
 Center     Atomic                   Forces (Hartrees/Bohr)
 Number     Number              X              Y              Z
 -------------------------------------------------------------------
      1        6           0.097363564   -0.164718382    0.003061826
      2        6          -0.177922578   -0.052889400   -0.002658806
      3        8           0.073023031   -0.045094461    0.001704917
      4        6          -0.254755883    0.132136394   -0.006517255
      5        6           0.224768123    0.143478372    0.002863340
      6        1           0.000135619    0.006256883    0.002615507
      7        1           0.009211066    0.028012355   -0.000861323
      8        1           0.007572669   -0.034762685    0.001281633
      9        1           0.020604389   -0.012419076   -0.001489839
 -------------------------------------------------------------------
 Cartesian Forces:  Max     0.254755883 RMS     0.093240726
 Z-matrix is all fixed cartesians, so copy forces.
 Force constants in Cartesian coordinates: 
                1             2             3             4             5 
      1  0.752499D+00
      2 -0.600907D-01  0.861061D+00
      3  0.640881D-02 -0.271441D-02  0.196250D+00
      4 -0.369861D+00 -0.793214D-01 -0.706437D-03  0.774007D+00
      5 -0.544717D-01 -0.185553D+00  0.192585D-02 -0.196545D-01  0.863594D+00
      6 -0.516496D-03  0.180648D-02 -0.769587D-01  0.101353D-01 -0.232476D-01
      7 -0.891355D-02  0.281717D-01 -0.129597D-02 -0.278883D+00  0.168941D+00
      8 -0.607371D-02  0.192108D-01 -0.491280D-03  0.213572D+00 -0.398324D+00
      9  0.117377D-03  0.109729D-03  0.736413D-02 -0.120929D-01  0.144161D-01
     10  0.108493D-01  0.560562D-03  0.722262D-03  0.261713D-01  0.178539D-01
     11  0.359851D-01  0.183704D-02  0.209930D-02 -0.187748D-01 -0.128091D-01
     12  0.791665D-03 -0.105413D-03 -0.131877D-02  0.131271D-02  0.961601D-03
     13 -0.180674D+00  0.299978D-01 -0.166853D-02  0.106653D-01 -0.337308D-01
     14  0.513104D-02 -0.510280D+00 -0.353542D-02  0.550104D-03 -0.173313D-02
     15 -0.135571D-02 -0.253166D-02 -0.960110D-01  0.216288D-03 -0.188760D-03
     16  0.167080D-01  0.858663D-03 -0.106050D-03  0.000000D+00  0.000000D+00
     17 -0.227325D-01 -0.116743D-02 -0.600249D-04  0.000000D+00  0.000000D+00
     18 -0.668343D-03 -0.127126D-03  0.222071D-01 -0.637467D-05 -0.219418D-04
     19  0.143935D-04  0.233624D-05 -0.382159D-03 -0.506168D-05  0.208577D-05
     20  0.165529D-04  0.268675D-05 -0.439493D-03  0.679760D-05 -0.280110D-05
     21 -0.262164D-03 -0.425525D-04  0.696066D-02 -0.250551D-03  0.103245D-03
     22  0.757253D-02 -0.239444D-01  0.621749D-03 -0.156654D+00 -0.961472D-01
     23 -0.384081D-02  0.121408D-01  0.156556D-03 -0.900047D-01 -0.285325D+00
     24 -0.445156D-04 -0.767512D-05  0.182359D-01  0.143175D-02  0.605624D-02
     25 -0.228196D+00  0.103765D+00 -0.359368D-02 -0.544157D-02  0.172075D-01
     26  0.106077D+00 -0.197252D+00  0.305891D-02 -0.637408D-02  0.201524D-01
     27 -0.447062D-02  0.361262D-02 -0.767293D-01 -0.397757D-04 -0.474511D-05
                6             7             8             9            10 
      6  0.155009D+00
      7 -0.110489D-01  0.568438D+00
      8  0.158219D-01  0.342192D-01  0.812626D+00
      9 -0.448127D-01  0.175278D-01 -0.111542D-01  0.593953D-01
     10  0.411434D-03 -0.315727D+00 -0.247494D+00 -0.309967D-02  0.936562D+00
     11 -0.180045D-03 -0.200439D+00 -0.440052D+00 -0.167111D-02  0.300736D-01
     12 -0.274331D-02 -0.564958D-02 -0.496371D-02 -0.509483D-01  0.164860D-01
     13 -0.216917D-03 -0.914970D-02  0.657029D-02 -0.964900D-03 -0.506539D+00
     14 -0.848742D-04 -0.303071D-01  0.217419D-01 -0.151390D-02  0.111859D+00
     15 -0.652018D-03 -0.303278D-03 -0.258027D-04  0.116893D-01 -0.165559D-01
     16 -0.183983D-04  0.572320D-05 -0.187976D-05 -0.175662D-03 -0.486496D-02
     17 -0.225594D-04 -0.586312D-05  0.192572D-05  0.179957D-03  0.663371D-02
     18  0.517255D-02 -0.209283D-03  0.687384D-04  0.642354D-02 -0.138415D-02
     19  0.121899D-03  0.221301D-01 -0.158479D-01 -0.107656D-02 -0.146463D+00
     20 -0.163705D-03  0.106045D-01 -0.759255D-02 -0.642311D-03  0.805192D-01
     21  0.603397D-02  0.156474D-03 -0.155500D-03  0.342657D-02  0.389475D-02
     22  0.173237D-02  0.220992D-01  0.150569D-01 -0.205027D-03  0.363012D-05
     23  0.629225D-02 -0.111829D-01 -0.761456D-02  0.207695D-03 -0.755284D-05
     24 -0.570830D-01  0.870860D-03  0.775821D-03  0.400946D-02 -0.220780D-03
     25 -0.600325D-03  0.000000D+00 -0.109203D-05 -0.304030D-04  0.775137D-05
     26 -0.221836D-03  0.000000D+00  0.244304D-05  0.680162D-04  0.145897D-05
     27  0.160346D-01 -0.481167D-04  0.124015D-03  0.345268D-02 -0.253864D-03
               11            12            13            14            15 
     11  0.919395D+00
     12  0.758817D-02  0.197225D+00
     13  0.840020D-01 -0.156668D-01  0.875923D+00
     14 -0.216874D+00  0.365713D-02 -0.272605D-01  0.856116D+00
     15  0.375889D-02 -0.105553D+00  0.181996D-01 -0.952783D-03  0.217080D+00
     16 -0.161199D-01 -0.225215D-03 -0.216837D+00 -0.863071D-01 -0.106818D-02
     17  0.219549D-01  0.900402D-04 -0.854961D-01 -0.162205D+00 -0.379266D-03
     18 -0.179175D-02  0.235235D-01  0.167868D-03  0.785689D-03 -0.804634D-01
     19  0.852735D-01  0.324450D-02  0.763122D-02  0.253588D-01  0.969708D-03
     20 -0.273456D+00 -0.737098D-02  0.367330D-02  0.120944D-01 -0.479451D-03
     21 -0.985322D-02 -0.722424D-01 -0.394428D-03  0.173429D-02  0.256509D-01
     22 -0.149587D-05 -0.874234D-04  0.000000D+00  0.000000D+00 -0.521821D-04
     23  0.311231D-05  0.181894D-03  0.000000D+00  0.000000D+00  0.131824D-03
     24  0.909771D-04  0.531699D-02 -0.501886D-05 -0.172750D-04  0.407242D-02
     25  0.125814D-05 -0.205805D-03  0.189795D-01  0.975107D-03 -0.502755D-04
     26  0.000000D+00 -0.387368D-04  0.222442D-01  0.113981D-02  0.667014D-03
     27 -0.412054D-04  0.674030D-02  0.549164D-03 -0.728594D-04  0.241867D-01
               16            17            18            19            20 
     16  0.205004D+00
     17  0.101587D+00  0.141399D+00
     18  0.129719D-02  0.424172D-03  0.417147D-01
     19 -0.145308D-04  0.148860D-04  0.531355D-03  0.116707D+00
     20 -0.167108D-04  0.171193D-04  0.611073D-03 -0.948037D-01  0.268937D+00
     21  0.264664D-03 -0.271135D-03 -0.967813D-02 -0.340874D-02  0.848487D-02
     22  0.000000D+00  0.000000D+00  0.000000D+00  0.000000D+00  0.000000D+00
     23  0.000000D+00  0.000000D+00  0.000000D+00  0.000000D+00  0.000000D+00
     24  0.000000D+00  0.000000D+00  0.000000D+00  0.000000D+00  0.000000D+00
     25  0.000000D+00 -0.118517D-05  0.271743D-03  0.000000D+00  0.000000D+00
     26  0.000000D+00  0.000000D+00  0.511477D-04  0.000000D+00  0.000000D+00
     27  0.316559D-04  0.388154D-04 -0.889983D-02  0.000000D+00  0.000000D+00
               21            22            23            24            25 
     21  0.398484D-01
     22  0.000000D+00  0.126979D+00
     23  0.000000D+00  0.105034D+00  0.280800D+00
     24  0.000000D+00 -0.208242D-02 -0.678595D-02  0.311409D-01
     25  0.000000D+00  0.000000D+00  0.162262D-05  0.501273D-04  0.214651D+00
     26  0.000000D+00  0.143694D-05 -0.363004D-05 -0.112143D-03 -0.121949D+00
     27  0.000000D+00  0.729430D-04 -0.184271D-03 -0.569265D-02  0.415862D-02
               26            27 
     26  0.175961D+00
     27 -0.347237D-02  0.409075D-01
 Leave Link  716 at Tue Dec 15 17:06:11 2015, MaxMem=    33554432 cpu:         0.0
 (Enter /home/Applications/g09/g09/l103.exe)

 GradGradGradGradGradGradGradGradGradGradGradGradGradGradGradGradGradGrad
 Berny optimization.
 Search for a local minimum.
 Step number   1 out of a maximum of    2
 All quantities printed in internal units (Hartrees-Bohrs-Radians)
 Second derivative matrix not updated -- first step.
 ITU=  0
     Eigenvalues ---    0.01763   0.03151   0.06503   0.06927   0.07328
     Eigenvalues ---    0.07993   0.12551   0.14296   0.16065   0.22906
     Eigenvalues ---    0.24083   0.27364   0.38929   0.39715   0.58376
     Eigenvalues ---    0.75430   1.08626   1.27825   1.38727   1.54225
     Eigenvalues ---    1.65988
 Quadratic step=1.025D+00 exceeds max=3.000D-01 adjusted using Lamda=-6.926D-01.
 Angle between NR and scaled steps=  30.36 degrees.
 Angle between quadratic step and forces=  20.33 degrees.
 Linear search not attempted -- first point.
 TrRot= -0.001541 -0.000479 -0.000183  0.000017  0.000010  0.000017
 Variable       Old X    -DE/DX   Delta X   Delta X   Delta X     New X
                                 (Linear)    (Quad)   (Total)
    X1        1.87549   0.09736   0.00000   0.05722   0.05572   1.93121
    Y1       -1.27391  -0.16472   0.00000  -0.09608  -0.09650  -1.37041
    Z1        0.01960   0.00306   0.00000   0.00318   0.00298   0.02258
    X2       -0.72468  -0.17792   0.00000  -0.10450  -0.10597  -0.83065
    Y2       -2.09640  -0.05289   0.00000  -0.06145  -0.06196  -2.15836
    Z2        0.01291  -0.00266   0.00000  -0.00152  -0.00170   0.01121
    X3       -2.16631   0.07302   0.00000   0.03334   0.03180  -2.13451
    Y3        0.01819  -0.04509   0.00000  -0.02486  -0.02541  -0.00722
    Z3       -0.08314   0.00170   0.00000   0.00055   0.00039  -0.08275
    X4       -0.70907  -0.25476   0.00000  -0.12852  -0.13013  -0.83920
    Y4        2.05133   0.13214   0.00000   0.09732   0.09681   2.14814
    Z4       -0.05742  -0.00652   0.00000  -0.00305  -0.00322  -0.06064
    X5        1.74275   0.22477   0.00000   0.11360   0.11201   1.85476
    Y5        1.31015   0.14348   0.00000   0.09207   0.09165   1.40180
    Z5        0.03040   0.00286   0.00000  -0.00108  -0.00129   0.02911
    X6        3.50684   0.00014   0.00000   0.03356   0.03193   3.53877
    Y6        2.60637   0.00626   0.00000   0.03304   0.03268   2.63904
    Z6        0.04233   0.00262   0.00000   0.00358   0.00336   0.04569
    X7       -1.62434   0.00921   0.00000  -0.01912  -0.02080  -1.64514
    Y7        3.96033   0.02801   0.00000   0.06374   0.06320   4.02354
    Z7        0.01287  -0.00086   0.00000  -0.00001  -0.00018   0.01269
    X8       -1.66650   0.00757   0.00000  -0.01327  -0.01467  -1.68117
    Y8       -3.95386  -0.03476   0.00000  -0.06010  -0.06064  -4.01449
    Z8        0.06096   0.00128   0.00000   0.00140   0.00123   0.06220
    X9        3.48018   0.02060   0.00000   0.04156   0.04011   3.52029
    Y9       -2.64410  -0.01242   0.00000  -0.03948  -0.03984  -2.68394
    Z9        0.06072  -0.00149   0.00000  -0.00135  -0.00157   0.05915
         Item               Value     Threshold  Converged?
 Maximum Force            0.254756     0.000450     NO 
 RMS     Force            0.093241     0.000300     NO 
 Maximum Displacement     0.130129     0.001800     NO 
 RMS     Displacement     0.057747     0.001200     NO 
 Predicted change in Energy=-9.935705D-02
 GradGradGradGradGradGradGradGradGradGradGradGradGradGradGradGradGradGrad

 Leave Link  103 at Tue Dec 15 17:06:12 2015, MaxMem=    33554432 cpu:         0.0
 (Enter /home/Applications/g09/g09/l9999.exe)
 1\1\GINC-DUSTIN-DESKTOP\Force\RAM1-FC\STO-3G\C4H4O1\DUSTIN\15-Dec-2015
 \0\\#P AM1(Input,print) CIS(Singlets,NStates=15) pop(full) force\\AM1-
 Reparam Input\\0,1\C,0.992465,-0.674124,0.010372\C,-0.383482,-1.109366
 ,0.00683\O,-1.146361,0.009626,-0.043994\C,-0.375225,1.085519,-0.030383
 \C,0.922226,0.693301,0.016086\H,1.855739,1.379229,0.022398\H,-0.859564
 ,2.095718,0.006809\H,-0.881874,-2.09229,0.032261\H,1.841631,-1.399196,
 0.032133\\Version=ES64L-G09RevD.01\State=1-A\HF=2.4836801\RMSD=6.526e-
 09\RMSF=9.324e-02\Dipole=-4.1910066,0.1860263,-0.1128943\PG=C01 [X(C4H
 4O1)]\\@


 HONESTY IN A LAWYER IS LIKE A HEN'S HIND LEGS.
  -- MAGNUS OLESON, LAKE WOBEGON PATRIARCH, C.1875
 Job cpu time:       0 days  0 hours  0 minutes  0.7 seconds.
 File lengths (MBytes):  RWF=      7 Int=      0 D2E=      0 Chk=      2 Scr=      1
 Normal termination of Gaussian 09 at Tue Dec 15 17:06:12 2015.
