 Entering Gaussian System, Link 0=g09
 Input=FuranAM1_83P0.com
 Output=FuranAM1_83P0.log
 Initial command:
 /home/Applications/g09/g09/l1.exe "/home/Applications/g09/scratch/Gau-10832.inp" -scrdir="/home/Applications/g09/scratch/"
 Entering Link 1 = /home/Applications/g09/g09/l1.exe PID=     10834.
  
 Copyright (c) 1988,1990,1992,1993,1995,1998,2003,2009,2013,
            Gaussian, Inc.  All Rights Reserved.
  
 This is part of the Gaussian(R) 09 program.  It is based on
 the Gaussian(R) 03 system (copyright 2003, Gaussian, Inc.),
 the Gaussian(R) 98 system (copyright 1998, Gaussian, Inc.),
 the Gaussian(R) 94 system (copyright 1995, Gaussian, Inc.),
 the Gaussian 92(TM) system (copyright 1992, Gaussian, Inc.),
 the Gaussian 90(TM) system (copyright 1990, Gaussian, Inc.),
 the Gaussian 88(TM) system (copyright 1988, Gaussian, Inc.),
 the Gaussian 86(TM) system (copyright 1986, Carnegie Mellon
 University), and the Gaussian 82(TM) system (copyright 1983,
 Carnegie Mellon University). Gaussian is a federally registered
 trademark of Gaussian, Inc.
  
 This software contains proprietary and confidential information,
 including trade secrets, belonging to Gaussian, Inc.
  
 This software is provided under written license and may be
 used, copied, transmitted, or stored only in accord with that
 written license.
  
 The following legend is applicable only to US Government
 contracts under FAR:
  
                    RESTRICTED RIGHTS LEGEND
  
 Use, reproduction and disclosure by the US Government is
 subject to restrictions as set forth in subparagraphs (a)
 and (c) of the Commercial Computer Software - Restricted
 Rights clause in FAR 52.227-19.
  
 Gaussian, Inc.
 340 Quinnipiac St., Bldg. 40, Wallingford CT 06492
  
  
 ---------------------------------------------------------------
 Warning -- This program may not be used in any manner that
 competes with the business of Gaussian, Inc. or will provide
 assistance to any competitor of Gaussian, Inc.  The licensee
 of this program is prohibited from giving any competitor of
 Gaussian, Inc. access to this program.  By using this program,
 the user acknowledges that Gaussian, Inc. is engaged in the
 business of creating and licensing software in the field of
 computational chemistry and represents and warrants to the
 licensee that it is not a competitor of Gaussian, Inc. and that
 it will not use this program in any manner prohibited above.
 ---------------------------------------------------------------
  

 Cite this work as:
 Gaussian 09, Revision D.01,
 M. J. Frisch, G. W. Trucks, H. B. Schlegel, G. E. Scuseria, 
 M. A. Robb, J. R. Cheeseman, G. Scalmani, V. Barone, B. Mennucci, 
 G. A. Petersson, H. Nakatsuji, M. Caricato, X. Li, H. P. Hratchian, 
 A. F. Izmaylov, J. Bloino, G. Zheng, J. L. Sonnenberg, M. Hada, 
 M. Ehara, K. Toyota, R. Fukuda, J. Hasegawa, M. Ishida, T. Nakajima, 
 Y. Honda, O. Kitao, H. Nakai, T. Vreven, J. A. Montgomery, Jr., 
 J. E. Peralta, F. Ogliaro, M. Bearpark, J. J. Heyd, E. Brothers, 
 K. N. Kudin, V. N. Staroverov, T. Keith, R. Kobayashi, J. Normand, 
 K. Raghavachari, A. Rendell, J. C. Burant, S. S. Iyengar, J. Tomasi, 
 M. Cossi, N. Rega, J. M. Millam, M. Klene, J. E. Knox, J. B. Cross, 
 V. Bakken, C. Adamo, J. Jaramillo, R. Gomperts, R. E. Stratmann, 
 O. Yazyev, A. J. Austin, R. Cammi, C. Pomelli, J. W. Ochterski, 
 R. L. Martin, K. Morokuma, V. G. Zakrzewski, G. A. Voth, 
 P. Salvador, J. J. Dannenberg, S. Dapprich, A. D. Daniels, 
 O. Farkas, J. B. Foresman, J. V. Ortiz, J. Cioslowski, 
 and D. J. Fox, Gaussian, Inc., Wallingford CT, 2013.
 
 ******************************************
 Gaussian 09:  ES64L-G09RevD.01 24-Apr-2013
                15-Dec-2015 
 ******************************************
 ------------------------------------------------------------
 #P AM1(Input,print) CIS(Singlets,NStates=15) pop(full) force
 ------------------------------------------------------------
 1/10=7,30=1,38=1/1,3;
 2/12=2,17=6,18=5,40=1/2;
 3/5=2,16=1,25=1,41=700000,71=1,135=100,136=1/1,2,8,3;
 4/35=1/1;
 5/5=2,35=1,38=5/2;
 8/6=1,10=1,108=15/1;
 9/15=2,41=15,42=1,48=1,49=10/14;
 10/5=4/2;
 6/7=3,18=1/1;
 7/12=6,13=5,29=1/1,2,3,16;
 1/10=7,30=1/3;
 99//99;
 Leave Link    1 at Tue Dec 15 17:09:06 2015, MaxMem=           0 cpu:         0.0
 (Enter /home/Applications/g09/g09/l101.exe)
 -----------------
 AM1-Reparam Input
 -----------------
 Symbolic Z-matrix:
 Charge =  0 Multiplicity = 1
 6                     0.98662  -0.7557    0.03334 
 6                    -0.38533  -1.08652   0.00418 
 8                    -1.20151   0.03892  -0.003 
 6                    -0.30339   1.08977  -0.0387 
 6                     0.92447   0.75093   0.00226 
 1                     1.76717   1.33867  -0.01306 
 1                    -0.8839    2.06123   0.03973 
 1                    -0.86106  -2.08691  -0.02037 
 1                     1.84476  -1.33507   0.03369 
 
 NAtoms=      9 NQM=        9 NQMF=       0 NMMI=      0 NMMIF=      0
                NMic=       0 NMicF=      0.
                    Isotopes and Nuclear Properties:
 (Nuclear quadrupole moments (NQMom) in fm**2, nuclear magnetic moments (NMagM)
  in nuclear magnetons)

  Atom         1           2           3           4           5           6           7           8           9
 IAtWgt=          12          12          16          12          12           1           1           1           1
 AtmWgt=  12.0000000  12.0000000  15.9949146  12.0000000  12.0000000   1.0078250   1.0078250   1.0078250   1.0078250
 NucSpn=           0           0           0           0           0           1           1           1           1
 AtZEff=   0.0000000   0.0000000   0.0000000   0.0000000   0.0000000   0.0000000   0.0000000   0.0000000   0.0000000
 NQMom=    0.0000000   0.0000000   0.0000000   0.0000000   0.0000000   0.0000000   0.0000000   0.0000000   0.0000000
 NMagM=    0.0000000   0.0000000   0.0000000   0.0000000   0.0000000   2.7928460   2.7928460   2.7928460   2.7928460
 AtZNuc=   6.0000000   6.0000000   8.0000000   6.0000000   6.0000000   1.0000000   1.0000000   1.0000000   1.0000000
 Leave Link  101 at Tue Dec 15 17:09:06 2015, MaxMem=    33554432 cpu:         0.0
 (Enter /home/Applications/g09/g09/l103.exe)

 GradGradGradGradGradGradGradGradGradGradGradGradGradGradGradGradGradGrad
 Berny optimization.
 Initialization pass.
 Trust Radius=3.00D-01 FncErr=1.00D-07 GrdErr=1.00D-07
 Number of steps in this run=      2 maximum allowed number of steps=      2.
 GradGradGradGradGradGradGradGradGradGradGradGradGradGradGradGradGradGrad

 Leave Link  103 at Tue Dec 15 17:09:06 2015, MaxMem=    33554432 cpu:         0.0
 (Enter /home/Applications/g09/g09/l202.exe)
                          Input orientation:                          
 ---------------------------------------------------------------------
 Center     Atomic      Atomic             Coordinates (Angstroms)
 Number     Number       Type             X           Y           Z
 ---------------------------------------------------------------------
      1          6           0        0.986622   -0.755700    0.033335
      2          6           0       -0.385329   -1.086516    0.004177
      3          8           0       -1.201510    0.038924   -0.002999
      4          6           0       -0.303388    1.089770   -0.038696
      5          6           0        0.924467    0.750927    0.002261
      6          1           0        1.767174    1.338667   -0.013055
      7          1           0       -0.883899    2.061226    0.039726
      8          1           0       -0.861062   -2.086912   -0.020366
      9          1           0        1.844764   -1.335068    0.033694
 ---------------------------------------------------------------------
                    Distance matrix (angstroms):
                    1          2          3          4          5
     1  C    0.000000
     2  C    1.411573   0.000000
     3  O    2.328233   1.390258   0.000000
     4  C    2.252792   2.178250   1.382814   0.000000
     5  C    1.508229   2.256494   2.242042   1.274410   0.000000
     6  H    2.235573   3.242696   3.240759   2.085626   1.027535
     7  H    3.381414   3.187180   2.047537   1.134403   2.233489
     8  H    2.277926   1.108024   2.152994   3.225313   3.352903
     9  H    1.035411   2.244095   3.342003   3.240314   2.280199
                    6          7          8          9
     6  H    0.000000
     7  H    2.748284   0.000000
     8  H    4.317669   4.148636   0.000000
     9  H    2.675269   4.356656   2.808859   0.000000
 Stoichiometry    C4H4O
 Framework group  C1[X(C4H4O)]
 Deg. of freedom    21
 Full point group                 C1      NOp   1
 Largest Abelian subgroup         C1      NOp   1
 Largest concise Abelian subgroup C1      NOp   1
                         Standard orientation:                         
 ---------------------------------------------------------------------
 Center     Atomic      Atomic             Coordinates (Angstroms)
 Number     Number       Type             X           Y           Z
 ---------------------------------------------------------------------
      1          6           0        0.959612    0.811778    0.014553
      2          6           0        0.988970   -0.599361   -0.004518
      3          8           0       -0.284980   -1.155866    0.008552
      4          6           0       -1.119805   -0.053989   -0.024754
      5          6           0       -0.525720    1.073199    0.000333
      6          1           0       -0.919785    2.022008   -0.017033
      7          1           0       -2.191863   -0.412602    0.069901
      8          1           0        1.864087   -1.278295   -0.035103
      9          1           0        1.709057    1.526061    0.000133
 ---------------------------------------------------------------------
 Rotational constants (GHZ):      9.3148635      9.0169507      4.5831576
 Leave Link  202 at Tue Dec 15 17:09:06 2015, MaxMem=    33554432 cpu:         0.0
 (Enter /home/Applications/g09/g09/l301.exe)

 Semi-emprical parameters in input format:
 Method=8 CoreType=1 PeptideFC=0.0106250000 RIJScale=0.5404210000
 ****
 H       
 PQN=1 NValence=1 F0ss=0.4721550000 ZetaOverlap=1.0856700000 U=-0.4188110000
 Beta=-0.2268830000 CoreKO=1.0354420000 KON=0,0,0,1.0458670000 KON=1,0,1,1.0589200000
 KON=0,1,1,1.0589200000 KON=2,1,1,1.0697690000 EISol=-0.4188110042 EHeat=0.0830298228
 Alpha=1.4609850000
 GCore=0.0085280000,1.5127750000,2.2676710000
 GCore=0.0003530000,1.4368830000,3.4779940000
 GCore=-0.0013010000,0.5600570000,3.5861320000
 ****
 C       
 PQN=2,2 NValence=4 F0ss=0.4494440000 F0sp=0.4261420000 F0pp=0.3388090000 F2pp=0.1878900000
 G1sp=0.2701540000
 ZetaOverlap=1.8086650000,1.3781170000
 U=-1.7687090000,-1.4557970000
 Beta=-0.5453250000,-0.3336900000 DDN=0,1,0.7474020000 DDN=1,1,0.7268010000
 CoreKO=1.0227200000 KON=0,0,0,1.1124280000 KON=1,0,1,0.8473510000 KON=0,1,1,1.1124280000
 KON=2,1,1,0.8516400000 EISol=-4.4398989268 EHeat=0.2723305520 Alpha=1.2756240000
 DipHyp=1.4947180026
 GCore=0.0007890000,1.3361580000,2.6678360000
 GCore=0.0028980000,1.4001430000,3.2840710000
 GCore=-0.0015090000,1.3827320000,3.8739390000
 GCore=-0.0001030000,1.4001430000,4.6088130000
 ****
 O       
 PQN=2,2 NValence=6 F0ss=0.5666750000 F0sp=0.5321300000 F0pp=0.4958710000 F2pp=0.2358080000
 G1sp=0.4216980000
 ZetaOverlap=2.6354490000,2.5240390000
 U=-3.5951870000,-2.0345890000
 Beta=-1.1573400000,-1.2994290000 DDN=0,1,0.4953610000 DDN=1,1,0.4852320000
 CoreKO=0.8515990000 KON=0,0,0,0.8822960000 KON=1,0,1,0.5019540000 KON=0,1,1,0.8671530000
 KON=2,1,1,0.5515580000 EISol=-11.6164441184 EHeat=0.0949133088 Alpha=2.4031680000
 DipHyp=0.9906650029
 GCore=0.0204720000,1.2640290000,1.6023330000
 GCore=0.0051530000,1.9602000000,2.7307880000
 ****
 
 Standard basis: VSTO-6G (5D, 7F)
 Ernie: Thresh=  0.10000D-02 Tol=  0.10000D-05 Strict=F.
  NNHCO=     0 NNPyr=     0 NCTC=     0               EPep=         0.000000000
    EC=        69.552354195  ECS=         2.468096805   EG=         0.351439144
   EHC=         0.000000000  EAt=       -31.051283842  AtH=         1.516354808
 EPDDG=         0.000000000  ECC=        72.371890144 EAtT=        32.567638650
 There are    24 symmetry adapted cartesian basis functions of A   symmetry.
 There are    24 symmetry adapted basis functions of A   symmetry.
    24 basis functions,   144 primitive gaussians,    24 cartesian basis functions
    13 alpha electrons       13 beta electrons
       nuclear repulsion energy       104.9395287943 Hartrees.
 IExCor=    0 DFT=F Ex=HF Corr=None ExCW=0 ScaHFX=  1.000000
 ScaDFX=  1.000000  1.000000  1.000000  1.000000 ScalE2=  1.000000  1.000000
 IRadAn=      0 IRanWt=     -1 IRanGd=            0 ICorTp=0 IEmpDi=  4
 Integral buffers will be    131072 words long.
 Regular integral format.
 Two-electron integral symmetry is turned off.
 Leave Link  301 at Tue Dec 15 17:09:06 2015, MaxMem=    33554432 cpu:         0.0
 (Enter /home/Applications/g09/g09/l302.exe)
 Do NDO integrals.
 NPDir=0 NMtPBC=     1 NCelOv=     1 NCel=       1 NClECP=     1 NCelD=      1
         NCelK=      1 NCelE2=     1 NClLst=     1 CellRange=     0.0.
 One-electron integrals computed using PRISM.
 NBasis=    24 RedAO= F EigKep=  0.00D+00  NBF=    24
 NBsUse=    24 1.00D-04 EigRej=  0.00D+00 NBFU=    24
 Leave Link  302 at Tue Dec 15 17:09:06 2015, MaxMem=    33554432 cpu:         0.0
 (Enter /home/Applications/g09/g09/l308.exe)
 Leave Link  308 at Tue Dec 15 17:09:06 2015, MaxMem=    33554432 cpu:         0.0
 (Enter /home/Applications/g09/g09/l303.exe)
 DipDrv:  MaxL=1.
 Leave Link  303 at Tue Dec 15 17:09:06 2015, MaxMem=    33554432 cpu:         0.0
 (Enter /home/Applications/g09/g09/l401.exe)
 Simple Huckel Guess.
 JPrj=0 DoOrth=F DoCkMO=F.
 Leave Link  401 at Tue Dec 15 17:09:06 2015, MaxMem=    33554432 cpu:         0.0
 (Enter /home/Applications/g09/g09/l502.exe)
 Closed shell SCF:
 Using DIIS extrapolation, IDIIS=  1040.
 Overlap will be assumed to be unity.
 Two-electron integral symmetry not used.
 Keep J ints in memory in canonical form, NReq=888082.
 IVT=       79475 IEndB=       79475 NGot=    33554432 MDV=    33473473
 LenX=    33473473 LenY=    33472456
 Requested convergence on RMS density matrix=1.00D-08 within 128 cycles.
 Requested convergence on MAX density matrix=1.00D-06.
 Requested convergence on             energy=1.00D-06.
 No special actions if energy rises.
 FoFCou: FMM=F IPFlag=           0 FMFlag=           0 FMFlg1=           0
         NFxFlg=           0 DoJE=F BraDBF=F KetDBF=F FulRan=T
         wScrn=  0.000000 ICntrl=     600 IOpCl=  2 I1Cent=           0 NGrid=           0
         NMat0=    1 NMatS0=     54 NMatT0=    0 NMatD0=    1 NMtDS0=    0 NMtDT0=    0
 Symmetry not used in FoFCou.

 Cycle   1  Pass 1  IDiag  1:
 E=  4.16493571210552    
 DIIS: error= 1.41D-01 at cycle   1 NSaved=   1.
 NSaved= 1 IEnMin= 1 EnMin=  4.16493571210552     IErMin= 1 ErrMin= 1.41D-01
 ErrMax= 1.41D-01  0.00D+00 EMaxC= 1.00D-01 BMatC= 4.90D-01 BMatP= 4.90D-01
 IDIUse=3 WtCom= 0.00D+00 WtEn= 1.00D+00
 Coeff-Com:  0.100D+01
 Coeff-En:   0.100D+01
 Coeff:      0.100D+01
 GapD=    2.000 DampG=2.000 DampE=0.250 DampFc=0.5000 IDamp=-1.
 Damping current iteration by 5.00D-01
 RMSDP=6.65D-02 MaxDP=7.34D-01              OVMax= 0.00D+00

 Cycle   2  Pass 1  IDiag  1:
 E=  3.13633427729663     Delta-E=       -1.028601434809 Rises=F Damp=T
 DIIS: error= 7.62D-02 at cycle   2 NSaved=   2.
 NSaved= 2 IEnMin= 2 EnMin=  3.13633427729663     IErMin= 2 ErrMin= 7.62D-02
 ErrMax= 7.62D-02  0.00D+00 EMaxC= 1.00D-01 BMatC= 1.63D-01 BMatP= 4.90D-01
 IDIUse=3 WtCom= 2.38D-01 WtEn= 7.62D-01
 Coeff-Com: -0.109D+01 0.209D+01
 Coeff-En:   0.000D+00 0.100D+01
 Coeff:     -0.258D+00 0.126D+01
 RMSDP=3.68D-02 MaxDP=3.68D-01 DE=-1.03D+00 OVMax= 0.00D+00

 Cycle   3  Pass 1  IDiag  1:
 E=  1.88030184533953     Delta-E=       -1.256032431957 Rises=F Damp=F
 DIIS: error= 1.55D-02 at cycle   3 NSaved=   3.
 NSaved= 3 IEnMin= 3 EnMin=  1.88030184533953     IErMin= 3 ErrMin= 1.55D-02
 ErrMax= 1.55D-02  0.00D+00 EMaxC= 1.00D-01 BMatC= 1.13D-02 BMatP= 1.63D-01
 IDIUse=3 WtCom= 8.45D-01 WtEn= 1.55D-01
 Coeff-Com:  0.335D+00-0.729D+00 0.139D+01
 Coeff-En:   0.000D+00 0.000D+00 0.100D+01
 Coeff:      0.283D+00-0.616D+00 0.133D+01
 RMSDP=1.01D-02 MaxDP=5.87D-02 DE=-1.26D+00 OVMax= 0.00D+00

 Cycle   4  Pass 1  IDiag  3:
 E=  1.83515523961995     Delta-E=       -0.045146605720 Rises=F Damp=F
 DIIS: error= 4.53D-03 at cycle   4 NSaved=   4.
 NSaved= 4 IEnMin= 4 EnMin=  1.83515523961995     IErMin= 4 ErrMin= 4.53D-03
 ErrMax= 4.53D-03  0.00D+00 EMaxC= 1.00D-01 BMatC= 1.08D-03 BMatP= 1.13D-02
 IDIUse=3 WtCom= 9.55D-01 WtEn= 4.53D-02
 Coeff-Com: -0.665D-01 0.121D+00-0.437D+00 0.138D+01
 Coeff-En:   0.000D+00 0.000D+00 0.000D+00 0.100D+01
 Coeff:     -0.634D-01 0.115D+00-0.417D+00 0.137D+01
 Gap=     0.389 Goal=   None    Shift=    0.000
 RMSDP=4.04D-03 MaxDP=2.26D-02 DE=-4.51D-02 OVMax= 4.45D-02

 Cycle   5  Pass 1  IDiag  3:
 E=  1.83005982782028     Delta-E=       -0.005095411800 Rises=F Damp=F
 DIIS: error= 1.22D-03 at cycle   5 NSaved=   5.
 NSaved= 5 IEnMin= 5 EnMin=  1.83005982782028     IErMin= 5 ErrMin= 1.22D-03
 ErrMax= 1.22D-03  0.00D+00 EMaxC= 1.00D-01 BMatC= 5.34D-05 BMatP= 1.08D-03
 IDIUse=3 WtCom= 9.88D-01 WtEn= 1.22D-02
 Coeff-Com:  0.174D-01-0.299D-01 0.146D+00-0.626D+00 0.149D+01
 Coeff-En:   0.000D+00 0.000D+00 0.000D+00 0.000D+00 0.100D+01
 Coeff:      0.172D-01-0.295D-01 0.145D+00-0.618D+00 0.149D+01
 Gap=     0.389 Goal=   None    Shift=    0.000
 RMSDP=1.00D-03 MaxDP=4.91D-03 DE=-5.10D-03 OVMax= 8.93D-03

 Cycle   6  Pass 1  IDiag  3:
 E=  1.82978450809853     Delta-E=       -0.000275319722 Rises=F Damp=F
 DIIS: error= 2.65D-04 at cycle   6 NSaved=   6.
 NSaved= 6 IEnMin= 6 EnMin=  1.82978450809853     IErMin= 6 ErrMin= 2.65D-04
 ErrMax= 2.65D-04  0.00D+00 EMaxC= 1.00D-01 BMatC= 1.90D-06 BMatP= 5.34D-05
 IDIUse=3 WtCom= 9.97D-01 WtEn= 2.65D-03
 Coeff-Com: -0.112D-02 0.221D-02-0.315D-01 0.154D+00-0.519D+00 0.140D+01
 Coeff-En:   0.000D+00 0.000D+00 0.000D+00 0.000D+00 0.000D+00 0.100D+01
 Coeff:     -0.112D-02 0.220D-02-0.314D-01 0.154D+00-0.518D+00 0.139D+01
 Gap=     0.390 Goal=   None    Shift=    0.000
 RMSDP=1.84D-04 MaxDP=1.35D-03 DE=-2.75D-04 OVMax= 1.31D-03

 Cycle   7  Pass 1  IDiag  3:
 E=  1.82977567487677     Delta-E=       -0.000008833222 Rises=F Damp=F
 DIIS: error= 5.38D-05 at cycle   7 NSaved=   7.
 NSaved= 7 IEnMin= 7 EnMin=  1.82977567487677     IErMin= 7 ErrMin= 5.38D-05
 ErrMax= 5.38D-05  0.00D+00 EMaxC= 1.00D-01 BMatC= 5.65D-08 BMatP= 1.90D-06
 IDIUse=1 WtCom= 1.00D+00 WtEn= 0.00D+00
 Coeff-Com:  0.684D-04-0.148D-03 0.980D-02-0.522D-01 0.198D+00-0.630D+00
 Coeff-Com:  0.147D+01
 Coeff:      0.684D-04-0.148D-03 0.980D-02-0.522D-01 0.198D+00-0.630D+00
 Coeff:      0.147D+01
 Gap=     0.390 Goal=   None    Shift=    0.000
 RMSDP=2.73D-05 MaxDP=2.40D-04 DE=-8.83D-06 OVMax= 2.11D-04

 Cycle   8  Pass 1  IDiag  3:
 E=  1.82977543530490     Delta-E=       -0.000000239572 Rises=F Damp=F
 DIIS: error= 1.09D-05 at cycle   8 NSaved=   8.
 NSaved= 8 IEnMin= 8 EnMin=  1.82977543530490     IErMin= 8 ErrMin= 1.09D-05
 ErrMax= 1.09D-05  0.00D+00 EMaxC= 1.00D-01 BMatC= 1.97D-09 BMatP= 5.65D-08
 IDIUse=1 WtCom= 1.00D+00 WtEn= 0.00D+00
 Coeff-Com:  0.185D-04-0.647D-04-0.138D-02 0.890D-02-0.407D-01 0.143D+00
 Coeff-Com: -0.439D+00 0.133D+01
 Coeff:      0.185D-04-0.647D-04-0.138D-02 0.890D-02-0.407D-01 0.143D+00
 Coeff:     -0.439D+00 0.133D+01
 Gap=     0.390 Goal=   None    Shift=    0.000
 RMSDP=5.35D-06 MaxDP=4.73D-05 DE=-2.40D-07 OVMax= 3.68D-05

 Cycle   9  Pass 1  IDiag  3:
 E=  1.82977542600517     Delta-E=       -0.000000009300 Rises=F Damp=F
 DIIS: error= 2.60D-06 at cycle   9 NSaved=   9.
 NSaved= 9 IEnMin= 9 EnMin=  1.82977542600517     IErMin= 9 ErrMin= 2.60D-06
 ErrMax= 2.60D-06  0.00D+00 EMaxC= 1.00D-01 BMatC= 1.70D-10 BMatP= 1.97D-09
 IDIUse=1 WtCom= 1.00D+00 WtEn= 0.00D+00
 Coeff-Com:  0.144D-05 0.889D-05-0.465D-04-0.256D-03 0.386D-02-0.171D-01
 Coeff-Com:  0.764D-01-0.498D+00 0.143D+01
 Coeff:      0.144D-05 0.889D-05-0.465D-04-0.256D-03 0.386D-02-0.171D-01
 Coeff:      0.764D-01-0.498D+00 0.143D+01
 Gap=     0.390 Goal=   None    Shift=    0.000
 RMSDP=1.92D-06 MaxDP=1.71D-05 DE=-9.30D-09 OVMax= 1.84D-05

 Cycle  10  Pass 1  IDiag  3:
 E=  1.82977542498009     Delta-E=       -0.000000001025 Rises=F Damp=F
 DIIS: error= 7.55D-07 at cycle  10 NSaved=  10.
 NSaved=10 IEnMin=10 EnMin=  1.82977542498009     IErMin=10 ErrMin= 7.55D-07
 ErrMax= 7.55D-07  0.00D+00 EMaxC= 1.00D-01 BMatC= 1.82D-11 BMatP= 1.70D-10
 IDIUse=1 WtCom= 1.00D+00 WtEn= 0.00D+00
 Coeff-Com:  0.227D-06-0.344D-05 0.167D-04 0.783D-04-0.141D-02 0.608D-02
 Coeff-Com: -0.292D-01 0.225D+00-0.907D+00 0.171D+01
 Coeff:      0.227D-06-0.344D-05 0.167D-04 0.783D-04-0.141D-02 0.608D-02
 Coeff:     -0.292D-01 0.225D+00-0.907D+00 0.171D+01
 Gap=     0.390 Goal=   None    Shift=    0.000
 RMSDP=7.90D-07 MaxDP=7.54D-06 DE=-1.03D-09 OVMax= 8.14D-06

 Cycle  11  Pass 1  IDiag  3:
 E=  1.82977542486314     Delta-E=       -0.000000000117 Rises=F Damp=F
 DIIS: error= 1.21D-07 at cycle  11 NSaved=  11.
 NSaved=11 IEnMin=11 EnMin=  1.82977542486314     IErMin=11 ErrMin= 1.21D-07
 ErrMax= 1.21D-07  0.00D+00 EMaxC= 1.00D-01 BMatC= 3.98D-13 BMatP= 1.82D-11
 IDIUse=1 WtCom= 1.00D+00 WtEn= 0.00D+00
 Coeff-Com: -0.122D-05 0.229D-05-0.139D-04 0.486D-04 0.381D-05-0.250D-03
 Coeff-Com:  0.391D-02-0.476D-01 0.217D+00-0.521D+00 0.135D+01
 Coeff:     -0.122D-05 0.229D-05-0.139D-04 0.486D-04 0.381D-05-0.250D-03
 Coeff:      0.391D-02-0.476D-01 0.217D+00-0.521D+00 0.135D+01
 Gap=     0.390 Goal=   None    Shift=    0.000
 RMSDP=1.05D-07 MaxDP=9.98D-07 DE=-1.17D-10 OVMax= 1.16D-06

 Cycle  12  Pass 1  IDiag  3:
 E=  1.82977542486088     Delta-E=       -0.000000000002 Rises=F Damp=F
 DIIS: error= 1.08D-08 at cycle  12 NSaved=  12.
 NSaved=12 IEnMin=12 EnMin=  1.82977542486088     IErMin=12 ErrMin= 1.08D-08
 ErrMax= 1.08D-08  0.00D+00 EMaxC= 1.00D-01 BMatC= 8.60D-15 BMatP= 3.98D-13
 IDIUse=1 WtCom= 1.00D+00 WtEn= 0.00D+00
 Coeff-Com:  0.297D-07-0.257D-07 0.177D-05-0.716D-05-0.723D-05 0.587D-04
 Coeff-Com: -0.983D-03 0.125D-01-0.553D-01 0.137D+00-0.436D+00 0.134D+01
 Coeff:      0.297D-07-0.257D-07 0.177D-05-0.716D-05-0.723D-05 0.587D-04
 Coeff:     -0.983D-03 0.125D-01-0.553D-01 0.137D+00-0.436D+00 0.134D+01
 Gap=     0.390 Goal=   None    Shift=    0.000
 RMSDP=1.16D-08 MaxDP=8.93D-08 DE=-2.26D-12 OVMax= 1.07D-07

 Cycle  13  Pass 1  IDiag  3:
 E=  1.82977542486090     Delta-E=        0.000000000000 Rises=F Damp=F
 DIIS: error= 2.12D-09 at cycle  13 NSaved=  13.
 NSaved=13 IEnMin=12 EnMin=  1.82977542486088     IErMin=13 ErrMin= 2.12D-09
 ErrMax= 2.12D-09  0.00D+00 EMaxC= 1.00D-01 BMatC= 2.73D-16 BMatP= 8.60D-15
 IDIUse=1 WtCom= 1.00D+00 WtEn= 0.00D+00
 Coeff-Com:  0.135D-07-0.368D-07-0.498D-06 0.240D-05-0.872D-06-0.629D-05
 Coeff-Com:  0.251D-03-0.352D-02 0.154D-01-0.389D-01 0.132D+00-0.509D+00
 Coeff-Com:  0.140D+01
 Coeff:      0.135D-07-0.368D-07-0.498D-06 0.240D-05-0.872D-06-0.629D-05
 Coeff:      0.251D-03-0.352D-02 0.154D-01-0.389D-01 0.132D+00-0.509D+00
 Coeff:      0.140D+01
 Gap=     0.390 Goal=   None    Shift=    0.000
 RMSDP=2.56D-09 MaxDP=2.22D-08 DE= 1.42D-14 OVMax= 2.88D-08

 Cycle  14  Pass 2  IDiag  1:
 SCF Done:  E(RAM1) =   1.82977542486     A.U. after   14 cycles
            NFock= 13  Conv=0.26D-08     -V/T= 1.1174
 KE=-1.559220504464D+01 PE=-1.695392580668D+02 EE= 8.202170974197D+01
 Leave Link  502 at Tue Dec 15 17:09:06 2015, MaxMem=    33554432 cpu:         0.0
 (Enter /home/Applications/g09/g09/l801.exe)
 Range of M.O.s used for correlation:     1    24
 NBasis=    24 NAE=    13 NBE=    13 NFC=     0 NFV=     0
 NROrb=     24 NOA=    13 NOB=    13 NVA=    11 NVB=    11
 Leave Link  801 at Tue Dec 15 17:09:07 2015, MaxMem=    33554432 cpu:         0.0
 (Enter /home/Applications/g09/g09/l914.exe)
 RHF ground state
 MDV=    33554432 DFT=F DoStab=F Mixed=F DoRPA=F DoScal=F NonHer=F
 Making orbital integer symmetry assigments:
 Orbital symmetries:
       Occupied  (A) (A) (A) (A) (A) (A) (A) (A) (A) (A) (A) (A)
                 (A)
       Virtual   (A) (A) (A) (A) (A) (A) (A) (A) (A) (A) (A)
    60 initial guesses have been made.
 Convergence on wavefunction:    0.000001000000000
 Davidson Disk Diagonalization:  ConvIn= 1.00D-06 SkipCon=T Conv= 1.00D-06.
 Max sub-space:   240 roots to seek:    60 dimension of matrix:          286
 Iteration     1 Dimension    60 NMult     0 NNew     60
 CISAX will form    60 AO SS matrices at one time.
 NMat=    60 NSing=    60 JSym2X= 0.
 FoFJK:  IHMeth= 8 ICntrl=       0 DoSepK=F KAlg= 0 I1Cent=   0 FoldK=F
 IRaf=         1 NMat= 120 IRICut=       1 DoRegI=T DoRafI=F ISym2E= 0.
 FoFCou: FMM=F IPFlag=           0 FMFlag=      100000 FMFlg1=           0
         NFxFlg=           0 DoJE=F BraDBF=F KetDBF=F FulRan=T
         wScrn=  0.000000 ICntrl=       0 IOpCl=  0 I1Cent=           0 NGrid=           0
         NMat0=  120 NMatS0=     60 NMatT0=    0 NMatD0=  120 NMtDS0=    0 NMtDT0=    0
 Symmetry not used in FoFCou.
 New state      6 was old state      9
 New state      7 was old state      6
 New state      8 was old state      7
 New state      9 was old state     10
 New state     10 was old state      8
 New state     12 was old state     13
 New state     13 was old state     12
 New state     14 was old state     15
 New state     15 was old state     17
 Excitation Energies [eV] at current iteration:
 Root      1 :     5.218011616873921
 Root      2 :     5.971515115836206
 Root      3 :     6.492381524924812
 Root      4 :     7.124815875799554
 Root      5 :     7.744630192075014
 Root      6 :     8.568959426905014
 Root      7 :     8.714416427691670
 Root      8 :     8.978754513064036
 Root      9 :     9.223058040146219
 Root     10 :     9.505647375380393
 Root     11 :    10.092824513296700
 Root     12 :    10.144413300429280
 Root     13 :    10.346722171430180
 Root     14 :    10.371007612710700
 Root     15 :    10.558430109893700
 Root     16 :    10.759735344162870
 Root     17 :    10.952995717235040
 Root     18 :    11.098235089349950
 Root     19 :    11.238275438882960
 Root     20 :    11.387614109630190
 Root     21 :    11.666828521306300
 Root     22 :    11.999645672720750
 Root     23 :    12.379043527511980
 Root     24 :    12.544200449185680
 Root     25 :    12.570646897637400
 Root     26 :    12.666062381679450
 Root     27 :    12.867315927030820
 Root     28 :    13.156343568909050
 Root     29 :    13.229974064965650
 Root     30 :    13.393163124501880
 Root     31 :    13.444225174970680
 Root     32 :    13.794364281774000
 Root     33 :    13.913254893524770
 Root     34 :    13.923613510299750
 Root     35 :    13.976046808078680
 Root     36 :    14.149956546201720
 Root     37 :    14.288353636847960
 Root     38 :    14.298041971178420
 Root     39 :    14.453480304597350
 Root     40 :    14.551998925473760
 Root     41 :    14.862512508698130
 Root     42 :    15.222052366243150
 Root     43 :    15.373778703347010
 Root     44 :    15.767170330310910
 Root     45 :    15.871287441683480
 Root     46 :    15.900436691495710
 Root     47 :    15.966285063335170
 Root     48 :    16.311767963422010
 Root     49 :    16.337340301369450
 Root     50 :    16.426267190369700
 Root     51 :    16.474571536979080
 Root     52 :    16.500098344814490
 Root     53 :    16.617505874869710
 Root     54 :    16.787704458340540
 Root     55 :    17.110169284504100
 Root     56 :    17.529218309154810
 Root     57 :    17.789528760681450
 Root     58 :    17.807289237039210
 Root     59 :    17.904126545942290
 Root     60 :    18.043535038197230
 Iteration     2 Dimension   120 NMult    60 NNew     60
 CISAX will form    60 AO SS matrices at one time.
 NMat=    60 NSing=    60 JSym2X= 0.
 Root      1 not converged, maximum delta is    0.015759371595485
 Root      2 not converged, maximum delta is    0.019003842031198
 Root      3 not converged, maximum delta is    0.026061321738961
 Root      4 not converged, maximum delta is    0.015635482225721
 Root      5 not converged, maximum delta is    0.024358108789379
 Root      6 not converged, maximum delta is    0.018076249423124
 Root      7 not converged, maximum delta is    0.016564219262159
 Root      8 not converged, maximum delta is    0.029646661109149
 Root      9 not converged, maximum delta is    0.021220590283960
 Root     10 not converged, maximum delta is    0.067446645936541
 Root     11 not converged, maximum delta is    0.096174342233121
 Root     12 not converged, maximum delta is    0.027954405044695
 New state     13 was old state     14
 Root     13 not converged, maximum delta is    0.285849574262022
 New state     14 was old state     13
 Root     14 not converged, maximum delta is    0.245813429325237
 Root     15 not converged, maximum delta is    0.190333245147826
 Excitation Energies [eV] at current iteration:
 Root      1 :     5.137091849642506   Change is   -0.080919767231415
 Root      2 :     5.951924665307200   Change is   -0.019590450529005
 Root      3 :     6.463933260327913   Change is   -0.028448264596899
 Root      4 :     7.112458807297918   Change is   -0.012357068501636
 Root      5 :     7.718818424189346   Change is   -0.025811767885667
 Root      6 :     8.544649831982875   Change is   -0.024309594922140
 Root      7 :     8.698976051119532   Change is   -0.015440376572139
 Root      8 :     8.921078623184728   Change is   -0.057675889879307
 Root      9 :     9.201930948045485   Change is   -0.021127092100735
 Root     10 :     9.376181502790395   Change is   -0.129465872589997
 Root     11 :     9.917714008582751   Change is   -0.175110504713947
 Root     12 :    10.089105610359260   Change is   -0.055307690070018
 Root     13 :    10.316914456148810   Change is   -0.054093156561892
 Root     14 :    10.326522920127710   Change is   -0.020199251302471
 Root     15 :    10.519921035302360   Change is   -0.038509074591338
 Root     16 :    10.600583511746080   Change is   -0.159151832416798
 Root     17 :    10.825228694988380   Change is   -0.127767022246657
 Root     18 :    10.952573028665220   Change is   -0.145662060684732
 Root     19 :    11.131449011827780   Change is   -0.256165097802415
 Root     20 :    11.232162894295690   Change is   -0.006112544587265
 Root     21 :    11.630835556945650   Change is   -0.035992964360647
 Root     22 :    11.739032908189450   Change is   -0.260612764531297
 Root     23 :    12.100674590540830   Change is   -0.278368936971152
 Root     24 :    12.229214368351960   Change is   -0.314986080833716
 Root     25 :    12.411058526617750   Change is   -0.255003855061692
 Root     26 :    12.458810862864260   Change is   -0.111836034773142
 Root     27 :    12.570060175268440   Change is   -0.297255751762381
 Root     28 :    13.088138477973790   Change is   -0.068205090935265
 Root     29 :    13.096193824971380   Change is   -0.133780239994272
 Root     30 :    13.235421607710400   Change is   -0.157741516791482
 Root     31 :    13.264067995271760   Change is   -0.180157179698924
 Root     32 :    13.531726168585370   Change is   -0.262638113188625
 Root     33 :    13.652918970607340   Change is   -0.323127837471340
 Root     34 :    13.789221017791490   Change is   -0.134392492508266
 Root     35 :    13.815099438049300   Change is   -0.098155455475475
 Root     36 :    13.882710831156810   Change is   -0.267245715044910
 Root     37 :    13.952979118921220   Change is   -0.345062852257204
 Root     38 :    14.076345334284680   Change is   -0.212008302563280
 Root     39 :    14.293548865727250   Change is   -0.258450059746510
 Root     40 :    14.399212287279990   Change is   -0.054268017317364
 Root     41 :    14.750313774946790   Change is   -0.112198733751340
 Root     42 :    14.836954638274600   Change is   -0.385097727968551
 Root     43 :    15.235132081082610   Change is   -0.138646622264399
 Root     44 :    15.547162018149620   Change is   -0.353274673346083
 Root     45 :    15.629406972240090   Change is   -0.336878091095074
 Root     46 :    15.651222172590670   Change is   -0.115948157720239
 Root     47 :    15.846804695800170   Change is   -0.024482745883313
 Root     48 :    15.995588405452680   Change is   -0.316179557969321
 Root     49 :    16.113171721066950   Change is   -0.313095469302746
 Root     50 :    16.188725653180210   Change is   -0.148614648189244
 Root     51 :    16.249589808940160   Change is   -0.224981728038920
 Root     52 :    16.277403098506990   Change is   -0.222695246307498
 Root     53 :    16.314923945397770   Change is   -0.472780512942768
 Root     54 :    16.356372953423260   Change is   -0.753796331080838
 Root     55 :    16.572064826064790   Change is   -0.045441048804920
 Root     56 :    16.615749774770630
 Root     57 :    16.973426836589310   Change is   -1.070108201607914
 Root     58 :    17.322352519064950   Change is   -0.206865790089852
 Root     59 :    17.495794205034810   Change is   -0.293734555646650
 Root     60 :    17.558545952437220   Change is   -0.345580593505068
 Iteration     3 Dimension   135 NMult   120 NNew     15
 CISAX will form    15 AO SS matrices at one time.
 NMat=    15 NSing=    15 JSym2X= 0.
 Root      1 not converged, maximum delta is    0.001207576624020
 Root      2 not converged, maximum delta is    0.000048347032686
 Root      3 not converged, maximum delta is    0.000046307791803
 Root      4 not converged, maximum delta is    0.000084354826550
 Root      5 not converged, maximum delta is    0.000042819160985
 Root      6 not converged, maximum delta is    0.000075217726144
 Root      7 not converged, maximum delta is    0.000098355924365
 Root      8 not converged, maximum delta is    0.000871629040750
 Root      9 not converged, maximum delta is    0.000050782040710
 Root     10 not converged, maximum delta is    0.001374949544751
 Root     11 not converged, maximum delta is    0.001708717673944
 Root     12 not converged, maximum delta is    0.000112759308267
 Root     13 not converged, maximum delta is    0.000194894104490
 Root     14 not converged, maximum delta is    0.000158407045029
 Root     15 not converged, maximum delta is    0.002175727305096
 Excitation Energies [eV] at current iteration:
 Root      1 :     5.136754413948214   Change is   -0.000337435694292
 Root      2 :     5.951923995370893   Change is   -0.000000669936308
 Root      3 :     6.463932520601856   Change is   -0.000000739726058
 Root      4 :     7.112457500715087   Change is   -0.000001306582830
 Root      5 :     7.718817637313266   Change is   -0.000000786876080
 Root      6 :     8.544647968359794   Change is   -0.000001863623082
 Root      7 :     8.698973223184453   Change is   -0.000002827935078
 Root      8 :     8.920757205694690   Change is   -0.000321417490038
 Root      9 :     9.201929923574228   Change is   -0.000001024471256
 Root     10 :     9.375389821893165   Change is   -0.000791680897230
 Root     11 :     9.916865288437902   Change is   -0.000848720144848
 Root     12 :    10.089102242950070   Change is   -0.000003367409188
 Root     13 :    10.316905235161300   Change is   -0.000009220987509
 Root     14 :    10.326516964650980   Change is   -0.000005955476732
 Root     15 :    10.519629071477900   Change is   -0.000291963824461
 Iteration     4 Dimension   143 NMult   135 NNew      8
 CISAX will form     8 AO SS matrices at one time.
 NMat=     8 NSing=     8 JSym2X= 0.
 Root      1 not converged, maximum delta is    0.000046219333312
 Root      2 not converged, maximum delta is    0.000001665775773
 Root      3 not converged, maximum delta is    0.000002439952987
 Root      4 not converged, maximum delta is    0.000002228492699
 Root      5 not converged, maximum delta is    0.000001768667932
 Root      6 not converged, maximum delta is    0.000004466959696
 Root      7 not converged, maximum delta is    0.000004961416306
 Root      8 not converged, maximum delta is    0.000040456873151
 Root      9 not converged, maximum delta is    0.000001340259193
 Root     10 not converged, maximum delta is    0.000076676214372
 Root     11 not converged, maximum delta is    0.000090580756846
 Root     12 not converged, maximum delta is    0.000007332431501
 Root     13 not converged, maximum delta is    0.000006145121014
 Root     14 not converged, maximum delta is    0.000008247547558
 Root     15 not converged, maximum delta is    0.000075453167113
 Excitation Energies [eV] at current iteration:
 Root      1 :     5.136753673719318   Change is   -0.000000740228897
 Root      2 :     5.951923994441189   Change is   -0.000000000929704
 Root      3 :     6.463932518995202   Change is   -0.000000001606654
 Root      4 :     7.112457498796061   Change is   -0.000000001919026
 Root      5 :     7.718817636265456   Change is   -0.000000001047810
 Root      6 :     8.544647962839923   Change is   -0.000000005519870
 Root      7 :     8.698973216570050   Change is   -0.000000006614404
 Root      8 :     8.920756727511968   Change is   -0.000000478182723
 Root      9 :     9.201929922696987   Change is   -0.000000000877240
 Root     10 :     9.375387960282570   Change is   -0.000001861610596
 Root     11 :     9.916863367741048   Change is   -0.000001920696855
 Root     12 :    10.089102228181800   Change is   -0.000000014768267
 Root     13 :    10.316905224239850   Change is   -0.000000010921448
 Root     14 :    10.326516947100960   Change is   -0.000000017550015
 Root     15 :    10.519628276046260   Change is   -0.000000795431637
 Convergence achieved on expansion vectors.
 ***********************************************************************
 Excited states from <AA,BB:AA,BB> singles matrix:
 ***********************************************************************
 
 1PDM for each excited state written to RWF  633
 Ground to excited state transition densities written to RWF  633
 Ground to excited state transition electric dipole moments (Au):
       state          X           Y           Z        Dip. S.      Osc.
         1         1.7246     -0.2354      0.0156      3.0300      0.3813
         2         0.0483     -0.0224      0.0485      0.0052      0.0008
         3         0.0215     -0.0092      0.1517      0.0236      0.0037
         4        -0.0015     -0.0248     -0.0277      0.0014      0.0002
         5         0.0086      0.0080      0.0482      0.0025      0.0005
         6         0.0119     -0.0071      0.2951      0.0873      0.0183
         7        -0.0162     -0.0018     -0.0859      0.0076      0.0016
         8        -0.1720      0.5136      0.0599      0.2969      0.0649
         9        -0.0020     -0.0165      0.0820      0.0070      0.0016
        10        -0.8865     -0.4304      0.0250      0.9717      0.2232
        11        -0.2589     -0.0547      0.0109      0.0701      0.0170
        12        -0.0155      0.0149     -0.3257      0.1065      0.0263
        13        -0.0062     -0.0210     -0.4490      0.2021      0.0511
        14        -0.0615     -0.0083      0.2316      0.0575      0.0145
        15        -0.2309      0.2640     -0.1002      0.1331      0.0343
 Ground to excited state transition velocity dipole moments (Au):
       state          X           Y           Z        Dip. S.      Osc.
         1        -0.1740      0.0158      0.0037      0.0306      0.1079
         2        -0.0077      0.0047     -0.0993      0.0099      0.0303
         3        -0.0054      0.0052     -0.1375      0.0190      0.0532
         4         0.0018      0.0072     -0.0068      0.0001      0.0003
         5        -0.0008      0.0001     -0.0237      0.0006      0.0013
         6         0.0025      0.0047     -0.0655      0.0043      0.0092
         7        -0.0041     -0.0030      0.0241      0.0006      0.0013
         8         0.0120     -0.1949     -0.0031      0.0381      0.0775
         9        -0.0012      0.0030      0.0199      0.0004      0.0008
        10         0.1663      0.0807      0.0123      0.0343      0.0664
        11         0.0132     -0.0339      0.0099      0.0014      0.0026
        12        -0.0003     -0.0045     -0.0689      0.0048      0.0086
        13         0.0034     -0.0061     -0.1160      0.0135      0.0238
        14         0.0065     -0.0109     -0.0487      0.0025      0.0044
        15         0.0306     -0.0557      0.1004      0.0141      0.0244
 Ground to excited state transition magnetic dipole moments (Au):
       state          X           Y           Z
         1        -0.0029      0.0224      0.5143
         2        -0.0594     -0.2406      0.0129
         3        -0.1277      0.0418      0.0026
         4         0.3107      0.8474     -0.0114
         5         0.1121      0.6377      0.0068
         6        -1.0052      0.3420     -0.0106
         7        -0.1716      0.2260      0.0097
         8        -0.0267      0.0637     -0.0534
         9        -0.1628     -0.0393      0.0145
        10        -0.0026      0.0292     -0.2228
        11         0.0248      0.0688      0.1059
        12        -0.0381      0.1488      0.0187
        13        -0.0480     -0.1258      0.0179
        14         0.1253     -0.4286      0.0309
        15        -0.2609     -0.1981     -0.0206
 Ground to excited state transition velocity quadrupole moments (Au):
       state          XX          YY          ZZ          XY          XZ          YZ
         1        -0.1318      0.0781      0.0006     -0.2838     -0.0069      0.0022
         2         0.0065      0.0099     -0.0037     -0.0189      0.1875     -0.1041
         3        -0.0139      0.0037      0.0026     -0.0030     -0.0912     -0.0858
         4         0.0037      0.0154      0.0033      0.0028      0.1985     -0.0710
         5         0.0048     -0.0077     -0.0018      0.0049     -0.4298      0.0610
         6         0.0000      0.0184      0.0053      0.0106      0.0741     -0.0860
         7         0.0214      0.0038      0.0032     -0.0023      0.0167      0.2518
         8         0.1113     -0.3153      0.0157     -0.0695     -0.0042     -0.0134
         9         0.0038      0.0137     -0.0102     -0.0042     -0.1239     -0.0264
        10        -0.2122      0.0514     -0.0666      0.2812     -0.0029     -0.0085
        11        -0.3966     -0.3298     -0.0963      0.0554     -0.0634     -0.0110
        12        -0.0007      0.0024     -0.0024     -0.0013     -0.1856     -0.0493
        13        -0.0514     -0.0243     -0.0106      0.0200      0.1204     -0.0138
        14         0.0137     -0.0439     -0.0067      0.0208      0.3143      0.1561
        15         0.1691      0.0619      0.0015      0.0021      0.1794     -0.2720
 <0|del|b> * <b|rxdel|0> + <0|del|b> * <b|delr+rdel|0>
 Rotatory Strengths (R) in cgs (10**-40 erg-esu-cm/Gauss)
       state          XX          YY          ZZ    R(velocity)    E-M Angle
         1         2.4672      5.7559      2.1357      3.4529       88.24
         2        -2.2610     -3.0661     -0.9603     -2.0958       94.51
         3         1.0854      0.5570     -0.0452      0.5324       88.34
         4         6.4223      0.7051     11.1373      6.0883       42.23
         5        -0.2204     -0.2268     -0.0263     -0.1578       90.71
         6         1.4271     -1.4862     -0.3496     -0.1363       90.15
         7        -0.5053     -0.0441      1.0943      0.1816       87.98
         8       -13.8618     -0.5734    -12.6944     -9.0432      137.52
         9         0.4812      0.6248     -0.3439      0.2540       83.83
        10         3.3963     -8.2788      3.1948     -0.5626       91.13
        11        -2.7861      0.6630      0.2790     -0.6147      101.31
        12        -2.5793     -1.2894      0.1549     -1.2379      100.51
        13        -2.7139      0.0298     -0.0777     -0.9206       95.38
        14         5.1838      1.2536      0.9708      2.4694       79.83
        15        17.5546    -16.9994      1.2651      0.6068       88.54
 1/2[<0|r|b>*<b|rxdel|0> + (<0|rxdel|b>*<b|r|0>)*]
 Rotatory Strengths (R) in cgs (10**-40 erg-esu-cm/Gauss)
       state          XX          YY          ZZ     R(length)
         1         3.5303      3.7284     -5.6600      0.5329
         2         2.0269     -3.8172     -0.4423     -0.7442
         3         1.9440      0.2716     -0.2838      0.6439
         4         0.3259     14.8554     -0.2225      4.9863
         5        -0.6844     -3.6177     -0.2308     -1.5110
         6         8.4872      1.7284      2.2095      4.1417
         7        -1.9660      0.2918      0.5878     -0.3621
         8        -3.2502    -23.1475      2.2619     -8.0452
         9        -0.2271     -0.4587     -0.8389     -0.5082
        10        -1.6274      8.8977      3.9433      3.7378
        11         4.5334      2.6584     -0.8136      2.1261
        12        -0.4187     -1.5715      4.3111      0.7736
        13        -0.2115     -1.8646      5.6996      1.2078
        14         5.4450     -2.5220     -5.0665     -0.7145
        15       -42.5998     36.9848     -1.4567     -2.3573
  1/2[<0|del|b>*<b|r|0> + (<0|r|b>*<b|del|0>)*] (Au)
       state          X           Y           Z        Dip. S.   Osc.(frdel)
         1        -0.3002     -0.0037      0.0001      0.3038      0.2025
         2        -0.0004     -0.0001     -0.0048      0.0053      0.0035
         3        -0.0001      0.0000     -0.0209      0.0210      0.0140
         4         0.0000     -0.0002      0.0002      0.0000      0.0000
         5         0.0000      0.0000     -0.0011      0.0011      0.0008
         6         0.0000      0.0000     -0.0193      0.0193      0.0129
         7         0.0001      0.0000     -0.0021      0.0020      0.0013
         8        -0.0021     -0.1001     -0.0002      0.1023      0.0682
         9         0.0000      0.0000      0.0016     -0.0016     -0.0011
        10        -0.1474     -0.0347      0.0003      0.1819      0.1212
        11        -0.0034      0.0019      0.0001      0.0014      0.0010
        12         0.0000     -0.0001      0.0224     -0.0224     -0.0149
        13         0.0000      0.0001      0.0521     -0.0522     -0.0348
        14        -0.0004      0.0001     -0.0113      0.0116      0.0077
        15        -0.0071     -0.0147     -0.0101      0.0319      0.0212

 Excitation energies and oscillator strengths:
 
 Excited State   1:      Singlet-A      5.1368 eV  241.37 nm  f=0.3813  <S**2>=0.000
      13 -> 14         0.69671
 This state for optimization and/or second-order correction.
 Total Energy, E(CIS) =   2.01854765710    
 Copying the excited state density for this state as the 1-particle RhoCI density.
 
 Excited State   2:      Singlet-A      5.9519 eV  208.31 nm  f=0.0008  <S**2>=0.000
      13 -> 15         0.67945
      13 -> 18         0.11876
 
 Excited State   3:      Singlet-A      6.4639 eV  191.81 nm  f=0.0037  <S**2>=0.000
      13 -> 16         0.66203
      13 -> 17        -0.19230
 
 Excited State   4:      Singlet-A      7.1125 eV  174.32 nm  f=0.0002  <S**2>=0.000
      12 -> 14         0.70281
 
 Excited State   5:      Singlet-A      7.7188 eV  160.63 nm  f=0.0005  <S**2>=0.000
      13 -> 16         0.14006
      13 -> 17         0.57449
      13 -> 18         0.28605
      13 -> 19         0.12908
      13 -> 22         0.17175
 
 Excited State   6:      Singlet-A      8.5446 eV  145.10 nm  f=0.0183  <S**2>=0.000
      10 -> 14         0.48147
      13 -> 17        -0.18854
      13 -> 18         0.45174
 
 Excited State   7:      Singlet-A      8.6990 eV  142.53 nm  f=0.0016  <S**2>=0.000
      10 -> 14         0.50822
      13 -> 17         0.19080
      13 -> 18        -0.42333
 
 Excited State   8:      Singlet-A      8.9208 eV  138.98 nm  f=0.0649  <S**2>=0.000
       8 -> 15         0.10585
      11 -> 14         0.61629
      12 -> 15         0.25326
      12 -> 17         0.12035
 
 Excited State   9:      Singlet-A      9.2019 eV  134.74 nm  f=0.0016  <S**2>=0.000
      11 -> 16         0.10800
      13 -> 17        -0.12516
      13 -> 19         0.67024
 
 Excited State  10:      Singlet-A      9.3754 eV  132.24 nm  f=0.2232  <S**2>=0.000
      10 -> 18         0.11083
      11 -> 14        -0.27846
      12 -> 15         0.51462
      12 -> 16        -0.21103
      12 -> 17         0.20379
      12 -> 18         0.11164
 
 Excited State  11:      Singlet-A      9.9169 eV  125.02 nm  f=0.0170  <S**2>=0.000
       9 -> 15        -0.10435
      10 -> 15        -0.21711
      10 -> 18        -0.18774
      12 -> 15         0.34508
      12 -> 16         0.35234
      12 -> 17        -0.34002
 
 Excited State  12:      Singlet-A     10.0891 eV  122.89 nm  f=0.0263  <S**2>=0.000
      11 -> 15         0.13333
      13 -> 17         0.14846
      13 -> 20         0.51034
      13 -> 22        -0.41936
 
 Excited State  13:      Singlet-A     10.3169 eV  120.18 nm  f=0.0511  <S**2>=0.000
      11 -> 15         0.33959
      11 -> 16        -0.10531
      13 -> 20         0.32680
      13 -> 22         0.48897
 
 Excited State  14:      Singlet-A     10.3265 eV  120.06 nm  f=0.0145  <S**2>=0.000
       7 -> 15        -0.12572
      11 -> 15         0.55141
      11 -> 16         0.19424
      13 -> 15        -0.10388
      13 -> 20        -0.29533
      13 -> 22        -0.15604
 
 Excited State  15:      Singlet-A     10.5196 eV  117.86 nm  f=0.0343  <S**2>=0.000
      11 -> 16         0.52723
      12 -> 16        -0.24064
      12 -> 17        -0.16499
      13 -> 16         0.10887
      13 -> 20         0.13228
      13 -> 22         0.12995
 SavETr:  write IOETrn=   770 NScale= 10 NData=  16 NLR=1 NState=   15 LETran=     280.
 The selected state is a singlet
 CISAX will form     1 AO SS matrices at one time.
 NMat=     1 NSing=     1 JSym2X= 0.
 Leave Link  914 at Tue Dec 15 17:09:07 2015, MaxMem=    33554432 cpu:         0.1
 (Enter /home/Applications/g09/g09/l1002.exe)
 Minotr:  Closed shell wavefunction.
          Computing CIS/TD-HF/TD-KS derivatives.
          Using Z-Vector for PSCF gradient.
          Skipping F1 and S1 gradient terms here.
          IDoAtm=111111111
          Direct CPHF calculation.
          Differentiating once with respect to electric field.
                with respect to dipole field.
          Differentiating once with respect to nuclear coordinates.
          Electric field/nuclear overlap derivatives assumed to be zero.
          Requested convergence is 1.0D-10 RMS, and 1.0D-09 maximum.
          NewPWx=T KeepS1=F KeepF1=F KeepIn=T MapXYZ=F SortEE=F KeepMc=T.
          MDV=      33495423 using IRadAn=       0.
 Keep J ints in memory in canonical form, NReq=871704.
 FoFCou: FMM=F IPFlag=           0 FMFlag=           0 FMFlg1=           0
         NFxFlg=           0 DoJE=F BraDBF=F KetDBF=F FulRan=T
         wScrn=  0.000000 ICntrl=     600 IOpCl=  2 I1Cent=           0 NGrid=           0
         NMat0=    1 NMatS0=     54 NMatT0=    0 NMatD0=    1 NMtDS0=    0 NMtDT0=    0
 Symmetry not used in FoFCou.
          Solving linear equations separately, MaxMat=       0.
          There are     1 degrees of freedom in the 1st order CPHF.  IDoFFX=0 NUNeed=     1.
 LinEq1:  Iter=  0 NonCon=     1 RMS=6.86D-03 Max=3.91D-02 NDo=     1
 AX will form     1 AO Fock derivatives at one time.
 LinEq1:  Iter=  1 NonCon=     1 RMS=6.45D-04 Max=2.46D-03 NDo=     1
 LinEq1:  Iter=  2 NonCon=     1 RMS=1.17D-04 Max=9.84D-04 NDo=     1
 LinEq1:  Iter=  3 NonCon=     1 RMS=1.40D-05 Max=5.34D-05 NDo=     1
 LinEq1:  Iter=  4 NonCon=     1 RMS=2.05D-06 Max=7.84D-06 NDo=     1
 LinEq1:  Iter=  5 NonCon=     1 RMS=2.63D-07 Max=1.26D-06 NDo=     1
 LinEq1:  Iter=  6 NonCon=     1 RMS=3.73D-08 Max=1.71D-07 NDo=     1
 LinEq1:  Iter=  7 NonCon=     1 RMS=4.33D-09 Max=1.75D-08 NDo=     1
 LinEq1:  Iter=  8 NonCon=     1 RMS=5.50D-10 Max=2.31D-09 NDo=     1
 LinEq1:  Iter=  9 NonCon=     0 RMS=6.55D-11 Max=2.42D-10 NDo=     1
 Linear equations converged to 1.000D-10 1.000D-09 after     9 iterations.
 End of Minotr F.D. properties file   721 does not exist.
 End of Minotr F.D. properties file   722 does not exist.
 End of Minotr F.D. properties file   788 does not exist.
 Leave Link 1002 at Tue Dec 15 17:09:07 2015, MaxMem=    33554432 cpu:         0.0
 (Enter /home/Applications/g09/g09/l601.exe)
 Copying SCF densities to generalized density rwf, IOpCl= 0 IROHF=0.

 **********************************************************************

            Population analysis using the SCF density.

 **********************************************************************

 Orbital symmetries:
       Occupied  (A) (A) (A) (A) (A) (A) (A) (A) (A) (A) (A) (A)
                 (A)
       Virtual   (A) (A) (A) (A) (A) (A) (A) (A) (A) (A) (A)
 The electronic state is 1-A.
 Alpha  occ. eigenvalues --   -1.97816  -1.25596  -0.98985  -0.89171  -0.83886
 Alpha  occ. eigenvalues --   -0.76378  -0.73098  -0.61735  -0.60872  -0.53041
 Alpha  occ. eigenvalues --   -0.51507  -0.48009  -0.34307
 Alpha virt. eigenvalues --    0.04646   0.09678   0.12479   0.20732   0.21563
 Alpha virt. eigenvalues --    0.24114   0.26915   0.27793   0.28319   0.36538
 Alpha virt. eigenvalues --    0.40588
     Molecular Orbital Coefficients:
                           1         2         3         4         5
                           O         O         O         O         O
     Eigenvalues --    -1.97816  -1.25596  -0.98985  -0.89171  -0.83886
   1 1   C  1S          0.06612   0.41193  -0.31553  -0.21267  -0.22560
   2        1PX        -0.07007  -0.21016  -0.12996  -0.17164   0.07069
   3        1PY        -0.07816  -0.08971   0.15838   0.07271  -0.39021
   4        1PZ        -0.00056  -0.00458   0.00520  -0.00239   0.00249
   5 2   C  1S          0.21486   0.21192  -0.46093   0.11595   0.43721
   6        1PX        -0.24818  -0.09390  -0.03423  -0.21918  -0.00928
   7        1PY        -0.06335   0.29792  -0.04362  -0.43437  -0.21406
   8        1PZ         0.00227   0.00131   0.00024  -0.00260   0.00140
   9 3   O  1S          0.85135  -0.27658  -0.00015   0.07583  -0.25902
  10        1PX         0.01106   0.03469  -0.19856   0.29650   0.10988
  11        1PY         0.05949   0.15880   0.03631  -0.12280   0.13859
  12        1PZ        -0.00095  -0.00075   0.00328   0.00047  -0.00154
  13 4   C  1S          0.22906   0.29081   0.50106  -0.22511   0.27358
  14        1PX         0.18899   0.23742  -0.13160  -0.01552  -0.06715
  15        1PY        -0.17921   0.27073   0.02618   0.55360  -0.04374
  16        1PZ         0.00787   0.00702   0.02610  -0.02022   0.01437
  17 5   C  1S          0.07724   0.48592   0.23542   0.24928  -0.17707
  18        1PX         0.02977   0.11269  -0.30963  -0.16188  -0.23965
  19        1PY        -0.11384  -0.17664  -0.10165   0.13848  -0.31199
  20        1PZ         0.00060  -0.00176   0.00332  -0.01043   0.00224
  21 6   H  1S          0.00374   0.15378   0.13164   0.21625  -0.19295
  22 7   H  1S          0.05133   0.02529   0.28503  -0.15142   0.16988
  23 8   H  1S          0.03926   0.01294  -0.21900   0.07360   0.26904
  24 9   H  1S          0.00256   0.11794  -0.15569  -0.14341  -0.22432
                           6         7         8         9        10
                           O         O         O         O         O
     Eigenvalues --    -0.76378  -0.73098  -0.61735  -0.60872  -0.53041
   1 1   C  1S          0.22317  -0.00730  -0.14309   0.03756   0.11451
   2        1PX         0.25098  -0.03241   0.10280   0.15234   0.33619
   3        1PY         0.05339  -0.00852  -0.15632  -0.32028   0.41279
   4        1PZ         0.02717   0.35239   0.01671  -0.00859  -0.00009
   5 2   C  1S          0.17865  -0.00850  -0.17116  -0.03557  -0.09184
   6        1PX         0.44621  -0.06589   0.56372  -0.21262  -0.14420
   7        1PY        -0.04217   0.00543   0.12299   0.51299  -0.26496
   8        1PZ         0.03981   0.51013   0.02505   0.01514  -0.00277
   9 3   O  1S          0.17460  -0.01562   0.17622   0.18475  -0.02251
  10        1PX        -0.04890   0.02033  -0.16018   0.07814   0.09494
  11        1PY        -0.18445   0.01434  -0.06213  -0.12060   0.00835
  12        1PZ         0.02711   0.23376   0.01402   0.00403   0.00122
  13 4   C  1S          0.11014  -0.04334  -0.01709  -0.15597   0.12021
  14        1PX        -0.42428   0.01291   0.45856  -0.34232   0.08025
  15        1PY         0.11784   0.00307   0.26873   0.40069   0.24881
  16        1PZ         0.06920   0.61444   0.02012  -0.04087   0.00901
  17 5   C  1S          0.14963  -0.01741   0.04157  -0.13888  -0.11543
  18        1PX        -0.16767   0.02675  -0.19139  -0.20490  -0.04128
  19        1PY         0.17325  -0.00686  -0.21188  -0.15583  -0.41981
  20        1PZ         0.03694   0.41300   0.01065  -0.02637  -0.00091
  21 6   H  1S          0.21773  -0.02429  -0.06249  -0.13192  -0.34020
  22 7   H  1S          0.28286  -0.01032  -0.33927   0.07299  -0.01868
  23 8   H  1S          0.31048  -0.04436   0.14971  -0.30437  -0.04385
  24 9   H  1S          0.25513  -0.02396  -0.11252  -0.05210   0.44977
                          11        12        13        14        15
                           O         O         O         V         V
     Eigenvalues --    -0.51507  -0.48009  -0.34307   0.04646   0.09678
   1 1   C  1S          0.00116  -0.07550   0.00895  -0.00263  -0.09070
   2        1PX         0.02727   0.47799   0.00299  -0.00715   0.15053
   3        1PY         0.00946  -0.04267  -0.00305   0.00239  -0.03535
   4        1PZ         0.24360  -0.01224   0.61900  -0.65564  -0.02306
   5 2   C  1S          0.00805   0.11047  -0.00018   0.00411  -0.02619
   6        1PX        -0.00159  -0.23869  -0.00487   0.00194   0.06936
   7        1PY        -0.01781   0.11032   0.00691  -0.00236  -0.00929
   8        1PZ         0.72484  -0.03203  -0.33609   0.21525   0.01025
   9 3   O  1S         -0.01374  -0.09659   0.00222  -0.00073   0.01093
  10        1PX        -0.00209   0.02482  -0.00038  -0.00173   0.07190
  11        1PY         0.01383   0.18459  -0.00480  -0.00479   0.05260
  12        1PZ         0.03040  -0.00331  -0.22237  -0.01602  -0.01092
  13 4   C  1S          0.03494   0.07074   0.00696   0.00960  -0.16728
  14        1PX         0.01464   0.28542  -0.00907  -0.02297   0.46502
  15        1PY        -0.03212  -0.14033  -0.00158  -0.01658   0.22131
  16        1PZ        -0.60074   0.05077  -0.36864  -0.24965  -0.03485
  17 5   C  1S          0.00531  -0.04099   0.00736   0.01555  -0.09421
  18        1PX        -0.02393  -0.46705  -0.01891  -0.02016   0.18398
  19        1PY         0.01881   0.32424  -0.00698  -0.01384   0.18299
  20        1PZ        -0.21722   0.01151   0.56358   0.67665   0.04036
  21 6   H  1S          0.02719   0.34836   0.00050  -0.00274  -0.02281
  22 7   H  1S         -0.01124  -0.16770  -0.01048  -0.03772   0.75677
  23 8   H  1S         -0.00168  -0.12014   0.00191  -0.00391  -0.07373
  24 9   H  1S          0.01927   0.19932   0.00263   0.00784  -0.05050
                          16        17        18        19        20
                           V         V         V         V         V
     Eigenvalues --     0.12479   0.20732   0.21563   0.24114   0.26915
   1 1   C  1S         -0.14514  -0.12742  -0.10307  -0.08308   0.55255
   2        1PX        -0.12397   0.47231   0.34312   0.03722   0.22626
   3        1PY         0.35689  -0.20426   0.25677   0.50913   0.05891
   4        1PZ        -0.00174  -0.00172   0.00147   0.00347  -0.01316
   5 2   C  1S         -0.09497  -0.28929   0.23071   0.38098  -0.16630
   6        1PX        -0.25985  -0.20147   0.07205   0.15512  -0.14817
   7        1PY         0.43512  -0.02875   0.10876   0.18005  -0.14569
   8        1PZ         0.01142   0.00125  -0.00104  -0.00159   0.03341
   9 3   O  1S          0.02187  -0.01307   0.03118   0.01001  -0.04530
  10        1PX        -0.01533   0.01285   0.03082   0.01438  -0.04349
  11        1PY         0.13737  -0.01945   0.05346   0.03015  -0.19637
  12        1PZ         0.00872   0.00585  -0.00069   0.00470  -0.13162
  13 4   C  1S         -0.03389  -0.04193   0.41217  -0.26432  -0.13048
  14        1PX         0.01313  -0.09901  -0.08637  -0.00777   0.08991
  15        1PY         0.08520  -0.03286   0.21371  -0.13537  -0.15109
  16        1PZ        -0.00775  -0.00150   0.00383  -0.00315   0.03261
  17 5   C  1S         -0.11891   0.14299   0.02678  -0.01434   0.19390
  18        1PX        -0.12244   0.45612   0.35496  -0.07993  -0.28772
  19        1PY         0.09300  -0.31249   0.33892  -0.43856   0.01469
  20        1PZ         0.00388   0.00774   0.00953  -0.00349  -0.01277
  21 6   H  1S         -0.10671   0.40526  -0.22912   0.34050  -0.21156
  22 7   H  1S          0.05436  -0.03538  -0.20319   0.08551   0.06613
  23 8   H  1S          0.69818   0.27660  -0.14099  -0.20737   0.09565
  24 9   H  1S         -0.04808  -0.11075  -0.39028  -0.27597  -0.52918
                          21        22        23        24
                           V         V         V         V
     Eigenvalues --     0.27793   0.28319   0.36538   0.40588
   1 1   C  1S          0.11411  -0.38042   0.11393  -0.02279
   2        1PX         0.02057   0.15627   0.04980  -0.02673
   3        1PY         0.00561  -0.02246  -0.02672   0.02717
   4        1PZ         0.03589   0.01138  -0.00190   0.00139
   5 2   C  1S         -0.03431   0.14113  -0.17828  -0.19051
   6        1PX        -0.01749  -0.03011   0.19679   0.17885
   7        1PY        -0.03974   0.11235  -0.08785   0.17422
   8        1PZ        -0.22335  -0.01822   0.00120  -0.00433
   9 3   O  1S         -0.00543  -0.02064   0.12470   0.00419
  10        1PX        -0.00631  -0.04810   0.20233   0.87358
  11        1PY         0.00477  -0.08693   0.85622  -0.20880
  12        1PZ         0.93253   0.07699  -0.02315   0.00970
  13 4   C  1S          0.00549  -0.26353  -0.19943   0.17328
  14        1PX         0.01742  -0.02774  -0.20635   0.06324
  15        1PY        -0.00678  -0.23561   0.02447  -0.23590
  16        1PZ        -0.22298  -0.01762  -0.00127   0.00502
  17 5   C  1S         -0.02472   0.66996   0.13231   0.03206
  18        1PX        -0.04136  -0.02232  -0.05041  -0.03865
  19        1PY         0.00636   0.01324   0.01110  -0.01567
  20        1PZ         0.04772  -0.00826  -0.00352  -0.00189
  21 6   H  1S          0.00006  -0.41459  -0.08149  -0.00310
  22 7   H  1S          0.00777   0.05418  -0.01196   0.00123
  23 8   H  1S          0.00835  -0.01683  -0.03050   0.00524
  24 9   H  1S         -0.08782   0.17174  -0.06788   0.00262
     Density Matrix:
                           1         2         3         4         5
   1 1   C  1S          0.92078
   2        1PX         0.04016   1.08098
   3        1PY         0.10652   0.06225   0.99809
   4        1PZ         0.00780  -0.00133  -0.00076   1.13597
   5 2   C  1S          0.33577   0.11112  -0.53154  -0.00574   1.18277
   6        1PX         0.03459   0.11119  -0.06979   0.00115  -0.21741
   7        1PY         0.45313   0.10027  -0.55366  -0.00803  -0.16966
   8        1PZ         0.00586   0.00188  -0.00773   0.30012   0.00306
   9 3   O  1S          0.02046   0.00730  -0.03547  -0.00046   0.01160
  10        1PX         0.02722   0.00169  -0.04280  -0.00041   0.38680
  11        1PY         0.00565   0.01700  -0.08413  -0.00351   0.15528
  12        1PZ        -0.00047  -0.00022  -0.00224  -0.09375  -0.00474
  13 4   C  1S         -0.01400  -0.01116   0.03606   0.00616  -0.00205
  14        1PX        -0.03083   0.00750   0.00894  -0.00786   0.00498
  15        1PY         0.05091  -0.02405  -0.00899  -0.00842  -0.05193
  16        1PZ        -0.00804   0.00434   0.00242  -0.31175   0.00050
  17 5   C  1S          0.26046  -0.46086   0.15025   0.00819  -0.01326
  18        1PX         0.49399  -0.61271   0.21871  -0.02148   0.02264
  19        1PY        -0.03338   0.05002   0.09173  -0.00869   0.02392
  20        1PZ         0.01302  -0.00846  -0.00081   0.88560  -0.00059
  21 6   H  1S          0.01426  -0.03730   0.01318  -0.00175   0.07573
  22 7   H  1S          0.08532  -0.09432   0.01156  -0.01459   0.06184
  23 8   H  1S          0.08301   0.01111  -0.12101  -0.00112   0.54014
  24 9   H  1S          0.57348   0.59268   0.53419  -0.00133   0.06073
                           6         7         8         9        10
   6        1PX         1.52787
   7        1PY         0.07878   1.38402
   8        1PZ         0.00689  -0.01006   1.80415
   9 3   O  1S         -0.06845  -0.01851  -0.00069   1.96016
  10        1PX        -0.42978  -0.26769   0.00511  -0.06656   0.36988
  11        1PY        -0.28636   0.04369   0.00632  -0.24474  -0.01408
  12        1PZ         0.01099   0.00194   0.43522   0.00701   0.00167
  13 4   C  1S         -0.02657  -0.04425   0.00373   0.00929  -0.25236
  14        1PX         0.00154  -0.01147   0.00191   0.05031  -0.08008
  15        1PY         0.02715   0.02514  -0.00287  -0.04768   0.32865
  16        1PZ         0.00111  -0.00110   0.00599   0.00060  -0.00612
  17 5   C  1S          0.04282   0.02542  -0.00202   0.02132  -0.02350
  18        1PX         0.01397   0.01017   0.00677  -0.02185  -0.00136
  19        1PY        -0.00909  -0.00214   0.00235  -0.02931   0.00177
  20        1PZ        -0.00393   0.00218  -0.27036  -0.00047  -0.00060
  21 6   H  1S         -0.01608   0.06124   0.00290   0.00730  -0.02599
  22 7   H  1S         -0.06069  -0.01686   0.00050   0.00234  -0.08256
  23 8   H  1S          0.60694  -0.46259  -0.01755   0.00687   0.04953
  24 9   H  1S         -0.04455   0.00624  -0.00007   0.00528   0.03292
                          11        12        13        14        15
  11        1PY         0.30269
  12        1PZ        -0.00489   0.21198
  13 4   C  1S          0.31401  -0.01581   1.14593
  14        1PX         0.36320  -0.00503   0.12013   1.41999
  15        1PY        -0.30347   0.01963  -0.24237  -0.12625   1.48756
  16        1PZ         0.01927   0.41844  -0.01291   0.02123   0.00683
  17 5   C  1S          0.02596  -0.00151   0.38810   0.17789   0.43914
  18        1PX        -0.04759   0.00467  -0.33607   0.01760  -0.31841
  19        1PY        -0.08442   0.00097  -0.44904  -0.17898  -0.37861
  20        1PZ        -0.00099  -0.06876  -0.01723  -0.00448  -0.00842
  21 6   H  1S          0.03450  -0.00265   0.08290   0.05166  -0.01182
  22 7   H  1S         -0.02341   0.00769   0.50786  -0.76201  -0.19102
  23 8   H  1S         -0.05677  -0.00471   0.05455   0.04558  -0.03912
  24 9   H  1S          0.01285  -0.00181   0.07165   0.03436   0.04001
                          16        17        18        19        20
  16        1PZ         1.77050
  17 5   C  1S         -0.00056   0.89959
  18        1PX        -0.00120   0.00968   1.04260
  19        1PY         0.00351   0.09060  -0.06129   1.10404
  20        1PZ         0.36249   0.00408  -0.00528  -0.00144   1.07562
  21 6   H  1S         -0.00045   0.53588  -0.31914   0.75428  -0.00600
  22 7   H  1S          0.03776   0.08537  -0.03647  -0.10068  -0.00368
  23 8   H  1S          0.00110   0.06837   0.06488  -0.01805   0.00396
  24 9   H  1S          0.00177   0.01202   0.03035  -0.00538  -0.00169
                          21        22        23        24
  21 6   H  1S          0.86424
  22 7   H  1S         -0.00578   0.73112
  23 8   H  1S          0.01961   0.02144   0.71450
  24 9   H  1S         -0.00620   0.01412   0.00082   0.86496
    Full Mulliken population analysis:
                           1         2         3         4         5
   1 1   C  1S          0.92078
   2        1PX         0.00000   1.08098
   3        1PY         0.00000   0.00000   0.99809
   4        1PZ         0.00000   0.00000   0.00000   1.13597
   5 2   C  1S          0.00000   0.00000   0.00000   0.00000   1.18277
   6        1PX         0.00000   0.00000   0.00000   0.00000   0.00000
   7        1PY         0.00000   0.00000   0.00000   0.00000   0.00000
   8        1PZ         0.00000   0.00000   0.00000   0.00000   0.00000
   9 3   O  1S          0.00000   0.00000   0.00000   0.00000   0.00000
  10        1PX         0.00000   0.00000   0.00000   0.00000   0.00000
  11        1PY         0.00000   0.00000   0.00000   0.00000   0.00000
  12        1PZ         0.00000   0.00000   0.00000   0.00000   0.00000
  13 4   C  1S          0.00000   0.00000   0.00000   0.00000   0.00000
  14        1PX         0.00000   0.00000   0.00000   0.00000   0.00000
  15        1PY         0.00000   0.00000   0.00000   0.00000   0.00000
  16        1PZ         0.00000   0.00000   0.00000   0.00000   0.00000
  17 5   C  1S          0.00000   0.00000   0.00000   0.00000   0.00000
  18        1PX         0.00000   0.00000   0.00000   0.00000   0.00000
  19        1PY         0.00000   0.00000   0.00000   0.00000   0.00000
  20        1PZ         0.00000   0.00000   0.00000   0.00000   0.00000
  21 6   H  1S          0.00000   0.00000   0.00000   0.00000   0.00000
  22 7   H  1S          0.00000   0.00000   0.00000   0.00000   0.00000
  23 8   H  1S          0.00000   0.00000   0.00000   0.00000   0.00000
  24 9   H  1S          0.00000   0.00000   0.00000   0.00000   0.00000
                           6         7         8         9        10
   6        1PX         1.52787
   7        1PY         0.00000   1.38402
   8        1PZ         0.00000   0.00000   1.80415
   9 3   O  1S          0.00000   0.00000   0.00000   1.96016
  10        1PX         0.00000   0.00000   0.00000   0.00000   0.36988
  11        1PY         0.00000   0.00000   0.00000   0.00000   0.00000
  12        1PZ         0.00000   0.00000   0.00000   0.00000   0.00000
  13 4   C  1S          0.00000   0.00000   0.00000   0.00000   0.00000
  14        1PX         0.00000   0.00000   0.00000   0.00000   0.00000
  15        1PY         0.00000   0.00000   0.00000   0.00000   0.00000
  16        1PZ         0.00000   0.00000   0.00000   0.00000   0.00000
  17 5   C  1S          0.00000   0.00000   0.00000   0.00000   0.00000
  18        1PX         0.00000   0.00000   0.00000   0.00000   0.00000
  19        1PY         0.00000   0.00000   0.00000   0.00000   0.00000
  20        1PZ         0.00000   0.00000   0.00000   0.00000   0.00000
  21 6   H  1S          0.00000   0.00000   0.00000   0.00000   0.00000
  22 7   H  1S          0.00000   0.00000   0.00000   0.00000   0.00000
  23 8   H  1S          0.00000   0.00000   0.00000   0.00000   0.00000
  24 9   H  1S          0.00000   0.00000   0.00000   0.00000   0.00000
                          11        12        13        14        15
  11        1PY         0.30269
  12        1PZ         0.00000   0.21198
  13 4   C  1S          0.00000   0.00000   1.14593
  14        1PX         0.00000   0.00000   0.00000   1.41999
  15        1PY         0.00000   0.00000   0.00000   0.00000   1.48756
  16        1PZ         0.00000   0.00000   0.00000   0.00000   0.00000
  17 5   C  1S          0.00000   0.00000   0.00000   0.00000   0.00000
  18        1PX         0.00000   0.00000   0.00000   0.00000   0.00000
  19        1PY         0.00000   0.00000   0.00000   0.00000   0.00000
  20        1PZ         0.00000   0.00000   0.00000   0.00000   0.00000
  21 6   H  1S          0.00000   0.00000   0.00000   0.00000   0.00000
  22 7   H  1S          0.00000   0.00000   0.00000   0.00000   0.00000
  23 8   H  1S          0.00000   0.00000   0.00000   0.00000   0.00000
  24 9   H  1S          0.00000   0.00000   0.00000   0.00000   0.00000
                          16        17        18        19        20
  16        1PZ         1.77050
  17 5   C  1S          0.00000   0.89959
  18        1PX         0.00000   0.00000   1.04260
  19        1PY         0.00000   0.00000   0.00000   1.10404
  20        1PZ         0.00000   0.00000   0.00000   0.00000   1.07562
  21 6   H  1S          0.00000   0.00000   0.00000   0.00000   0.00000
  22 7   H  1S          0.00000   0.00000   0.00000   0.00000   0.00000
  23 8   H  1S          0.00000   0.00000   0.00000   0.00000   0.00000
  24 9   H  1S          0.00000   0.00000   0.00000   0.00000   0.00000
                          21        22        23        24
  21 6   H  1S          0.86424
  22 7   H  1S          0.00000   0.73112
  23 8   H  1S          0.00000   0.00000   0.71450
  24 9   H  1S          0.00000   0.00000   0.00000   0.86496
     Gross orbital populations:
                           1
   1 1   C  1S          0.92078
   2        1PX         1.08098
   3        1PY         0.99809
   4        1PZ         1.13597
   5 2   C  1S          1.18277
   6        1PX         1.52787
   7        1PY         1.38402
   8        1PZ         1.80415
   9 3   O  1S          1.96016
  10        1PX         0.36988
  11        1PY         0.30269
  12        1PZ         0.21198
  13 4   C  1S          1.14593
  14        1PX         1.41999
  15        1PY         1.48756
  16        1PZ         1.77050
  17 5   C  1S          0.89959
  18        1PX         1.04260
  19        1PY         1.10404
  20        1PZ         1.07562
  21 6   H  1S          0.86424
  22 7   H  1S          0.73112
  23 8   H  1S          0.71450
  24 9   H  1S          0.86496
          Condensed to atoms (all electrons):
               1          2          3          4          5          6
     1  C    4.135821   0.000000   0.000000   0.000000   0.000000   0.000000
     2  C    0.000000   5.898813   0.000000   0.000000   0.000000   0.000000
     3  O    0.000000   0.000000   2.844720   0.000000   0.000000   0.000000
     4  C    0.000000   0.000000   0.000000   5.823981   0.000000   0.000000
     5  C    0.000000   0.000000   0.000000   0.000000   4.121847   0.000000
     6  H    0.000000   0.000000   0.000000   0.000000   0.000000   0.864239
     7  H    0.000000   0.000000   0.000000   0.000000   0.000000   0.000000
     8  H    0.000000   0.000000   0.000000   0.000000   0.000000   0.000000
     9  H    0.000000   0.000000   0.000000   0.000000   0.000000   0.000000
               7          8          9
     1  C    0.000000   0.000000   0.000000
     2  C    0.000000   0.000000   0.000000
     3  O    0.000000   0.000000   0.000000
     4  C    0.000000   0.000000   0.000000
     5  C    0.000000   0.000000   0.000000
     6  H    0.000000   0.000000   0.000000
     7  H    0.731121   0.000000   0.000000
     8  H    0.000000   0.714501   0.000000
     9  H    0.000000   0.000000   0.864957
 Mulliken charges:
               1
     1  C   -0.135821
     2  C   -1.898813
     3  O    3.155280
     4  C   -1.823981
     5  C   -0.121847
     6  H    0.135761
     7  H    0.268879
     8  H    0.285499
     9  H    0.135043
 Sum of Mulliken charges =   0.00000
 Mulliken charges with hydrogens summed into heavy atoms:
               1
     1  C   -0.000778
     2  C   -1.613314
     3  O    3.155280
     4  C   -1.555102
     5  C    0.013914
 Charge=              0.0000 electrons
 Dipole moment (field-independent basis, Debye):
    X=             -3.2645    Y=            -11.2806    Z=              0.3837  Tot=             11.7497
 N-N= 1.049395287943D+02 E-N=-1.695392580472D+02  KE=-1.559220504464D+01
 Orbital energies and kinetic energies (alpha):
                                 1                 2
   1         O                -1.978162         -1.345759
   2         O                -1.255962         -1.052106
   3         O                -0.989850         -0.882660
   4         O                -0.891706         -0.587309
   5         O                -0.838861         -0.681610
   6         O                -0.763783         -0.613285
   7         O                -0.730977         -0.536879
   8         O                -0.617355         -0.354539
   9         O                -0.608719         -0.357071
  10         O                -0.530412         -0.453568
  11         O                -0.515072         -0.331933
  12         O                -0.480092         -0.344320
  13         O                -0.343071         -0.255063
  14         V                 0.046461         -0.166419
  15         V                 0.096779         -0.197370
  16         V                 0.124789         -0.175291
  17         V                 0.207317         -0.117229
  18         V                 0.215629         -0.115652
  19         V                 0.241138         -0.098829
  20         V                 0.269147         -0.104819
  21         V                 0.277934          0.471375
  22         V                 0.283187         -0.117756
  23         V                 0.365381          0.496155
  24         V                 0.405879          0.581471
 Total kinetic energy from orbitals=-1.559220504464D+01
 Leave Link  601 at Tue Dec 15 17:09:07 2015, MaxMem=    33554432 cpu:         0.0
 (Enter /home/Applications/g09/g09/l701.exe)
 Compute integral first derivatives.
 ... and contract with generalized density number  6.
 Leave Link  701 at Tue Dec 15 17:09:07 2015, MaxMem=    33554432 cpu:         0.0
 (Enter /home/Applications/g09/g09/l702.exe)
 L702 exits ... SP integral derivatives will be done elsewhere.
 Leave Link  702 at Tue Dec 15 17:09:07 2015, MaxMem=    33554432 cpu:         0.0
 (Enter /home/Applications/g09/g09/l703.exe)
 Compute integral first derivatives, UseDBF=F ICtDFT=           0.
 Integral derivatives from FoFJK, PRISM(SPDF).
 Calling FoFJK, ICntrl=  10005127 FMM=F ISym2X=0 I1Cent= 0 IOpClX= 0 NMat=1 NMatS=1 NMatT=0.
 FoFJK:  IHMeth= 8 ICntrl=10005127 DoSepK=F KAlg= 0 I1Cent=   0 FoldK=F
 IRaf=         0 NMat=   1 IRICut=       1 DoRegI=T DoRafI=F ISym2E= 0.
 FoFCou: FMM=F IPFlag=           0 FMFlag=      100000 FMFlg1=         800
         NFxFlg=           0 DoJE=F BraDBF=F KetDBF=F FulRan=T
         wScrn=  0.000000 ICntrl=10005127 IOpCl=  0 I1Cent=           0 NGrid=           0
         NMat0=    1 NMatS0=      1 NMatT0=    0 NMatD0=    1 NMtDS0=    0 NMtDT0=    0
 Symmetry not used in FoFCou.
 Leave Link  703 at Tue Dec 15 17:09:07 2015, MaxMem=    33554432 cpu:         0.0
 (Enter /home/Applications/g09/g09/l716.exe)
 Dipole        =-1.30512294D+00-4.78620520D+00 1.49684219D-01
 ***** Axes restored to original set *****
 -------------------------------------------------------------------
 Center     Atomic                   Forces (Hartrees/Bohr)
 Number     Number              X              Y              Z
 -------------------------------------------------------------------
      1        6           0.035218639    0.028111583    0.002204344
      2        6          -0.177848507   -0.049857640    0.001762535
      3        8           0.075359810   -0.044206922   -0.006208817
      4        6          -0.391143055    0.148420487   -0.001416795
      5        6           0.260127308   -0.089379710    0.005953973
      6        1           0.107053304    0.073367545   -0.000149294
      7        1           0.006598261    0.047618534   -0.002177055
      8        1          -0.002729545   -0.049920062   -0.000437988
      9        1           0.087363784   -0.064153813    0.000469097
 -------------------------------------------------------------------
 Cartesian Forces:  Max     0.391143055 RMS     0.110209790
 Z-matrix is all fixed cartesians, so copy forces.
 Force constants in Cartesian coordinates: 
                1             2             3             4             5 
      1  0.874768D+00
      2 -0.877652D-01  0.685174D+00
      3  0.853347D-02 -0.418143D-02  0.165308D+00
      4 -0.422642D+00 -0.707075D-01 -0.697924D-02  0.806353D+00
      5 -0.503695D-01 -0.188604D+00 -0.153180D-02 -0.650205D-02  0.806577D+00
      6 -0.852368D-02 -0.220350D-02 -0.826150D-01  0.126190D-01  0.546979D-02
      7 -0.677036D-02  0.280645D-01  0.141191D-03 -0.262454D+00  0.145044D+00
      8 -0.490188D-02  0.203506D-01 -0.217820D-03  0.187882D+00 -0.341882D+00
      9 -0.224435D-03  0.716384D-03  0.299020D-02 -0.188975D-02  0.144395D-02
     10  0.967451D-02  0.417043D-03  0.801507D-03  0.223972D-01  0.162366D-01
     11  0.349920D-01  0.151522D-02  0.339977D-02 -0.191394D-01 -0.138744D-01
     12 -0.462853D-03  0.635191D-04  0.131157D-03  0.111670D-03  0.484439D-04
     13 -0.151207D+00  0.158987D-01 -0.113667D-02  0.768410D-02 -0.319256D-01
     14 -0.350711D-02 -0.314969D+00  0.301962D-02  0.315466D-03 -0.133435D-02
     15 -0.588872D-03  0.651342D-02 -0.630755D-01  0.149156D-04 -0.740354D-03
     16  0.165289D-01  0.679597D-03 -0.111121D-03  0.000000D+00  0.000000D+00
     17 -0.236886D-01 -0.967700D-03  0.463446D-03  0.000000D+00  0.000000D+00
     18  0.409739D-03  0.257603D-03  0.116704D-01 -0.398021D-04  0.299707D-04
     19  0.171087D-04 -0.119040D-04 -0.611387D-03  0.507656D-05  0.553487D-05
     20  0.309549D-04 -0.215379D-04 -0.110619D-02 -0.215528D-05 -0.234986D-05
     21 -0.256810D-03  0.178684D-03  0.917720D-02  0.642774D-04  0.700803D-04
     22  0.607565D-02 -0.251324D-01 -0.730971D-03 -0.147322D+00 -0.891593D-01
     23 -0.288244D-02  0.119718D-01 -0.202815D-03 -0.858882D-01 -0.285572D+00
     24 -0.277512D-03 -0.826596D-03  0.224358D-01 -0.329433D-02 -0.532463D-02
     25 -0.326445D+00  0.138557D+00  0.932191D-04 -0.402173D-02  0.166700D-01
     26  0.138092D+00 -0.214450D+00  0.357212D-03 -0.595723D-02  0.246914D-01
     27  0.139095D-02 -0.518084D-03 -0.660221D-01 -0.606698D-03  0.534549D-03
                6             7             8             9            10 
      6  0.152083D+00
      7 -0.939557D-03  0.531073D+00
      8  0.799848D-03  0.100542D-01  0.636336D+00
      9 -0.400252D-01 -0.736630D-02 -0.943312D-02  0.530524D-01
     10 -0.110541D-02 -0.293521D+00 -0.199440D+00  0.120001D-01  0.113037D+01
     11  0.999967D-03 -0.155100D+00 -0.322718D+00  0.108724D-01 -0.620479D-01
     12  0.388150D-03  0.755447D-02  0.836319D-02 -0.498322D-01  0.190918D-02
     13  0.797557D-03 -0.807490D-02  0.686881D-02 -0.830722D-03 -0.708087D+00
     14 -0.583789D-04 -0.290610D-01  0.247716D-01 -0.203293D-02  0.151268D+00
     15  0.694659D-03  0.165622D-02 -0.980777D-03  0.791549D-02 -0.228803D-01
     16  0.564676D-05  0.383979D-05 -0.100034D-04 -0.197873D-03 -0.519158D-02
     17  0.318456D-04 -0.108429D-04  0.282481D-04  0.558761D-03  0.737669D-02
     18  0.153274D-02 -0.204818D-03  0.533595D-03  0.105548D-01 -0.257277D-02
     19  0.290660D-03  0.184886D-01 -0.158706D-01 -0.203133D-02 -0.155635D+00
     20 -0.123401D-03  0.111160D-01 -0.955371D-02 -0.156840D-02  0.861917D-01
     21  0.368021D-02 -0.839377D-03  0.866580D-03  0.439194D-02  0.118305D-01
     22 -0.324423D-02  0.212532D-01  0.154170D-01  0.627233D-03 -0.175131D-05
     23 -0.507829D-02 -0.101094D-01 -0.733422D-02 -0.431743D-03  0.000000D+00
     24 -0.582205D-01  0.105100D-03  0.110907D-03  0.544020D-02  0.680342D-04
     25  0.100055D-03  0.168633D-05  0.000000D+00 -0.869319D-04  0.000000D+00
     26  0.162129D-03  0.243148D-05  0.000000D+00 -0.125345D-03 -0.107821D-05
     27  0.224817D-01 -0.106932D-03 -0.424000D-04  0.551247D-02 -0.508636D-04
               11            12            13            14            15 
     11  0.805657D+00
     12 -0.526019D-02  0.239984D+00
     13  0.128201D+00 -0.192931D-01  0.116604D+01
     14 -0.252137D+00  0.714984D-02 -0.663555D-03  0.751864D+00
     15  0.109647D-01 -0.142867D+00  0.165635D-01 -0.159671D-01  0.232809D+00
     16 -0.187768D-01  0.296256D-03 -0.329382D+00 -0.144498D+00  0.398677D-02
     17  0.268013D-01  0.584142D-03 -0.146377D+00 -0.224243D+00  0.308761D-02
     18 -0.464310D-02  0.387164D-01  0.561717D-02  0.566380D-02 -0.937312D-01
     19  0.918722D-01  0.995936D-02  0.698397D-02  0.254899D-01  0.150829D-02
     20 -0.245244D+00 -0.109396D-01  0.424499D-02  0.150756D-01 -0.253848D-02
     21 -0.164432D-01 -0.922331D-01 -0.886858D-03  0.193679D-02  0.426105D-01
     22 -0.190942D-05 -0.100272D-03  0.191229D-05 -0.143993D-05 -0.736404D-04
     23  0.000000D+00 -0.478810D-04  0.179873D-05 -0.135443D-05 -0.692677D-04
     24  0.741763D-04  0.389531D-02 -0.110385D-03  0.831191D-04  0.425084D-02
     25  0.000000D+00  0.252530D-04  0.160354D-01  0.657674D-03 -0.186892D-03
     26  0.000000D+00  0.385303D-04  0.237506D-01  0.974254D-03 -0.269758D-03
     27  0.353901D-04  0.181763D-02 -0.720537D-03  0.205259D-03  0.113933D-01
               16            17            18            19            20 
     16  0.318062D+00
     17  0.162643D+00  0.198276D+00
     18 -0.428207D-02 -0.379248D-02  0.504344D-01
     19 -0.207708D-04  0.586533D-04  0.110794D-02  0.130161D+00
     20 -0.375808D-04  0.106122D-03  0.200460D-02 -0.101544D+00  0.239639D+00
     21  0.311780D-03 -0.880413D-03 -0.166307D-01 -0.102235D-01  0.142715D-01
     22  0.000000D+00  0.000000D+00  0.000000D+00  0.000000D+00  0.000000D+00
     23  0.000000D+00  0.000000D+00  0.000000D+00  0.000000D+00  0.000000D+00
     24  0.000000D+00  0.000000D+00  0.000000D+00  0.000000D+00  0.000000D+00
     25  0.000000D+00  0.000000D+00 -0.353836D-04  0.000000D+00  0.000000D+00
     26  0.000000D+00 -0.112169D-05 -0.539873D-04  0.000000D+00  0.000000D+00
     27 -0.938265D-05 -0.529146D-04 -0.254680D-02  0.000000D+00  0.000000D+00
               21            22            23            24            25 
     21  0.490038D-01
     22  0.000000D+00  0.119995D+00
     23  0.000000D+00  0.988812D-01  0.280939D+00
     24  0.000000D+00  0.337933D-02  0.569592D-02  0.304268D-01
     25  0.000000D+00 -0.224801D-05 -0.211452D-05  0.129764D-03  0.314433D+00
     26  0.000000D+00 -0.324135D-05 -0.304888D-05  0.187104D-03 -0.155883D+00
     27  0.000000D+00  0.142549D-03  0.134085D-03 -0.822854D-02 -0.390843D-04
               26            27 
     26  0.188787D+00
     27 -0.295884D-03  0.355923D-01
 Leave Link  716 at Tue Dec 15 17:09:07 2015, MaxMem=    33554432 cpu:         0.0
 (Enter /home/Applications/g09/g09/l103.exe)

 GradGradGradGradGradGradGradGradGradGradGradGradGradGradGradGradGradGrad
 Berny optimization.
 Search for a local minimum.
 Step number   1 out of a maximum of    2
 All quantities printed in internal units (Hartrees-Bohrs-Radians)
 Second derivative matrix not updated -- first step.
 ITU=  0
     Eigenvalues ---    0.01470   0.02749   0.06940   0.07403   0.07928
     Eigenvalues ---    0.08903   0.12247   0.12739   0.14972   0.24183
     Eigenvalues ---    0.27331   0.28240   0.40751   0.44115   0.60186
     Eigenvalues ---    0.86540   1.02356   1.24496   1.29343   1.42861
     Eigenvalues ---    1.98353
 Quadratic step=1.249D+00 exceeds max=3.000D-01 adjusted using Lamda=-8.447D-01.
 Angle between NR and scaled steps=  31.45 degrees.
 Angle between quadratic step and forces=  24.46 degrees.
 Linear search not attempted -- first point.
 TrRot= -0.008695 -0.002165 -0.000182  0.000393 -0.000075  0.000393
 MatCor failed.
 Variable       Old X    -DE/DX   Delta X   Delta X   Delta X     New X
                                 (Linear)    (Quad)   (Total)
    X1        1.86445   0.03522   0.00000   0.02818   0.02061   1.88506
    Y1       -1.42807   0.02811   0.00000  -0.00752  -0.00820  -1.43626
    Z1        0.06299   0.00220   0.00000   0.00157   0.00153   0.06452
    X2       -0.72817  -0.17785   0.00000  -0.09094  -0.09798  -0.82615
    Y2       -2.05322  -0.04986   0.00000  -0.04359  -0.04639  -2.09961
    Z2        0.00789   0.00176   0.00000   0.00299   0.00274   0.01064
    X3       -2.27052   0.07536   0.00000   0.02683   0.01810  -2.25243
    Y3        0.07356  -0.04421   0.00000  -0.02750  -0.03142   0.04213
    Z3       -0.00567  -0.00621   0.00000  -0.00512  -0.00548  -0.01114
    X4       -0.57332  -0.39114   0.00000  -0.15478  -0.16515  -0.73847
    Y4        2.05937   0.14842   0.00000   0.08381   0.08107   2.14044
    Z4       -0.07312  -0.00142   0.00000   0.00196   0.00172  -0.07140
    X5        1.74699   0.26013   0.00000   0.10034   0.09054   1.83753
    Y5        1.41905  -0.08938   0.00000  -0.00947  -0.01019   1.40886
    Z5        0.00427   0.00595   0.00000  -0.00045  -0.00049   0.00378
    X6        3.33947   0.10705   0.00000   0.11574   0.10500   3.44448
    Y6        2.52971   0.07337   0.00000   0.06334   0.06389   2.59361
    Z6       -0.02467  -0.00015   0.00000  -0.00029  -0.00021  -0.02488
    X7       -1.67033   0.00660   0.00000  -0.01281  -0.02463  -1.69496
    Y7        3.89515   0.04762   0.00000   0.07495   0.07146   3.96661
    Z7        0.07507  -0.00218   0.00000   0.00035   0.00004   0.07511
    X8       -1.62717  -0.00273   0.00000  -0.01246  -0.01801  -1.64518
    Y8       -3.94369  -0.04992   0.00000  -0.05937  -0.06282  -4.00651
    Z8       -0.03849  -0.00044   0.00000  -0.00019  -0.00049  -0.03898
    X9        3.48610   0.08736   0.00000   0.07820   0.07153   3.55762
    Y9       -2.52291  -0.06415   0.00000  -0.05804  -0.05740  -2.58031
    Z9        0.06367   0.00047   0.00000   0.00056   0.00064   0.06432
         Item               Value     Threshold  Converged?
 Maximum Force            0.391143     0.000450     NO 
 RMS     Force            0.110210     0.000300     NO 
 Maximum Displacement     0.165150     0.001800     NO 
 RMS     Displacement     0.057495     0.001200     NO 
 Predicted change in Energy=-1.162223D-01
 GradGradGradGradGradGradGradGradGradGradGradGradGradGradGradGradGradGrad

 Leave Link  103 at Tue Dec 15 17:09:07 2015, MaxMem=    33554432 cpu:         0.0
 (Enter /home/Applications/g09/g09/l9999.exe)
 1\1\GINC-DUSTIN-DESKTOP\Force\RAM1-FC\STO-3G\C4H4O1\DUSTIN\15-Dec-2015
 \0\\#P AM1(Input,print) CIS(Singlets,NStates=15) pop(full) force\\AM1-
 Reparam Input\\0,1\C,0.986622,-0.7557,0.033335\C,-0.385329,-1.086516,0
 .004177\O,-1.20151,0.038924,-0.002999\C,-0.303388,1.08977,-0.038696\C,
 0.924467,0.750927,0.002261\H,1.767174,1.338667,-0.013055\H,-0.883899,2
 .061226,0.039726\H,-0.861062,-2.086912,-0.020366\H,1.844764,-1.335068,
 0.033694\\Version=ES64L-G09RevD.01\State=1-A\HF=1.8297754\RMSD=2.555e-
 09\RMSF=1.102e-01\Dipole=-4.9558338,0.2523542,0.0976735\PG=C01 [X(C4H4
 O1)]\\@


 YE HAVE SOWN MUCH, AND BRING IN LITTLE.
 YE EAT, BUT YE HAVE NOT ENOUGH.
 YE DRINK, BUT YE ARE NOT FILLED WITH DRINK.
 YE CLOTHE YOU, BUT THERE IS NONE WARM.
 AND HE THAT EARNETH WAGES EARNETH WAGES TO PUT
 IT INTO A BAG WITH HOLES.
                                     HAGGAI I,6
 Job cpu time:       0 days  0 hours  0 minutes  0.7 seconds.
 File lengths (MBytes):  RWF=      7 Int=      0 D2E=      0 Chk=      2 Scr=      1
 Normal termination of Gaussian 09 at Tue Dec 15 17:09:07 2015.
