 Entering Gaussian System, Link 0=g09
 Input=FuranAM1_63P0.com
 Output=FuranAM1_63P0.log
 Initial command:
 /home/Applications/g09/g09/l1.exe "/home/Applications/g09/scratch/Gau-10770.inp" -scrdir="/home/Applications/g09/scratch/"
 Entering Link 1 = /home/Applications/g09/g09/l1.exe PID=     10774.
  
 Copyright (c) 1988,1990,1992,1993,1995,1998,2003,2009,2013,
            Gaussian, Inc.  All Rights Reserved.
  
 This is part of the Gaussian(R) 09 program.  It is based on
 the Gaussian(R) 03 system (copyright 2003, Gaussian, Inc.),
 the Gaussian(R) 98 system (copyright 1998, Gaussian, Inc.),
 the Gaussian(R) 94 system (copyright 1995, Gaussian, Inc.),
 the Gaussian 92(TM) system (copyright 1992, Gaussian, Inc.),
 the Gaussian 90(TM) system (copyright 1990, Gaussian, Inc.),
 the Gaussian 88(TM) system (copyright 1988, Gaussian, Inc.),
 the Gaussian 86(TM) system (copyright 1986, Carnegie Mellon
 University), and the Gaussian 82(TM) system (copyright 1983,
 Carnegie Mellon University). Gaussian is a federally registered
 trademark of Gaussian, Inc.
  
 This software contains proprietary and confidential information,
 including trade secrets, belonging to Gaussian, Inc.
  
 This software is provided under written license and may be
 used, copied, transmitted, or stored only in accord with that
 written license.
  
 The following legend is applicable only to US Government
 contracts under FAR:
  
                    RESTRICTED RIGHTS LEGEND
  
 Use, reproduction and disclosure by the US Government is
 subject to restrictions as set forth in subparagraphs (a)
 and (c) of the Commercial Computer Software - Restricted
 Rights clause in FAR 52.227-19.
  
 Gaussian, Inc.
 340 Quinnipiac St., Bldg. 40, Wallingford CT 06492
  
  
 ---------------------------------------------------------------
 Warning -- This program may not be used in any manner that
 competes with the business of Gaussian, Inc. or will provide
 assistance to any competitor of Gaussian, Inc.  The licensee
 of this program is prohibited from giving any competitor of
 Gaussian, Inc. access to this program.  By using this program,
 the user acknowledges that Gaussian, Inc. is engaged in the
 business of creating and licensing software in the field of
 computational chemistry and represents and warrants to the
 licensee that it is not a competitor of Gaussian, Inc. and that
 it will not use this program in any manner prohibited above.
 ---------------------------------------------------------------
  

 Cite this work as:
 Gaussian 09, Revision D.01,
 M. J. Frisch, G. W. Trucks, H. B. Schlegel, G. E. Scuseria, 
 M. A. Robb, J. R. Cheeseman, G. Scalmani, V. Barone, B. Mennucci, 
 G. A. Petersson, H. Nakatsuji, M. Caricato, X. Li, H. P. Hratchian, 
 A. F. Izmaylov, J. Bloino, G. Zheng, J. L. Sonnenberg, M. Hada, 
 M. Ehara, K. Toyota, R. Fukuda, J. Hasegawa, M. Ishida, T. Nakajima, 
 Y. Honda, O. Kitao, H. Nakai, T. Vreven, J. A. Montgomery, Jr., 
 J. E. Peralta, F. Ogliaro, M. Bearpark, J. J. Heyd, E. Brothers, 
 K. N. Kudin, V. N. Staroverov, T. Keith, R. Kobayashi, J. Normand, 
 K. Raghavachari, A. Rendell, J. C. Burant, S. S. Iyengar, J. Tomasi, 
 M. Cossi, N. Rega, J. M. Millam, M. Klene, J. E. Knox, J. B. Cross, 
 V. Bakken, C. Adamo, J. Jaramillo, R. Gomperts, R. E. Stratmann, 
 O. Yazyev, A. J. Austin, R. Cammi, C. Pomelli, J. W. Ochterski, 
 R. L. Martin, K. Morokuma, V. G. Zakrzewski, G. A. Voth, 
 P. Salvador, J. J. Dannenberg, S. Dapprich, A. D. Daniels, 
 O. Farkas, J. B. Foresman, J. V. Ortiz, J. Cioslowski, 
 and D. J. Fox, Gaussian, Inc., Wallingford CT, 2013.
 
 ******************************************
 Gaussian 09:  ES64L-G09RevD.01 24-Apr-2013
                15-Dec-2015 
 ******************************************
 ------------------------------------------------------------
 #P AM1(Input,print) CIS(Singlets,NStates=15) pop(full) force
 ------------------------------------------------------------
 1/10=7,30=1,38=1/1,3;
 2/12=2,17=6,18=5,40=1/2;
 3/5=2,16=1,25=1,41=700000,71=1,135=100,136=1/1,2,8,3;
 4/35=1/1;
 5/5=2,35=1,38=5/2;
 8/6=1,10=1,108=15/1;
 9/15=2,41=15,42=1,48=1,49=10/14;
 10/5=4/2;
 6/7=3,18=1/1;
 7/12=6,13=5,29=1/1,2,3,16;
 1/10=7,30=1/3;
 99//99;
 Leave Link    1 at Tue Dec 15 17:09:02 2015, MaxMem=           0 cpu:         0.0
 (Enter /home/Applications/g09/g09/l101.exe)
 -----------------
 AM1-Reparam Input
 -----------------
 Symbolic Z-matrix:
 Charge =  0 Multiplicity = 1
 6                     0.92573  -0.74458   0.03902 
 6                    -0.38036  -1.1145    0.03167 
 8                    -1.17076  -0.01374   0.00789 
 6                    -0.30153   1.09185   0.0267 
 6                     0.9591    0.70893  -0.00943 
 1                     1.84197   1.39787  -0.04031 
 1                    -0.85559   2.04177  -0.00316 
 1                    -0.85438  -2.08337  -0.04464 
 1                     1.76133  -1.33423  -0.02368 
 
 NAtoms=      9 NQM=        9 NQMF=       0 NMMI=      0 NMMIF=      0
                NMic=       0 NMicF=      0.
                    Isotopes and Nuclear Properties:
 (Nuclear quadrupole moments (NQMom) in fm**2, nuclear magnetic moments (NMagM)
  in nuclear magnetons)

  Atom         1           2           3           4           5           6           7           8           9
 IAtWgt=          12          12          16          12          12           1           1           1           1
 AtmWgt=  12.0000000  12.0000000  15.9949146  12.0000000  12.0000000   1.0078250   1.0078250   1.0078250   1.0078250
 NucSpn=           0           0           0           0           0           1           1           1           1
 AtZEff=   0.0000000   0.0000000   0.0000000   0.0000000   0.0000000   0.0000000   0.0000000   0.0000000   0.0000000
 NQMom=    0.0000000   0.0000000   0.0000000   0.0000000   0.0000000   0.0000000   0.0000000   0.0000000   0.0000000
 NMagM=    0.0000000   0.0000000   0.0000000   0.0000000   0.0000000   2.7928460   2.7928460   2.7928460   2.7928460
 AtZNuc=   6.0000000   6.0000000   8.0000000   6.0000000   6.0000000   1.0000000   1.0000000   1.0000000   1.0000000
 Leave Link  101 at Tue Dec 15 17:09:02 2015, MaxMem=    33554432 cpu:         0.1
 (Enter /home/Applications/g09/g09/l103.exe)

 GradGradGradGradGradGradGradGradGradGradGradGradGradGradGradGradGradGrad
 Berny optimization.
 Initialization pass.
 Trust Radius=3.00D-01 FncErr=1.00D-07 GrdErr=1.00D-07
 Number of steps in this run=      2 maximum allowed number of steps=      2.
 GradGradGradGradGradGradGradGradGradGradGradGradGradGradGradGradGradGrad

 Leave Link  103 at Tue Dec 15 17:09:02 2015, MaxMem=    33554432 cpu:         0.0
 (Enter /home/Applications/g09/g09/l202.exe)
                          Input orientation:                          
 ---------------------------------------------------------------------
 Center     Atomic      Atomic             Coordinates (Angstroms)
 Number     Number       Type             X           Y           Z
 ---------------------------------------------------------------------
      1          6           0        0.925731   -0.744579    0.039015
      2          6           0       -0.380357   -1.114501    0.031671
      3          8           0       -1.170762   -0.013737    0.007892
      4          6           0       -0.301526    1.091852    0.026696
      5          6           0        0.959101    0.708926   -0.009426
      6          1           0        1.841970    1.397872   -0.040313
      7          1           0       -0.855593    2.041767   -0.003163
      8          1           0       -0.854377   -2.083368   -0.044637
      9          1           0        1.761327   -1.334228   -0.023680
 ---------------------------------------------------------------------
                    Distance matrix (angstroms):
                    1          2          3          4          5
     1  C    0.000000
     2  C    1.357484   0.000000
     3  O    2.220446   1.355355   0.000000
     4  C    2.208798   2.207766   1.406503   0.000000
     5  C    1.454695   2.262901   2.249191   1.317998   0.000000
     6  H    2.331498   3.354987   3.327389   2.166267   1.120294
     7  H    3.307358   3.192035   2.079555   1.100100   2.251581
     8  H    2.228932   1.081305   2.094333   3.223780   3.329692
     9  H    1.024616   2.153637   3.215873   3.184928   2.195051
                    6          7          8          9
     6  H    0.000000
     7  H    2.773595   0.000000
     8  H    4.403333   4.125344   0.000000
     9  H    2.733341   4.271538   2.720948   0.000000
 Stoichiometry    C4H4O
 Framework group  C1[X(C4H4O)]
 Deg. of freedom    21
 Full point group                 C1      NOp   1
 Largest Abelian subgroup         C1      NOp   1
 Largest concise Abelian subgroup C1      NOp   1
                         Standard orientation:                         
 ---------------------------------------------------------------------
 Center     Atomic      Atomic             Coordinates (Angstroms)
 Number     Number       Type             X           Y           Z
 ---------------------------------------------------------------------
      1          6           0       -0.376584    1.124644   -0.024671
      2          6           0       -1.163767    0.018786   -0.011134
      3          8           0       -0.392425   -1.095488    0.009137
      4          6           0        0.940801   -0.648277   -0.018496
      5          6           0        1.003911    0.667765    0.015701
      6          1           0        1.949612    1.267863    0.039996
      7          1           0        1.649509   -1.489261    0.007927
      8          1           0       -2.235078   -0.102056    0.071992
      9          1           0       -0.650812    2.109852    0.038586
 ---------------------------------------------------------------------
 Rotational constants (GHZ):      9.6026267      9.0800344      4.6691501
 Leave Link  202 at Tue Dec 15 17:09:02 2015, MaxMem=    33554432 cpu:         0.0
 (Enter /home/Applications/g09/g09/l301.exe)

 Semi-emprical parameters in input format:
 Method=8 CoreType=1 PeptideFC=0.0106250000 RIJScale=0.5404210000
 ****
 H       
 PQN=1 NValence=1 F0ss=0.4721550000 ZetaOverlap=1.0856700000 U=-0.4188110000
 Beta=-0.2268830000 CoreKO=1.0354420000 KON=0,0,0,1.0458670000 KON=1,0,1,1.0589200000
 KON=0,1,1,1.0589200000 KON=2,1,1,1.0697690000 EISol=-0.4188110042 EHeat=0.0830298228
 Alpha=1.4609850000
 GCore=0.0085280000,1.5127750000,2.2676710000
 GCore=0.0003530000,1.4368830000,3.4779940000
 GCore=-0.0013010000,0.5600570000,3.5861320000
 ****
 C       
 PQN=2,2 NValence=4 F0ss=0.4494440000 F0sp=0.4261420000 F0pp=0.3388090000 F2pp=0.1878900000
 G1sp=0.2701540000
 ZetaOverlap=1.8086650000,1.3781170000
 U=-1.7687090000,-1.4557970000
 Beta=-0.5453250000,-0.3336900000 DDN=0,1,0.7474020000 DDN=1,1,0.7268010000
 CoreKO=1.0227200000 KON=0,0,0,1.1124280000 KON=1,0,1,0.8473510000 KON=0,1,1,1.1124280000
 KON=2,1,1,0.8516400000 EISol=-4.4398989268 EHeat=0.2723305520 Alpha=1.2756240000
 DipHyp=1.4947180026
 GCore=0.0007890000,1.3361580000,2.6678360000
 GCore=0.0028980000,1.4001430000,3.2840710000
 GCore=-0.0015090000,1.3827320000,3.8739390000
 GCore=-0.0001030000,1.4001430000,4.6088130000
 ****
 O       
 PQN=2,2 NValence=6 F0ss=0.5666750000 F0sp=0.5321300000 F0pp=0.4958710000 F2pp=0.2358080000
 G1sp=0.4216980000
 ZetaOverlap=2.6354490000,2.5240390000
 U=-3.5951870000,-2.0345890000
 Beta=-1.1573400000,-1.2994290000 DDN=0,1,0.4953610000 DDN=1,1,0.4852320000
 CoreKO=0.8515990000 KON=0,0,0,0.8822960000 KON=1,0,1,0.5019540000 KON=0,1,1,0.8671530000
 KON=2,1,1,0.5515580000 EISol=-11.6164441184 EHeat=0.0949133088 Alpha=2.4031680000
 DipHyp=0.9906650029
 GCore=0.0204720000,1.2640290000,1.6023330000
 GCore=0.0051530000,1.9602000000,2.7307880000
 ****
 
 Standard basis: VSTO-6G (5D, 7F)
 Ernie: Thresh=  0.10000D-02 Tol=  0.10000D-05 Strict=F.
  NNHCO=     0 NNPyr=     0 NCTC=     0               EPep=         0.000000000
    EC=        69.944951410  ECS=         2.510339029   EG=         0.355026532
   EHC=         0.000000000  EAt=       -31.051283842  AtH=         1.516354808
 EPDDG=         0.000000000  ECC=        72.810316971 EAtT=        32.567638650
 There are    24 symmetry adapted cartesian basis functions of A   symmetry.
 There are    24 symmetry adapted basis functions of A   symmetry.
    24 basis functions,   144 primitive gaussians,    24 cartesian basis functions
    13 alpha electrons       13 beta electrons
       nuclear repulsion energy       105.3779556212 Hartrees.
 IExCor=    0 DFT=F Ex=HF Corr=None ExCW=0 ScaHFX=  1.000000
 ScaDFX=  1.000000  1.000000  1.000000  1.000000 ScalE2=  1.000000  1.000000
 IRadAn=      0 IRanWt=     -1 IRanGd=            0 ICorTp=0 IEmpDi=  4
 Integral buffers will be    131072 words long.
 Regular integral format.
 Two-electron integral symmetry is turned off.
 Leave Link  301 at Tue Dec 15 17:09:03 2015, MaxMem=    33554432 cpu:         0.0
 (Enter /home/Applications/g09/g09/l302.exe)
 Do NDO integrals.
 NPDir=0 NMtPBC=     1 NCelOv=     1 NCel=       1 NClECP=     1 NCelD=      1
         NCelK=      1 NCelE2=     1 NClLst=     1 CellRange=     0.0.
 One-electron integrals computed using PRISM.
 NBasis=    24 RedAO= F EigKep=  0.00D+00  NBF=    24
 NBsUse=    24 1.00D-04 EigRej=  0.00D+00 NBFU=    24
 Leave Link  302 at Tue Dec 15 17:09:03 2015, MaxMem=    33554432 cpu:         0.0
 (Enter /home/Applications/g09/g09/l308.exe)
 Leave Link  308 at Tue Dec 15 17:09:03 2015, MaxMem=    33554432 cpu:         0.0
 (Enter /home/Applications/g09/g09/l303.exe)
 DipDrv:  MaxL=1.
 Leave Link  303 at Tue Dec 15 17:09:03 2015, MaxMem=    33554432 cpu:         0.0
 (Enter /home/Applications/g09/g09/l401.exe)
 Simple Huckel Guess.
 JPrj=0 DoOrth=F DoCkMO=F.
 Leave Link  401 at Tue Dec 15 17:09:03 2015, MaxMem=    33554432 cpu:         0.0
 (Enter /home/Applications/g09/g09/l502.exe)
 Closed shell SCF:
 Using DIIS extrapolation, IDIIS=  1040.
 Overlap will be assumed to be unity.
 Two-electron integral symmetry not used.
 Keep J ints in memory in canonical form, NReq=888082.
 IVT=       79475 IEndB=       79475 NGot=    33554432 MDV=    33473473
 LenX=    33473473 LenY=    33472456
 Requested convergence on RMS density matrix=1.00D-08 within 128 cycles.
 Requested convergence on MAX density matrix=1.00D-06.
 Requested convergence on             energy=1.00D-06.
 No special actions if energy rises.
 FoFCou: FMM=F IPFlag=           0 FMFlag=           0 FMFlg1=           0
         NFxFlg=           0 DoJE=F BraDBF=F KetDBF=F FulRan=T
         wScrn=  0.000000 ICntrl=     600 IOpCl=  2 I1Cent=           0 NGrid=           0
         NMat0=    1 NMatS0=     54 NMatT0=    0 NMatD0=    1 NMtDS0=    0 NMtDT0=    0
 Symmetry not used in FoFCou.

 Cycle   1  Pass 1  IDiag  1:
 E=  4.15327016284276    
 DIIS: error= 1.54D-01 at cycle   1 NSaved=   1.
 NSaved= 1 IEnMin= 1 EnMin=  4.15327016284276     IErMin= 1 ErrMin= 1.54D-01
 ErrMax= 1.54D-01  0.00D+00 EMaxC= 1.00D-01 BMatC= 4.85D-01 BMatP= 4.85D-01
 IDIUse=3 WtCom= 0.00D+00 WtEn= 1.00D+00
 Coeff-Com:  0.100D+01
 Coeff-En:   0.100D+01
 Coeff:      0.100D+01
 GapD=    2.000 DampG=2.000 DampE=0.250 DampFc=0.5000 IDamp=-1.
 Damping current iteration by 5.00D-01
 RMSDP=6.63D-02 MaxDP=7.27D-01              OVMax= 0.00D+00

 Cycle   2  Pass 1  IDiag  1:
 E=  3.12867810785754     Delta-E=       -1.024592054985 Rises=F Damp=T
 DIIS: error= 8.37D-02 at cycle   2 NSaved=   2.
 NSaved= 2 IEnMin= 2 EnMin=  3.12867810785754     IErMin= 2 ErrMin= 8.37D-02
 ErrMax= 8.37D-02  0.00D+00 EMaxC= 1.00D-01 BMatC= 1.64D-01 BMatP= 4.85D-01
 IDIUse=3 WtCom= 1.63D-01 WtEn= 8.37D-01
 Coeff-Com: -0.111D+01 0.211D+01
 Coeff-En:   0.000D+00 0.100D+01
 Coeff:     -0.181D+00 0.118D+01
 RMSDP=3.67D-02 MaxDP=3.68D-01 DE=-1.02D+00 OVMax= 0.00D+00

 Cycle   3  Pass 1  IDiag  1:
 E=  1.86564712700050     Delta-E=       -1.263030980857 Rises=F Damp=F
 DIIS: error= 1.69D-02 at cycle   3 NSaved=   3.
 NSaved= 3 IEnMin= 3 EnMin=  1.86564712700050     IErMin= 3 ErrMin= 1.69D-02
 ErrMax= 1.69D-02  0.00D+00 EMaxC= 1.00D-01 BMatC= 1.24D-02 BMatP= 1.64D-01
 IDIUse=3 WtCom= 8.31D-01 WtEn= 1.69D-01
 Coeff-Com:  0.360D+00-0.783D+00 0.142D+01
 Coeff-En:   0.000D+00 0.000D+00 0.100D+01
 Coeff:      0.299D+00-0.650D+00 0.135D+01
 RMSDP=1.04D-02 MaxDP=5.59D-02 DE=-1.26D+00 OVMax= 0.00D+00

 Cycle   4  Pass 1  IDiag  3:
 E=  1.81673045820091     Delta-E=       -0.048916668800 Rises=F Damp=F
 DIIS: error= 5.49D-03 at cycle   4 NSaved=   4.
 NSaved= 4 IEnMin= 4 EnMin=  1.81673045820091     IErMin= 4 ErrMin= 5.49D-03
 ErrMax= 5.49D-03  0.00D+00 EMaxC= 1.00D-01 BMatC= 1.18D-03 BMatP= 1.24D-02
 IDIUse=3 WtCom= 9.45D-01 WtEn= 5.49D-02
 Coeff-Com: -0.662D-01 0.120D+00-0.433D+00 0.138D+01
 Coeff-En:   0.000D+00 0.000D+00 0.000D+00 0.100D+01
 Coeff:     -0.625D-01 0.114D+00-0.409D+00 0.136D+01
 Gap=     0.402 Goal=   None    Shift=    0.000
 RMSDP=4.12D-03 MaxDP=2.30D-02 DE=-4.89D-02 OVMax= 4.41D-02

 Cycle   5  Pass 1  IDiag  3:
 E=  1.81129296939555     Delta-E=       -0.005437488805 Rises=F Damp=F
 DIIS: error= 1.34D-03 at cycle   5 NSaved=   5.
 NSaved= 5 IEnMin= 5 EnMin=  1.81129296939555     IErMin= 5 ErrMin= 1.34D-03
 ErrMax= 1.34D-03  0.00D+00 EMaxC= 1.00D-01 BMatC= 5.63D-05 BMatP= 1.18D-03
 IDIUse=3 WtCom= 9.87D-01 WtEn= 1.34D-02
 Coeff-Com:  0.192D-01-0.332D-01 0.143D+00-0.608D+00 0.148D+01
 Coeff-En:   0.000D+00 0.000D+00 0.000D+00 0.000D+00 0.100D+01
 Coeff:      0.189D-01-0.328D-01 0.141D+00-0.600D+00 0.147D+01
 Gap=     0.402 Goal=   None    Shift=    0.000
 RMSDP=1.01D-03 MaxDP=5.24D-03 DE=-5.44D-03 OVMax= 8.76D-03

 Cycle   6  Pass 1  IDiag  3:
 E=  1.81100605668384     Delta-E=       -0.000286912712 Rises=F Damp=F
 DIIS: error= 2.56D-04 at cycle   6 NSaved=   6.
 NSaved= 6 IEnMin= 6 EnMin=  1.81100605668384     IErMin= 6 ErrMin= 2.56D-04
 ErrMax= 2.56D-04  0.00D+00 EMaxC= 1.00D-01 BMatC= 2.08D-06 BMatP= 5.63D-05
 IDIUse=3 WtCom= 9.97D-01 WtEn= 2.56D-03
 Coeff-Com: -0.114D-02 0.236D-02-0.318D-01 0.156D+00-0.533D+00 0.141D+01
 Coeff-En:   0.000D+00 0.000D+00 0.000D+00 0.000D+00 0.000D+00 0.100D+01
 Coeff:     -0.114D-02 0.235D-02-0.317D-01 0.155D+00-0.531D+00 0.141D+01
 Gap=     0.403 Goal=   None    Shift=    0.000
 RMSDP=1.94D-04 MaxDP=1.30D-03 DE=-2.87D-04 OVMax= 1.22D-03

 Cycle   7  Pass 1  IDiag  3:
 E=  1.81099637588710     Delta-E=       -0.000009680797 Rises=F Damp=F
 DIIS: error= 4.34D-05 at cycle   7 NSaved=   7.
 NSaved= 7 IEnMin= 7 EnMin=  1.81099637588710     IErMin= 7 ErrMin= 4.34D-05
 ErrMax= 4.34D-05  0.00D+00 EMaxC= 1.00D-01 BMatC= 5.51D-08 BMatP= 2.08D-06
 IDIUse=1 WtCom= 1.00D+00 WtEn= 0.00D+00
 Coeff-Com:  0.128D-03-0.268D-03 0.114D-01-0.602D-01 0.226D+00-0.678D+00
 Coeff-Com:  0.150D+01
 Coeff:      0.128D-03-0.268D-03 0.114D-01-0.602D-01 0.226D+00-0.678D+00
 Coeff:      0.150D+01
 Gap=     0.402 Goal=   None    Shift=    0.000
 RMSDP=2.75D-05 MaxDP=1.93D-04 DE=-9.68D-06 OVMax= 2.02D-04

 Cycle   8  Pass 1  IDiag  3:
 E=  1.81099614625643     Delta-E=       -0.000000229631 Rises=F Damp=F
 DIIS: error= 7.30D-06 at cycle   8 NSaved=   8.
 NSaved= 8 IEnMin= 8 EnMin=  1.81099614625643     IErMin= 8 ErrMin= 7.30D-06
 ErrMax= 7.30D-06  0.00D+00 EMaxC= 1.00D-01 BMatC= 1.14D-09 BMatP= 5.51D-08
 IDIUse=1 WtCom= 1.00D+00 WtEn= 0.00D+00
 Coeff-Com:  0.119D-04-0.588D-04-0.152D-02 0.944D-02-0.414D-01 0.134D+00
 Coeff-Com: -0.374D+00 0.127D+01
 Coeff:      0.119D-04-0.588D-04-0.152D-02 0.944D-02-0.414D-01 0.134D+00
 Coeff:     -0.374D+00 0.127D+01
 Gap=     0.403 Goal=   None    Shift=    0.000
 RMSDP=3.55D-06 MaxDP=2.94D-05 DE=-2.30D-07 OVMax= 2.29D-05

 Cycle   9  Pass 1  IDiag  3:
 E=  1.81099614209137     Delta-E=       -0.000000004165 Rises=F Damp=F
 DIIS: error= 1.28D-06 at cycle   9 NSaved=   9.
 NSaved= 9 IEnMin= 9 EnMin=  1.81099614209137     IErMin= 9 ErrMin= 1.28D-06
 ErrMax= 1.28D-06  0.00D+00 EMaxC= 1.00D-01 BMatC= 2.84D-11 BMatP= 1.14D-09
 IDIUse=1 WtCom= 1.00D+00 WtEn= 0.00D+00
 Coeff-Com:  0.470D-05-0.167D-05 0.117D-03-0.822D-03 0.440D-02-0.145D-01
 Coeff-Com:  0.456D-01-0.271D+00 0.124D+01
 Coeff:      0.470D-05-0.167D-05 0.117D-03-0.822D-03 0.440D-02-0.145D-01
 Coeff:      0.456D-01-0.271D+00 0.124D+01
 Gap=     0.403 Goal=   None    Shift=    0.000
 RMSDP=5.90D-07 MaxDP=4.39D-06 DE=-4.17D-09 OVMax= 4.20D-06

 Cycle  10  Pass 1  IDiag  3:
 E=  1.81099614197133     Delta-E=       -0.000000000120 Rises=F Damp=F
 DIIS: error= 3.31D-07 at cycle  10 NSaved=  10.
 NSaved=10 IEnMin=10 EnMin=  1.81099614197133     IErMin=10 ErrMin= 3.31D-07
 ErrMax= 3.31D-07  0.00D+00 EMaxC= 1.00D-01 BMatC= 1.84D-12 BMatP= 2.84D-11
 IDIUse=1 WtCom= 1.00D+00 WtEn= 0.00D+00
 Coeff-Com:  0.129D-05-0.333D-05-0.109D-04 0.105D-03-0.719D-03 0.230D-02
 Coeff-Com: -0.842D-02 0.662D-01-0.447D+00 0.139D+01
 Coeff:      0.129D-05-0.333D-05-0.109D-04 0.105D-03-0.719D-03 0.230D-02
 Coeff:     -0.842D-02 0.662D-01-0.447D+00 0.139D+01
 Gap=     0.403 Goal=   None    Shift=    0.000
 RMSDP=1.88D-07 MaxDP=1.92D-06 DE=-1.20D-10 OVMax= 2.07D-06

 Cycle  11  Pass 1  IDiag  3:
 E=  1.81099614196118     Delta-E=       -0.000000000010 Rises=F Damp=F
 DIIS: error= 9.06D-08 at cycle  11 NSaved=  11.
 NSaved=11 IEnMin=11 EnMin=  1.81099614196118     IErMin=11 ErrMin= 9.06D-08
 ErrMax= 9.06D-08  0.00D+00 EMaxC= 1.00D-01 BMatC= 2.11D-13 BMatP= 1.84D-12
 IDIUse=1 WtCom= 1.00D+00 WtEn= 0.00D+00
 Coeff-Com: -0.937D-06 0.189D-05-0.295D-06-0.139D-04 0.185D-03-0.536D-03
 Coeff-Com:  0.276D-02-0.304D-01 0.242D+00-0.100D+01 0.179D+01
 Coeff:     -0.937D-06 0.189D-05-0.295D-06-0.139D-04 0.185D-03-0.536D-03
 Coeff:      0.276D-02-0.304D-01 0.242D+00-0.100D+01 0.179D+01
 Gap=     0.403 Goal=   None    Shift=    0.000
 RMSDP=8.89D-08 MaxDP=9.30D-07 DE=-1.01D-11 OVMax= 1.04D-06

 Cycle  12  Pass 1  IDiag  3:
 E=  1.81099614195968     Delta-E=       -0.000000000002 Rises=F Damp=F
 DIIS: error= 1.72D-08 at cycle  12 NSaved=  12.
 NSaved=12 IEnMin=12 EnMin=  1.81099614195968     IErMin=12 ErrMin= 1.72D-08
 ErrMax= 1.72D-08  0.00D+00 EMaxC= 1.00D-01 BMatC= 1.05D-14 BMatP= 2.11D-13
 IDIUse=1 WtCom= 1.00D+00 WtEn= 0.00D+00
 Coeff-Com:  0.590D-07-0.117D-06 0.642D-06-0.226D-05-0.254D-04 0.398D-04
 Coeff-Com: -0.564D-03 0.963D-02-0.855D-01 0.391D+00-0.883D+00 0.157D+01
 Coeff:      0.590D-07-0.117D-06 0.642D-06-0.226D-05-0.254D-04 0.398D-04
 Coeff:     -0.564D-03 0.963D-02-0.855D-01 0.391D+00-0.883D+00 0.157D+01
 Gap=     0.403 Goal=   None    Shift=    0.000
 RMSDP=1.95D-08 MaxDP=1.83D-07 DE=-1.51D-12 OVMax= 1.99D-07

 Cycle  13  Pass 1  IDiag  3:
 E=  1.81099614195962     Delta-E=        0.000000000000 Rises=F Damp=F
 DIIS: error= 1.89D-09 at cycle  13 NSaved=  13.
 NSaved=13 IEnMin=13 EnMin=  1.81099614195962     IErMin=13 ErrMin= 1.89D-09
 ErrMax= 1.89D-09  0.00D+00 EMaxC= 1.00D-01 BMatC= 2.12D-16 BMatP= 1.05D-14
 IDIUse=1 WtCom= 1.00D+00 WtEn= 0.00D+00
 Coeff-Com:  0.134D-07-0.209D-07 0.198D-07-0.203D-06 0.110D-04-0.195D-04
 Coeff-Com:  0.192D-03-0.311D-02 0.273D-01-0.126D+00 0.297D+00-0.611D+00
 Coeff-Com:  0.141D+01
 Coeff:      0.134D-07-0.209D-07 0.198D-07-0.203D-06 0.110D-04-0.195D-04
 Coeff:      0.192D-03-0.311D-02 0.273D-01-0.126D+00 0.297D+00-0.611D+00
 Coeff:      0.141D+01
 Gap=     0.403 Goal=   None    Shift=    0.000
 RMSDP=1.88D-09 MaxDP=8.42D-09 DE=-5.68D-14 OVMax= 1.23D-08

 Cycle  14  Pass 2  IDiag  1:
 SCF Done:  E(RAM1) =   1.81099614196     A.U. after   14 cycles
            NFock= 13  Conv=0.19D-08     -V/T= 1.1158
 KE=-1.563434150647D+01 PE=-1.702128535629D+02 EE= 8.228023559006D+01
 Leave Link  502 at Tue Dec 15 17:09:03 2015, MaxMem=    33554432 cpu:         0.0
 (Enter /home/Applications/g09/g09/l801.exe)
 Range of M.O.s used for correlation:     1    24
 NBasis=    24 NAE=    13 NBE=    13 NFC=     0 NFV=     0
 NROrb=     24 NOA=    13 NOB=    13 NVA=    11 NVB=    11
 Leave Link  801 at Tue Dec 15 17:09:03 2015, MaxMem=    33554432 cpu:         0.0
 (Enter /home/Applications/g09/g09/l914.exe)
 RHF ground state
 MDV=    33554432 DFT=F DoStab=F Mixed=F DoRPA=F DoScal=F NonHer=F
 Making orbital integer symmetry assigments:
 Orbital symmetries:
       Occupied  (A) (A) (A) (A) (A) (A) (A) (A) (A) (A) (A) (A)
                 (A)
       Virtual   (A) (A) (A) (A) (A) (A) (A) (A) (A) (A) (A)
    60 initial guesses have been made.
 Convergence on wavefunction:    0.000001000000000
 Davidson Disk Diagonalization:  ConvIn= 1.00D-06 SkipCon=T Conv= 1.00D-06.
 Max sub-space:   240 roots to seek:    60 dimension of matrix:          286
 Iteration     1 Dimension    60 NMult     0 NNew     60
 CISAX will form    60 AO SS matrices at one time.
 NMat=    60 NSing=    60 JSym2X= 0.
 FoFJK:  IHMeth= 8 ICntrl=       0 DoSepK=F KAlg= 0 I1Cent=   0 FoldK=F
 IRaf=         1 NMat= 120 IRICut=       1 DoRegI=T DoRafI=F ISym2E= 0.
 FoFCou: FMM=F IPFlag=           0 FMFlag=      100000 FMFlg1=           0
         NFxFlg=           0 DoJE=F BraDBF=F KetDBF=F FulRan=T
         wScrn=  0.000000 ICntrl=       0 IOpCl=  0 I1Cent=           0 NGrid=           0
         NMat0=  120 NMatS0=     60 NMatT0=    0 NMatD0=  120 NMtDS0=    0 NMtDT0=    0
 Symmetry not used in FoFCou.
 New state      5 was old state      6
 New state      6 was old state      7
 New state      7 was old state      5
 New state     11 was old state     14
 New state     12 was old state     11
 New state     13 was old state     15
 New state     14 was old state     12
 New state     15 was old state     18
 Excitation Energies [eV] at current iteration:
 Root      1 :     5.394944963907007
 Root      2 :     6.585512599620434
 Root      3 :     6.621618098579745
 Root      4 :     7.420486341912476
 Root      5 :     8.004989433452801
 Root      6 :     8.282402360813876
 Root      7 :     8.772279682525388
 Root      8 :     9.178279876310555
 Root      9 :     9.367479688135459
 Root     10 :     9.934660978712373
 Root     11 :    10.297274209168190
 Root     12 :    10.322889072679310
 Root     13 :    10.401288980786120
 Root     14 :    10.489789108318610
 Root     15 :    10.648710605056010
 Root     16 :    10.852692850203880
 Root     17 :    11.129124124887870
 Root     18 :    11.252631595854730
 Root     19 :    11.423220475513860
 Root     20 :    11.460843527368100
 Root     21 :    11.856007082652210
 Root     22 :    12.099015265868080
 Root     23 :    12.260906248234630
 Root     24 :    12.352671741784060
 Root     25 :    12.699020503532250
 Root     26 :    12.777960713662100
 Root     27 :    12.798263834630440
 Root     28 :    13.323043155345190
 Root     29 :    13.365453841723630
 Root     30 :    13.435393936230880
 Root     31 :    13.620169374386220
 Root     32 :    13.885158984341370
 Root     33 :    13.950169952140270
 Root     34 :    14.073709454470930
 Root     35 :    14.099744208001760
 Root     36 :    14.303123857799460
 Root     37 :    14.312426756848780
 Root     38 :    14.439590487114130
 Root     39 :    14.471146770638750
 Root     40 :    14.673327775589060
 Root     41 :    14.952329550514370
 Root     42 :    15.093600839239870
 Root     43 :    15.173198814765270
 Root     44 :    15.766017903692310
 Root     45 :    15.833990298048060
 Root     46 :    15.939810835494360
 Root     47 :    16.057178294813790
 Root     48 :    16.180345808209330
 Root     49 :    16.395465858835240
 Root     50 :    16.445112301846260
 Root     51 :    16.592016229614600
 Root     52 :    16.637628718417740
 Root     53 :    16.791682285323320
 Root     54 :    17.247519822706060
 Root     55 :    17.332792820054220
 Root     56 :    17.447149465528490
 Root     57 :    17.830554394944630
 Root     58 :    18.092258579884100
 Root     59 :    18.289802532501440
 Root     60 :    18.447095545019070
 Iteration     2 Dimension   120 NMult    60 NNew     60
 CISAX will form    60 AO SS matrices at one time.
 NMat=    60 NSing=    60 JSym2X= 0.
 Root      1 not converged, maximum delta is    0.020149602768997
 Root      2 not converged, maximum delta is    0.019633482229647
 Root      3 not converged, maximum delta is    0.022172103726055
 Root      4 not converged, maximum delta is    0.026336911729433
 Root      5 not converged, maximum delta is    0.033792507078330
 Root      6 not converged, maximum delta is    0.015460889339205
 Root      7 not converged, maximum delta is    0.016514796508450
 Root      8 not converged, maximum delta is    0.022917686096292
 Root      9 not converged, maximum delta is    0.020506646074510
 Root     10 not converged, maximum delta is    0.099185880031694
 New state     11 was old state     13
 Root     11 not converged, maximum delta is    0.323428830718180
 New state     12 was old state     11
 Root     12 not converged, maximum delta is    0.089440541554550
 New state     13 was old state     12
 Root     13 not converged, maximum delta is    0.200406804679571
 Root     14 not converged, maximum delta is    0.046088829096968
 Root     15 not converged, maximum delta is    0.036921538270558
 Excitation Energies [eV] at current iteration:
 Root      1 :     5.309863600012132   Change is   -0.085081363894876
 Root      2 :     6.554877187993302   Change is   -0.030635411627131
 Root      3 :     6.590597212077001   Change is   -0.031020886502743
 Root      4 :     7.393510727747454   Change is   -0.026975614165022
 Root      5 :     7.972668917482490   Change is   -0.032320515970310
 Root      6 :     8.269068623256143   Change is   -0.013333737557734
 Root      7 :     8.754908332360792   Change is   -0.017371350164597
 Root      8 :     9.139068418045685   Change is   -0.039211458264868
 Root      9 :     9.343430702119340   Change is   -0.024048986016119
 Root     10 :     9.698616002425627   Change is   -0.236044976286744
 Root     11 :    10.240580951777440   Change is   -0.160708029008677
 Root     12 :    10.258573338700120   Change is   -0.038700870468072
 Root     13 :    10.272195345759890   Change is   -0.050693726919424
 Root     14 :    10.423133028063970   Change is   -0.066656080254644
 Root     15 :    10.610176082983430   Change is   -0.038534522072586
 Root     16 :    10.834928811556740   Change is   -0.017764038647140
 Root     17 :    10.900365560892750   Change is   -0.228758563995118
 Root     18 :    11.139475745737470   Change is   -0.113155850117253
 Root     19 :    11.219746084126410   Change is   -0.203474391387449
 Root     20 :    11.351874779166950   Change is   -0.108968748201154
 Root     21 :    11.636683086037270   Change is   -0.219323996614941
 Root     22 :    12.002819673097280   Change is   -0.258086575137350
 Root     23 :    12.055497147674600   Change is   -0.043518118193486
 Root     24 :    12.160952063757020   Change is   -0.191719678027033
 Root     25 :    12.416631089693610   Change is   -0.282389413838637
 Root     26 :    12.605560171337190   Change is   -0.192703663293245
 Root     27 :    12.672619274968000   Change is   -0.105341438694100
 Root     28 :    13.158103644074610   Change is   -0.164939511270581
 Root     29 :    13.241900843473900   Change is   -0.193493092756975
 Root     30 :    13.305273480185060   Change is   -0.060180361538575
 Root     31 :    13.433356104888250   Change is   -0.186813269497967
 Root     32 :    13.648692521982270   Change is   -0.301477430157999
 Root     33 :    13.746841297186140   Change is   -0.138317687155232
 Root     34 :    13.828033196559480   Change is   -0.271711011442277
 Root     35 :    13.932293633075150   Change is   -0.141415821395771
 Root     36 :    14.036991206911820   Change is   -0.402599280202317
 Root     37 :    14.101448494066400   Change is   -0.369698276572349
 Root     38 :    14.181495020485920   Change is   -0.130931736362862
 Root     39 :    14.201152364763730   Change is   -0.101971493035733
 Root     40 :    14.585526986732970   Change is   -0.087800788856087
 Root     41 :    14.687870301397960   Change is   -0.264459249116404
 Root     42 :    14.975804705511560   Change is   -0.197394109253708
 Root     43 :    15.020738702851990   Change is   -0.072862136387882
 Root     44 :    15.511677217440860   Change is   -0.322313080607198
 Root     45 :    15.657709237217980   Change is   -0.108308666474327
 Root     46 :    15.693835809462950   Change is   -0.363342485350839
 Root     47 :    15.859584660053040   Change is   -0.080226175441313
 Root     48 :    16.010121241755660   Change is   -0.170224566453672
 Root     49 :    16.059546666164090   Change is   -0.335919192671150
 Root     50 :    16.125442201218620   Change is   -0.319670100627643
 Root     51 :    16.372231502893170   Change is   -0.265397215524573
 Root     52 :    16.430166546361220   Change is   -0.361515738962098
 Root     53 :    16.471609227771580   Change is   -0.120407001843024
 Root     54 :    16.767532260142620   Change is   -0.565260559911601
 Root     55 :    16.999986221308350   Change is   -0.247533601397712
 Root     56 :    17.065017787024670
 Root     57 :    17.263508932806610   Change is   -0.567045462138027
 Root     58 :    17.361309421086360   Change is   -0.085840044442133
 Root     59 :    17.604070835447060   Change is   -0.843024709572004
 Root     60 :    17.759352115888220   Change is   -0.332906463995880
 Iteration     3 Dimension   135 NMult   120 NNew     15
 CISAX will form    15 AO SS matrices at one time.
 NMat=    15 NSing=    15 JSym2X= 0.
 Root      1 not converged, maximum delta is    0.001886729417197
 Root      2 not converged, maximum delta is    0.000041951376041
 Root      3 not converged, maximum delta is    0.000061609926133
 Root      4 not converged, maximum delta is    0.000077394794381
 Root      5 not converged, maximum delta is    0.000085939187871
 Root      6 not converged, maximum delta is    0.000089118391721
 Root      7 not converged, maximum delta is    0.000098952069518
 Root      8 not converged, maximum delta is    0.000867510111645
 Root      9 not converged, maximum delta is    0.000059226336446
 Root     10 not converged, maximum delta is    0.002027380971531
 Root     11 not converged, maximum delta is    0.001408955457087
 Root     12 not converged, maximum delta is    0.003210891967068
 Root     13 not converged, maximum delta is    0.002629226815152
 Root     14 not converged, maximum delta is    0.000199119718010
 Root     15 not converged, maximum delta is    0.000407386513093
 Excitation Energies [eV] at current iteration:
 Root      1 :     5.309470363948667   Change is   -0.000393236063465
 Root      2 :     6.554876675961630   Change is   -0.000000512031673
 Root      3 :     6.590596179103627   Change is   -0.000001032973375
 Root      4 :     7.393509662318528   Change is   -0.000001065428927
 Root      5 :     7.972667523458954   Change is   -0.000001394023536
 Root      6 :     8.269066388332728   Change is   -0.000002234923413
 Root      7 :     8.754904389315884   Change is   -0.000003943044908
 Root      8 :     9.138832057827781   Change is   -0.000236360217904
 Root      9 :     9.343429531256849   Change is   -0.000001170862491
 Root     10 :     9.697411619197144   Change is   -0.001204383228484
 Root     11 :    10.239857133869490   Change is   -0.000723817907949
 Root     12 :    10.258549786854720   Change is   -0.000023551845401
 Root     13 :    10.271935876810830   Change is   -0.000259468949057
 Root     14 :    10.423124146761670   Change is   -0.000008881302298
 Root     15 :    10.610126325368160   Change is   -0.000049757615265
 Iteration     4 Dimension   143 NMult   135 NNew      8
 CISAX will form     8 AO SS matrices at one time.
 NMat=     8 NSing=     8 JSym2X= 0.
 Root      1 not converged, maximum delta is    0.000056400711245
 Root      2 not converged, maximum delta is    0.000002797115688
 Root      3 not converged, maximum delta is    0.000002586317485
 Root      4 not converged, maximum delta is    0.000003129729701
 Root      5 not converged, maximum delta is    0.000003016542287
 Root      6 not converged, maximum delta is    0.000003569512091
 Root      7 not converged, maximum delta is    0.000004445290608
 Root      8 not converged, maximum delta is    0.000042203350125
 Root      9 not converged, maximum delta is    0.000003361086738
 Root     10 not converged, maximum delta is    0.000084752891099
 Root     11 not converged, maximum delta is    0.000131071056837
 Root     12 not converged, maximum delta is    0.000026415555417
 Root     13 not converged, maximum delta is    0.000109066605597
 Root     14 not converged, maximum delta is    0.000009872954456
 Root     15 not converged, maximum delta is    0.000023476132734
 Excitation Energies [eV] at current iteration:
 Root      1 :     5.309469617076005   Change is   -0.000000746872661
 Root      2 :     6.554876674153802   Change is   -0.000000001807827
 Root      3 :     6.590596177386214   Change is   -0.000000001717413
 Root      4 :     7.393509659293284   Change is   -0.000000003025244
 Root      5 :     7.972667521192591   Change is   -0.000000002266363
 Root      6 :     8.269066387168488   Change is   -0.000000001164241
 Root      7 :     8.754904384427709   Change is   -0.000000004888174
 Root      8 :     9.138831582230864   Change is   -0.000000475596917
 Root      9 :     9.343429530346606   Change is   -0.000000000910242
 Root     10 :     9.697410344604695   Change is   -0.000001274592449
 Root     11 :    10.239855818817970   Change is   -0.000001315051522
 Root     12 :    10.258549707641920   Change is   -0.000000079212796
 Root     13 :    10.271934921156210   Change is   -0.000000955654618
 Root     14 :    10.423124122560530   Change is   -0.000000024201140
 Root     15 :    10.610126238964450   Change is   -0.000000086403708
 Convergence achieved on expansion vectors.
 ***********************************************************************
 Excited states from <AA,BB:AA,BB> singles matrix:
 ***********************************************************************
 
 1PDM for each excited state written to RWF  633
 Ground to excited state transition densities written to RWF  633
 Ground to excited state transition electric dipole moments (Au):
       state          X           Y           Z        Dip. S.      Osc.
         1        -1.5421      0.6077     -0.0620      2.7512      0.3579
         2         0.0073     -0.0151      0.1304      0.0173      0.0028
         3         0.0243     -0.0193      0.1357      0.0194      0.0031
         4        -0.0231      0.0472      0.0033      0.0028      0.0005
         5        -0.0110      0.0077     -0.0360      0.0015      0.0003
         6        -0.0094     -0.0416      0.1930      0.0391      0.0079
         7        -0.0009     -0.0328     -0.2074      0.0441      0.0095
         8         0.2660      0.5305      0.0287      0.3530      0.0790
         9        -0.0371     -0.0143     -0.0666      0.0060      0.0014
        10        -0.1089      0.2840      0.0129      0.0927      0.0220
        11        -0.8561      0.4683     -0.0162      0.9525      0.2389
        12        -0.1572      0.0213      0.2533      0.0893      0.0224
        13        -0.5172     -0.0438     -0.0577      0.2727      0.0686
        14         0.0259      0.0613     -0.5681      0.3272      0.0836
        15        -0.0907     -0.0111     -0.0706      0.0133      0.0035
 Ground to excited state transition velocity dipole moments (Au):
       state          X           Y           Z        Dip. S.      Osc.
         1         0.1698     -0.0709      0.0044      0.0339      0.1157
         2        -0.0085     -0.0001     -0.0972      0.0095      0.0263
         3        -0.0006      0.0062     -0.1639      0.0269      0.0741
         4         0.0078     -0.0159      0.0012      0.0003      0.0008
         5         0.0030      0.0003      0.0092      0.0001      0.0002
         6         0.0052      0.0064     -0.0338      0.0012      0.0027
         7        -0.0037      0.0021      0.0261      0.0007      0.0014
         8        -0.0995     -0.1920     -0.0082      0.0468      0.0930
         9         0.0076      0.0056     -0.0013      0.0001      0.0002
        10         0.0569     -0.0672      0.0161      0.0080      0.0150
        11         0.1359     -0.0453      0.0103      0.0206      0.0365
        12         0.0196     -0.0040      0.0088      0.0005      0.0008
        13         0.0609     -0.0213     -0.0069      0.0042      0.0074
        14        -0.0040     -0.0095     -0.0855      0.0074      0.0129
        15         0.0208      0.0175      0.0646      0.0049      0.0084
 Ground to excited state transition magnetic dipole moments (Au):
       state          X           Y           Z
         1         0.0163     -0.0019     -0.5482
         2        -0.1789     -0.1770      0.0155
         3        -0.0732      0.2099      0.0057
         4        -0.2891     -0.7851     -0.0368
         5         0.3196      0.5888      0.0054
         6        -0.8957      0.3178      0.0013
         7         0.4263     -0.1843      0.0124
         8        -0.0435      0.0842     -0.0149
         9         0.0228     -0.1871     -0.0079
        10        -0.0089      0.0103     -0.1332
        11        -0.0248     -0.0309     -0.1131
        12        -0.0838     -0.0931     -0.0384
        13         0.0427      0.0488     -0.1502
        14        -0.1622     -0.0672      0.0076
        15         0.0369      0.4157     -0.0122
 Ground to excited state transition velocity quadrupole moments (Au):
       state          XX          YY          ZZ          XY          XZ          YZ
         1         0.2025     -0.1989      0.0028      0.2278      0.0144      0.0117
         2         0.0246      0.0019     -0.0085     -0.0098      0.1570     -0.1378
         3         0.0074      0.0125      0.0037      0.0065     -0.1761     -0.0510
         4         0.0094     -0.0437     -0.0088      0.0089     -0.1922      0.0828
         5         0.0173     -0.0110     -0.0108      0.0043     -0.4159      0.1925
         6        -0.0135     -0.0070     -0.0002      0.0177     -0.0070      0.0858
         7        -0.0091     -0.0054      0.0019     -0.0033      0.1389      0.1867
         8         0.1285     -0.2325      0.0348     -0.2214     -0.0162      0.0102
         9         0.0095      0.0140     -0.0077      0.0215     -0.0492      0.0333
        10         0.1571     -0.0585      0.0120     -0.0167     -0.0121      0.0084
        11         0.4881      0.0345      0.0862      0.1043      0.0358     -0.0323
        12        -0.0578     -0.0763     -0.0136      0.0339      0.1004     -0.0504
        13        -0.3377     -0.3187     -0.0815      0.1873     -0.0445      0.0108
        14         0.0155      0.0379     -0.0115     -0.0163      0.0664     -0.1361
        15        -0.0004      0.0098      0.0304     -0.0008     -0.3747      0.0181
 <0|del|b> * <b|rxdel|0> + <0|del|b> * <b|delr+rdel|0>
 Rotatory Strengths (R) in cgs (10**-40 erg-esu-cm/Gauss)
       state          XX          YY          ZZ    R(velocity)    E-M Angle
         1        -0.4547      2.4203     -0.1783      0.5957       89.72
         2        -0.7828      0.3409      0.5148      0.0243       90.00
         3         0.6033      0.3234      0.3288      0.4185       89.32
         4        12.2074     -2.1704     16.4081      8.8150       46.85
         5         0.4911      1.8859      0.5309      0.9693       79.32
         6         1.6765     -4.2696     -3.6397     -2.0776       94.64
         7        -0.4842     -2.0764     -1.0911     -1.2172       97.78
         8       -18.2450      1.7016     -8.1257     -8.2230      124.37
         9        -0.8142      0.4792     -1.4460     -0.5937      118.75
        10        -3.8798     -1.8797     -0.8561     -2.2052      106.15
        11         2.7587     -9.3908      0.7386     -1.9645      100.50
        12         0.6840     -3.0662     -0.6412     -1.0078      124.25
        13        -2.1060      5.2239      1.7344      1.6174       75.87
        14         1.8469     -0.7781      0.1046      0.3911       87.59
        15        11.7755      0.3690      1.0049      4.3831       75.65
 1/2[<0|r|b>*<b|rxdel|0> + (<0|rxdel|b>*<b|r|0>)*]
 Rotatory Strengths (R) in cgs (10**-40 erg-esu-cm/Gauss)
       state          XX          YY          ZZ     R(length)
         1        17.7524      0.8339    -24.0409     -1.8182
         2         0.9183     -1.8909     -1.4324     -0.8017
         3         1.2609      2.8608     -0.5436      1.1927
         4        -4.7165     26.2181      0.0863      7.1960
         5         2.4808     -3.2144      0.1384     -0.1984
         6        -5.9424      9.3473     -0.1706      1.0781
         7         0.2800     -4.2731      1.8157     -0.7258
         8         8.1749    -31.5734      0.3022     -7.6988
         9         0.5985     -1.8980     -0.3717     -0.5571
        10        -0.6834     -2.0595      1.2123     -0.5102
        11       -15.0430     10.2305     -1.2915     -2.0347
        12        -9.3177      1.4024      6.8854     -0.3433
        13        15.6274      1.5118     -6.1297      3.6698
        14         2.9660      2.9116      3.0724      2.9833
        15         2.3675      3.2546     -0.6109      1.6704
  1/2[<0|del|b>*<b|r|0> + (<0|r|b>*<b|del|0>)*] (Au)
       state          X           Y           Z        Dip. S.   Osc.(frdel)
         1        -0.2618     -0.0431     -0.0003      0.3051      0.2034
         2        -0.0001      0.0000     -0.0127      0.0127      0.0085
         3         0.0000     -0.0001     -0.0223      0.0224      0.0149
         4        -0.0002     -0.0007      0.0000      0.0009      0.0006
         5         0.0000      0.0000     -0.0003      0.0004      0.0002
         6         0.0000     -0.0003     -0.0065      0.0068      0.0046
         7         0.0000     -0.0001     -0.0054      0.0055      0.0036
         8        -0.0265     -0.1019     -0.0002      0.1286      0.0857
         9        -0.0003     -0.0001      0.0001      0.0003      0.0002
        10        -0.0062     -0.0191      0.0002      0.0251      0.0167
        11        -0.1163     -0.0212     -0.0002      0.1377      0.0918
        12        -0.0031     -0.0001      0.0022      0.0009      0.0006
        13        -0.0315      0.0009      0.0004      0.0301      0.0201
        14        -0.0001     -0.0006      0.0486     -0.0479     -0.0319
        15        -0.0019     -0.0002     -0.0046      0.0066      0.0044

 Excitation energies and oscillator strengths:
 
 Excited State   1:      Singlet-A      5.3095 eV  233.52 nm  f=0.3579  <S**2>=0.000
      13 -> 14         0.69370
 This state for optimization and/or second-order correction.
 Total Energy, E(CIS) =   2.00611556860    
 Copying the excited state density for this state as the 1-particle RhoCI density.
 
 Excited State   2:      Singlet-A      6.5549 eV  189.15 nm  f=0.0028  <S**2>=0.000
      13 -> 15         0.58056
      13 -> 16         0.34072
      13 -> 17        -0.11175
      13 -> 19        -0.12772
 
 Excited State   3:      Singlet-A      6.5906 eV  188.12 nm  f=0.0031  <S**2>=0.000
      13 -> 15        -0.33270
      13 -> 16         0.58449
      13 -> 17        -0.10661
      13 -> 18        -0.13844
 
 Excited State   4:      Singlet-A      7.3935 eV  167.69 nm  f=0.0005  <S**2>=0.000
      12 -> 14         0.69861
 
 Excited State   5:      Singlet-A      7.9727 eV  155.51 nm  f=0.0003  <S**2>=0.000
      13 -> 15        -0.13085
      13 -> 17        -0.13059
      13 -> 18         0.63705
      13 -> 21         0.19483
 
 Excited State   6:      Singlet-A      8.2691 eV  149.94 nm  f=0.0079  <S**2>=0.000
      10 -> 14         0.16916
      11 -> 14         0.66935
      13 -> 17        -0.11252
 
 Excited State   7:      Singlet-A      8.7549 eV  141.62 nm  f=0.0095  <S**2>=0.000
      10 -> 15        -0.12062
      11 -> 14         0.11954
      13 -> 16         0.13480
      13 -> 17         0.65348
      13 -> 18         0.13305
 
 Excited State   8:      Singlet-A      9.1388 eV  135.67 nm  f=0.0790  <S**2>=0.000
      10 -> 14         0.64323
      11 -> 14        -0.15580
 
 Excited State   9:      Singlet-A      9.3434 eV  132.70 nm  f=0.0014  <S**2>=0.000
      13 -> 15         0.12136
      13 -> 19         0.67869
 
 Excited State  10:      Singlet-A      9.6974 eV  127.85 nm  f=0.0220  <S**2>=0.000
       8 -> 16         0.13045
       9 -> 15         0.10843
      10 -> 14         0.12047
      11 -> 16        -0.16867
      11 -> 17         0.19677
      12 -> 15         0.43803
      12 -> 17        -0.11114
      12 -> 18         0.35078
 
 Excited State  11:      Singlet-A     10.2399 eV  121.08 nm  f=0.2389  <S**2>=0.000
      11 -> 16         0.34193
      11 -> 17        -0.14406
      12 -> 15         0.36640
      12 -> 16        -0.34052
      12 -> 17         0.11297
      12 -> 18        -0.16823
      12 -> 19        -0.10066
 
 Excited State  12:      Singlet-A     10.2585 eV  120.86 nm  f=0.0224  <S**2>=0.000
      13 -> 18        -0.19903
      13 -> 20        -0.38967
      13 -> 21         0.51220
 
 Excited State  13:      Singlet-A     10.2719 eV  120.70 nm  f=0.0686  <S**2>=0.000
      11 -> 15         0.27255
      11 -> 16         0.16547
      12 -> 15         0.26466
      12 -> 16         0.48568
      13 -> 20         0.11307
 
 Excited State  14:      Singlet-A     10.4231 eV  118.95 nm  f=0.0836  <S**2>=0.000
      10 -> 15        -0.13290
      13 -> 20         0.53370
      13 -> 21         0.41546
 
 Excited State  15:      Singlet-A     10.6101 eV  116.85 nm  f=0.0035  <S**2>=0.000
       7 -> 15         0.11528
      10 -> 15         0.22620
      10 -> 16         0.55894
      11 -> 15        -0.16939
      11 -> 16        -0.16840
      13 -> 15         0.11453
 SavETr:  write IOETrn=   770 NScale= 10 NData=  16 NLR=1 NState=   15 LETran=     280.
 The selected state is a singlet
 CISAX will form     1 AO SS matrices at one time.
 NMat=     1 NSing=     1 JSym2X= 0.
 Leave Link  914 at Tue Dec 15 17:09:03 2015, MaxMem=    33554432 cpu:         0.1
 (Enter /home/Applications/g09/g09/l1002.exe)
 Minotr:  Closed shell wavefunction.
          Computing CIS/TD-HF/TD-KS derivatives.
          Using Z-Vector for PSCF gradient.
          Skipping F1 and S1 gradient terms here.
          IDoAtm=111111111
          Direct CPHF calculation.
          Differentiating once with respect to electric field.
                with respect to dipole field.
          Differentiating once with respect to nuclear coordinates.
          Electric field/nuclear overlap derivatives assumed to be zero.
          Requested convergence is 1.0D-10 RMS, and 1.0D-09 maximum.
          NewPWx=T KeepS1=F KeepF1=F KeepIn=T MapXYZ=F SortEE=F KeepMc=T.
          MDV=      33495423 using IRadAn=       0.
 Keep J ints in memory in canonical form, NReq=871704.
 FoFCou: FMM=F IPFlag=           0 FMFlag=           0 FMFlg1=           0
         NFxFlg=           0 DoJE=F BraDBF=F KetDBF=F FulRan=T
         wScrn=  0.000000 ICntrl=     600 IOpCl=  2 I1Cent=           0 NGrid=           0
         NMat0=    1 NMatS0=     54 NMatT0=    0 NMatD0=    1 NMtDS0=    0 NMtDT0=    0
 Symmetry not used in FoFCou.
          Solving linear equations separately, MaxMat=       0.
          There are     1 degrees of freedom in the 1st order CPHF.  IDoFFX=0 NUNeed=     1.
 LinEq1:  Iter=  0 NonCon=     1 RMS=7.68D-03 Max=4.80D-02 NDo=     1
 AX will form     1 AO Fock derivatives at one time.
 LinEq1:  Iter=  1 NonCon=     1 RMS=7.01D-04 Max=2.01D-03 NDo=     1
 LinEq1:  Iter=  2 NonCon=     1 RMS=1.24D-04 Max=1.11D-03 NDo=     1
 LinEq1:  Iter=  3 NonCon=     1 RMS=1.55D-05 Max=5.17D-05 NDo=     1
 LinEq1:  Iter=  4 NonCon=     1 RMS=2.67D-06 Max=1.14D-05 NDo=     1
 LinEq1:  Iter=  5 NonCon=     1 RMS=3.64D-07 Max=1.45D-06 NDo=     1
 LinEq1:  Iter=  6 NonCon=     1 RMS=4.43D-08 Max=2.02D-07 NDo=     1
 LinEq1:  Iter=  7 NonCon=     1 RMS=5.07D-09 Max=1.62D-08 NDo=     1
 LinEq1:  Iter=  8 NonCon=     1 RMS=6.24D-10 Max=2.12D-09 NDo=     1
 LinEq1:  Iter=  9 NonCon=     0 RMS=6.46D-11 Max=2.63D-10 NDo=     1
 Linear equations converged to 1.000D-10 1.000D-09 after     9 iterations.
 End of Minotr F.D. properties file   721 does not exist.
 End of Minotr F.D. properties file   722 does not exist.
 End of Minotr F.D. properties file   788 does not exist.
 Leave Link 1002 at Tue Dec 15 17:09:03 2015, MaxMem=    33554432 cpu:         0.0
 (Enter /home/Applications/g09/g09/l601.exe)
 Copying SCF densities to generalized density rwf, IOpCl= 0 IROHF=0.

 **********************************************************************

            Population analysis using the SCF density.

 **********************************************************************

 Orbital symmetries:
       Occupied  (A) (A) (A) (A) (A) (A) (A) (A) (A) (A) (A) (A)
                 (A)
       Virtual   (A) (A) (A) (A) (A) (A) (A) (A) (A) (A) (A)
 The electronic state is 1-A.
 Alpha  occ. eigenvalues --   -1.98836  -1.26790  -1.00324  -0.89433  -0.84779
 Alpha  occ. eigenvalues --   -0.76746  -0.73790  -0.63294  -0.61665  -0.52344
 Alpha  occ. eigenvalues --   -0.51730  -0.49009  -0.35597
 Alpha virt. eigenvalues --    0.04653   0.11553   0.11670   0.20021   0.20776
 Alpha virt. eigenvalues --    0.23212   0.26229   0.27717   0.28014   0.36343
 Alpha virt. eigenvalues --    0.41130
     Molecular Orbital Coefficients:
                           1         2         3         4         5
                           O         O         O         O         O
     Eigenvalues --    -1.98836  -1.26790  -1.00324  -0.89433  -0.84779
   1 1   C  1S          0.08343   0.45406   0.27855   0.23474   0.17462
   2        1PX         0.01791   0.12347  -0.26198  -0.15403   0.31067
   3        1PY        -0.12009  -0.17880  -0.05693   0.10698   0.28592
   4        1PZ         0.00233   0.00909   0.00874   0.00172   0.00403
   5 2   C  1S          0.23444   0.22303   0.49485  -0.20475  -0.36666
   6        1PX         0.18806   0.24335  -0.04429   0.04675   0.11205
   7        1PY        -0.19162   0.23175   0.04424   0.52692   0.04225
   8        1PZ         0.00445   0.00051   0.01411  -0.01549  -0.01099
   9 3   O  1S          0.84431  -0.29407  -0.01500   0.02791   0.24945
  10        1PX         0.01469   0.05735  -0.19675   0.30339  -0.05983
  11        1PY         0.06111   0.15429   0.07598  -0.11038  -0.13242
  12        1PZ        -0.00098  -0.00127   0.00078  -0.00279   0.00073
  13 4   C  1S          0.21618   0.25234  -0.48665   0.14279  -0.37486
  14        1PX        -0.24831  -0.06378  -0.06354  -0.29719  -0.02076
  15        1PY        -0.03520   0.33010  -0.00014  -0.43527   0.18166
  16        1PZ         0.00569   0.00491  -0.01407   0.00241  -0.01322
  17 5   C  1S          0.08027   0.45689  -0.26743  -0.22548   0.19676
  18        1PX        -0.08704  -0.20914  -0.16796  -0.20091  -0.06019
  19        1PY        -0.08029  -0.08074   0.22056   0.05575   0.39462
  20        1PZ        -0.00088  -0.00678   0.00302   0.00158  -0.00397
  21 6   H  1S          0.00270   0.11985  -0.13407  -0.17006   0.17224
  22 7   H  1S          0.04672   0.01719  -0.24992   0.10728  -0.25582
  23 8   H  1S          0.04542   0.01604   0.25385  -0.12096  -0.24060
  24 9   H  1S          0.00545   0.13991   0.14978   0.18751   0.18381
                           6         7         8         9        10
                           O         O         O         O         O
     Eigenvalues --    -0.76746  -0.73790  -0.63294  -0.61665  -0.52344
   1 1   C  1S         -0.18840  -0.06624   0.13981  -0.04547   0.02122
   2        1PX         0.12061   0.04564   0.00707  -0.36840   0.00832
   3        1PY        -0.23050  -0.05107   0.01143  -0.20710   0.10442
   4        1PZ        -0.11542   0.38021   0.01456  -0.00561   0.18118
   5 2   C  1S         -0.10346  -0.04602   0.11554  -0.09872  -0.05621
   6        1PX         0.40863   0.10871   0.55533   0.23636  -0.00056
   7        1PY        -0.17605  -0.05270  -0.20197   0.47579  -0.03704
   8        1PZ        -0.16607   0.54748   0.00581  -0.01603   0.64214
   9 3   O  1S         -0.18950  -0.05980  -0.06748   0.24246   0.01992
  10        1PX         0.05314   0.02500  -0.14646  -0.06032  -0.03113
  11        1PY         0.18670   0.05807   0.08758  -0.09570  -0.00767
  12        1PZ        -0.07037   0.22403   0.00256   0.01515   0.02195
  13 4   C  1S         -0.12220  -0.04070  -0.04003  -0.15577   0.03051
  14        1PX        -0.38488  -0.13013   0.46172   0.32250   0.07883
  15        1PY         0.07901   0.02075  -0.36866   0.35207   0.08520
  16        1PZ        -0.14973   0.52823   0.01053   0.04075  -0.62665
  17 5   C  1S         -0.20099  -0.05042  -0.08947  -0.08700  -0.04604
  18        1PX        -0.22338  -0.07706   0.01314   0.20635  -0.10662
  19        1PY        -0.07755  -0.02091   0.15825  -0.29070  -0.13862
  20        1PZ        -0.10810   0.38066   0.01576   0.01890  -0.25706
  21 6   H  1S         -0.23864  -0.06768   0.01763  -0.04432  -0.15183
  22 7   H  1S         -0.25492  -0.08178   0.34442  -0.10035   0.01310
  23 8   H  1S         -0.28395  -0.06907  -0.26950  -0.21177  -0.00938
  24 9   H  1S         -0.25773  -0.06524   0.08924  -0.09726   0.08825
                          11        12        13        14        15
                           O         O         O         V         V
     Eigenvalues --    -0.51730  -0.49009  -0.35597   0.04653   0.11553
   1 1   C  1S          0.09110  -0.06478  -0.01168   0.00906  -0.04259
   2        1PX        -0.05861  -0.38322  -0.00643   0.00521   0.29388
   3        1PY         0.45026   0.31666  -0.02022   0.02512   0.13119
   4        1PZ        -0.05233   0.02242   0.61749  -0.64936   0.01689
   5 2   C  1S         -0.09003   0.09552  -0.00461  -0.00560  -0.05787
   6        1PX        -0.02805   0.23200  -0.01779   0.01466   0.36156
   7        1PY        -0.25620  -0.12500  -0.00402   0.00579   0.13310
   8        1PZ        -0.20343   0.05022  -0.33818   0.21156  -0.02389
   9 3   O  1S         -0.00054  -0.12200   0.00394   0.00064   0.00438
  10        1PX        -0.08411   0.07920  -0.00518  -0.00201   0.07813
  11        1PY         0.02888   0.17416  -0.00900   0.00039   0.00571
  12        1PZ        -0.00628  -0.01070  -0.22008  -0.00624  -0.01080
  13 4   C  1S          0.10068   0.11681   0.00171  -0.00132   0.07540
  14        1PX         0.11780  -0.34952   0.00689   0.00237   0.20720
  15        1PY         0.25798   0.05657   0.00218  -0.00155  -0.27577
  16        1PZ         0.19563  -0.06422  -0.39417  -0.24403   0.00691
  17 5   C  1S         -0.12865  -0.03582   0.01213   0.01046  -0.00358
  18        1PX        -0.23886   0.51180  -0.01947  -0.01816   0.14742
  19        1PY        -0.39761   0.01668  -0.01560  -0.01694  -0.20750
  20        1PZ         0.06122  -0.00493   0.54641   0.68681  -0.00751
  21 6   H  1S         -0.38366   0.31432  -0.00296   0.00116  -0.04032
  22 7   H  1S          0.00004  -0.15401   0.00045   0.00071  -0.49323
  23 8   H  1S         -0.04772  -0.10658  -0.00744   0.02009   0.54870
  24 9   H  1S          0.38102   0.27374   0.00298  -0.01044   0.01226
                          16        17        18        19        20
                           V         V         V         V         V
     Eigenvalues --     0.11670   0.20021   0.20776   0.23212   0.26229
   1 1   C  1S         -0.18408   0.01468   0.15220   0.05828   0.23216
   2        1PX         0.09131  -0.17966   0.41184  -0.36891  -0.22598
   3        1PY         0.22844  -0.21279  -0.39440  -0.37411   0.16757
   4        1PZ         0.01535  -0.00381  -0.01066  -0.01315   0.00944
   5 2   C  1S         -0.06509  -0.35631  -0.03575  -0.41489  -0.07389
   6        1PX         0.28164   0.08865  -0.08766   0.06751   0.09054
   7        1PY         0.18913  -0.16243  -0.02500  -0.24686  -0.12370
   8        1PZ        -0.02195  -0.00416   0.00631   0.00311   0.01675
   9 3   O  1S          0.02534  -0.02400  -0.00929  -0.01326  -0.05074
  10        1PX         0.04545  -0.00903   0.01961  -0.00676  -0.07073
  11        1PY         0.14360  -0.01430  -0.01417  -0.04105  -0.21636
  12        1PZ        -0.00887   0.00389  -0.00385  -0.00117  -0.06613
  13 4   C  1S         -0.09923  -0.31220  -0.20615   0.26871  -0.31921
  14        1PX        -0.13959  -0.09301  -0.15325   0.09371  -0.21123
  15        1PY         0.37315  -0.08237   0.00729   0.08437  -0.20133
  16        1PZ         0.00135   0.00053  -0.00297   0.00304   0.01427
  17 5   C  1S         -0.14449  -0.04513  -0.13008   0.10288   0.52184
  18        1PX         0.04271  -0.30023   0.50933   0.03517   0.19829
  19        1PY         0.24890  -0.35652  -0.17116   0.42663  -0.19855
  20        1PZ         0.00261  -0.01939   0.01701   0.00738  -0.01543
  21 6   H  1S         -0.12670   0.52816  -0.22808  -0.29174  -0.33323
  22 7   H  1S          0.53387   0.18706   0.18313  -0.13264   0.13624
  23 8   H  1S          0.44272   0.27788  -0.03044   0.24295   0.07572
  24 9   H  1S         -0.10877   0.19077   0.42754   0.19261  -0.32402
                          21        22        23        24
                           V         V         V         V
     Eigenvalues --     0.27717   0.28014   0.36343   0.41130
   1 1   C  1S          0.64062   0.05556   0.13769   0.01460
   2        1PX         0.06023  -0.01064  -0.06307  -0.03543
   3        1PY         0.06190   0.01630   0.03134  -0.01120
   4        1PZ         0.01610   0.03858   0.00074  -0.00060
   5 2   C  1S         -0.17857  -0.01570  -0.17658   0.20239
   6        1PX        -0.04203   0.00248  -0.21531   0.06356
   7        1PY        -0.17191  -0.02447   0.00925  -0.23999
   8        1PZ         0.01440  -0.23411   0.00317   0.00467
   9 3   O  1S         -0.01171  -0.00469   0.12219  -0.01211
  10        1PX        -0.03334   0.00522   0.32006   0.83786
  11        1PY        -0.06698   0.00655   0.81919  -0.32471
  12        1PZ        -0.05467   0.94192  -0.02652  -0.00140
  13 4   C  1S          0.17726  -0.01040  -0.18669  -0.16938
  14        1PX        -0.00242  -0.01724   0.18885   0.18162
  15        1PY         0.14841  -0.01078  -0.08804   0.15528
  16        1PZ         0.01338  -0.21416  -0.00045  -0.00502
  17 5   C  1S         -0.45688   0.01308   0.11298  -0.02438
  18        1PX         0.16907   0.03022   0.05442  -0.02646
  19        1PY        -0.02848  -0.01498  -0.02245   0.03244
  20        1PZ         0.00777   0.03901  -0.00221   0.00165
  21 6   H  1S          0.16219  -0.01861  -0.06894   0.00140
  22 7   H  1S         -0.02204   0.00689  -0.01840   0.00015
  23 8   H  1S          0.05153   0.01309  -0.02930  -0.00297
  24 9   H  1S         -0.43415  -0.04798  -0.09403   0.00321
     Density Matrix:
                           1         2         3         4         5
   1 1   C  1S          0.90179
   2        1PX         0.02881   1.01449
   3        1PY         0.09751  -0.07493   1.11180
   4        1PZ        -0.00574  -0.00506  -0.00516   1.15135
   5 2   C  1S          0.34847  -0.37889  -0.38208  -0.00884   1.16455
   6        1PX         0.21941  -0.08685  -0.21549  -0.00139   0.08828
   7        1PY         0.40688  -0.38430  -0.33759  -0.00159  -0.26232
   8        1PZ        -0.01733   0.01304   0.01134   0.29371  -0.00368
   9 3   O  1S          0.02055  -0.02503  -0.02955   0.00068   0.01127
  10        1PX        -0.01912  -0.00668  -0.00823  -0.00393  -0.24403
  11        1PY         0.03230  -0.06258  -0.09314  -0.00145   0.33915
  12        1PZ         0.00055   0.00504   0.00481  -0.07718  -0.00946
  13 4   C  1S         -0.01088   0.02831   0.02448   0.00028  -0.00002
  14        1PX         0.05045   0.00679  -0.01718   0.00419  -0.03309
  15        1PY         0.02853   0.01140  -0.00577  -0.00224  -0.04257
  16        1PZ         0.00634   0.00298   0.01045  -0.30137   0.00297
  17 5   C  1S          0.28645   0.49890  -0.10479   0.02139  -0.01107
  18        1PX        -0.44797  -0.52083   0.15065  -0.03201  -0.00535
  19        1PY         0.22269   0.31717   0.04674  -0.01188   0.03485
  20        1PZ        -0.02416  -0.02599  -0.01992   0.88959   0.00096
  21 6   H  1S          0.00576   0.03009  -0.00846   0.00085   0.08003
  22 7   H  1S          0.07803   0.07297  -0.03173   0.00067   0.05467
  23 8   H  1S          0.08769  -0.07501  -0.10163  -0.00224   0.53966
  24 9   H  1S          0.54082  -0.23554   0.77942   0.02894   0.07453
                           6         7         8         9        10
   6        1PX         1.41853
   7        1PY        -0.10264   1.51080
   8        1PZ         0.02497   0.01253   1.79759
   9 3   O  1S          0.04934  -0.05045   0.00023   1.96138
  10        1PX        -0.03480   0.32428   0.00222  -0.06906   0.36144
  11        1PY         0.34811  -0.32870   0.01681  -0.24089  -0.02960
  12        1PZ         0.00324   0.01757   0.44683   0.00792  -0.00084
  13 4   C  1S         -0.00176  -0.05796   0.00162   0.00586   0.37342
  14        1PX         0.00206   0.03576  -0.00048  -0.06297  -0.46918
  15        1PY        -0.01490   0.02439  -0.00091  -0.00986  -0.21378
  16        1PZ         0.00042  -0.00275   0.00258  -0.00002   0.01183
  17 5   C  1S         -0.02624   0.04398  -0.00900   0.01966   0.03116
  18        1PX         0.01260  -0.01494   0.01001   0.00297  -0.00340
  19        1PY         0.00578   0.00389   0.00501  -0.03444  -0.05405
  20        1PZ        -0.00866  -0.00715  -0.27272  -0.00181  -0.00065
  21 6   H  1S          0.05046   0.04914  -0.00070   0.00684   0.03803
  22 7   H  1S          0.03828  -0.03934  -0.00095   0.00400   0.05221
  23 8   H  1S         -0.75584  -0.06886   0.04065   0.00804  -0.07866
  24 9   H  1S          0.04936  -0.01205  -0.00332   0.00720  -0.02227
                          11        12        13        14        15
  11        1PY         0.29880
  12        1PZ        -0.00315   0.20892
  13 4   C  1S          0.11655  -0.01231   1.15064
  14        1PX        -0.24454   0.01660  -0.23288   1.56618
  15        1PY         0.07874   0.00721  -0.13978   0.08170   1.35243
  16        1PZ         0.00816   0.40386  -0.00590  -0.00201   0.00030
  17 5   C  1S          0.00849  -0.00257   0.36412   0.07842   0.45647
  18        1PX        -0.00350   0.00064   0.06846   0.11927   0.03466
  19        1PY        -0.08081  -0.00007  -0.55619  -0.13102  -0.51433
  20        1PZ        -0.00212  -0.06603  -0.01767  -0.00410  -0.01722
  21 6   H  1S          0.01318  -0.00458   0.07757  -0.05075   0.01660
  22 7   H  1S         -0.06190   0.00013   0.53204   0.53380  -0.56166
  23 8   H  1S         -0.02083   0.00755   0.05396  -0.06221  -0.01124
  24 9   H  1S          0.02291  -0.00445   0.08046  -0.01125   0.06039
                          16        17        18        19        20
  16        1PZ         1.78821
  17 5   C  1S          0.00699   0.90976
  18        1PX        -0.00534   0.04512   1.10569
  19        1PY        -0.00899   0.09456   0.06300   1.02855
  20        1PZ         0.35234   0.01025  -0.00109  -0.00018   1.05137
  21 6   H  1S         -0.00153   0.52354   0.67876   0.46700   0.01934
  22 7   H  1S          0.00706   0.08420  -0.01003  -0.10896  -0.00426
  23 8   H  1S          0.00108   0.07282  -0.06331   0.02069  -0.01304
  24 9   H  1S         -0.00355   0.02182  -0.04061   0.01765   0.00516
                          21        22        23        24
  21 6   H  1S          0.84757
  22 7   H  1S         -0.00028   0.73231
  23 8   H  1S          0.02092   0.02055   0.71187
  24 9   H  1S         -0.01054   0.01773  -0.00073   0.85399
    Full Mulliken population analysis:
                           1         2         3         4         5
   1 1   C  1S          0.90179
   2        1PX         0.00000   1.01449
   3        1PY         0.00000   0.00000   1.11180
   4        1PZ         0.00000   0.00000   0.00000   1.15135
   5 2   C  1S          0.00000   0.00000   0.00000   0.00000   1.16455
   6        1PX         0.00000   0.00000   0.00000   0.00000   0.00000
   7        1PY         0.00000   0.00000   0.00000   0.00000   0.00000
   8        1PZ         0.00000   0.00000   0.00000   0.00000   0.00000
   9 3   O  1S          0.00000   0.00000   0.00000   0.00000   0.00000
  10        1PX         0.00000   0.00000   0.00000   0.00000   0.00000
  11        1PY         0.00000   0.00000   0.00000   0.00000   0.00000
  12        1PZ         0.00000   0.00000   0.00000   0.00000   0.00000
  13 4   C  1S          0.00000   0.00000   0.00000   0.00000   0.00000
  14        1PX         0.00000   0.00000   0.00000   0.00000   0.00000
  15        1PY         0.00000   0.00000   0.00000   0.00000   0.00000
  16        1PZ         0.00000   0.00000   0.00000   0.00000   0.00000
  17 5   C  1S          0.00000   0.00000   0.00000   0.00000   0.00000
  18        1PX         0.00000   0.00000   0.00000   0.00000   0.00000
  19        1PY         0.00000   0.00000   0.00000   0.00000   0.00000
  20        1PZ         0.00000   0.00000   0.00000   0.00000   0.00000
  21 6   H  1S          0.00000   0.00000   0.00000   0.00000   0.00000
  22 7   H  1S          0.00000   0.00000   0.00000   0.00000   0.00000
  23 8   H  1S          0.00000   0.00000   0.00000   0.00000   0.00000
  24 9   H  1S          0.00000   0.00000   0.00000   0.00000   0.00000
                           6         7         8         9        10
   6        1PX         1.41853
   7        1PY         0.00000   1.51080
   8        1PZ         0.00000   0.00000   1.79759
   9 3   O  1S          0.00000   0.00000   0.00000   1.96138
  10        1PX         0.00000   0.00000   0.00000   0.00000   0.36144
  11        1PY         0.00000   0.00000   0.00000   0.00000   0.00000
  12        1PZ         0.00000   0.00000   0.00000   0.00000   0.00000
  13 4   C  1S          0.00000   0.00000   0.00000   0.00000   0.00000
  14        1PX         0.00000   0.00000   0.00000   0.00000   0.00000
  15        1PY         0.00000   0.00000   0.00000   0.00000   0.00000
  16        1PZ         0.00000   0.00000   0.00000   0.00000   0.00000
  17 5   C  1S          0.00000   0.00000   0.00000   0.00000   0.00000
  18        1PX         0.00000   0.00000   0.00000   0.00000   0.00000
  19        1PY         0.00000   0.00000   0.00000   0.00000   0.00000
  20        1PZ         0.00000   0.00000   0.00000   0.00000   0.00000
  21 6   H  1S          0.00000   0.00000   0.00000   0.00000   0.00000
  22 7   H  1S          0.00000   0.00000   0.00000   0.00000   0.00000
  23 8   H  1S          0.00000   0.00000   0.00000   0.00000   0.00000
  24 9   H  1S          0.00000   0.00000   0.00000   0.00000   0.00000
                          11        12        13        14        15
  11        1PY         0.29880
  12        1PZ         0.00000   0.20892
  13 4   C  1S          0.00000   0.00000   1.15064
  14        1PX         0.00000   0.00000   0.00000   1.56618
  15        1PY         0.00000   0.00000   0.00000   0.00000   1.35243
  16        1PZ         0.00000   0.00000   0.00000   0.00000   0.00000
  17 5   C  1S          0.00000   0.00000   0.00000   0.00000   0.00000
  18        1PX         0.00000   0.00000   0.00000   0.00000   0.00000
  19        1PY         0.00000   0.00000   0.00000   0.00000   0.00000
  20        1PZ         0.00000   0.00000   0.00000   0.00000   0.00000
  21 6   H  1S          0.00000   0.00000   0.00000   0.00000   0.00000
  22 7   H  1S          0.00000   0.00000   0.00000   0.00000   0.00000
  23 8   H  1S          0.00000   0.00000   0.00000   0.00000   0.00000
  24 9   H  1S          0.00000   0.00000   0.00000   0.00000   0.00000
                          16        17        18        19        20
  16        1PZ         1.78821
  17 5   C  1S          0.00000   0.90976
  18        1PX         0.00000   0.00000   1.10569
  19        1PY         0.00000   0.00000   0.00000   1.02855
  20        1PZ         0.00000   0.00000   0.00000   0.00000   1.05137
  21 6   H  1S          0.00000   0.00000   0.00000   0.00000   0.00000
  22 7   H  1S          0.00000   0.00000   0.00000   0.00000   0.00000
  23 8   H  1S          0.00000   0.00000   0.00000   0.00000   0.00000
  24 9   H  1S          0.00000   0.00000   0.00000   0.00000   0.00000
                          21        22        23        24
  21 6   H  1S          0.84757
  22 7   H  1S          0.00000   0.73231
  23 8   H  1S          0.00000   0.00000   0.71187
  24 9   H  1S          0.00000   0.00000   0.00000   0.85399
     Gross orbital populations:
                           1
   1 1   C  1S          0.90179
   2        1PX         1.01449
   3        1PY         1.11180
   4        1PZ         1.15135
   5 2   C  1S          1.16455
   6        1PX         1.41853
   7        1PY         1.51080
   8        1PZ         1.79759
   9 3   O  1S          1.96138
  10        1PX         0.36144
  11        1PY         0.29880
  12        1PZ         0.20892
  13 4   C  1S          1.15064
  14        1PX         1.56618
  15        1PY         1.35243
  16        1PZ         1.78821
  17 5   C  1S          0.90976
  18        1PX         1.10569
  19        1PY         1.02855
  20        1PZ         1.05137
  21 6   H  1S          0.84757
  22 7   H  1S          0.73231
  23 8   H  1S          0.71187
  24 9   H  1S          0.85399
          Condensed to atoms (all electrons):
               1          2          3          4          5          6
     1  C    4.179430   0.000000   0.000000   0.000000   0.000000   0.000000
     2  C    0.000000   5.891471   0.000000   0.000000   0.000000   0.000000
     3  O    0.000000   0.000000   2.830534   0.000000   0.000000   0.000000
     4  C    0.000000   0.000000   0.000000   5.857458   0.000000   0.000000
     5  C    0.000000   0.000000   0.000000   0.000000   4.095371   0.000000
     6  H    0.000000   0.000000   0.000000   0.000000   0.000000   0.847569
     7  H    0.000000   0.000000   0.000000   0.000000   0.000000   0.000000
     8  H    0.000000   0.000000   0.000000   0.000000   0.000000   0.000000
     9  H    0.000000   0.000000   0.000000   0.000000   0.000000   0.000000
               7          8          9
     1  C    0.000000   0.000000   0.000000
     2  C    0.000000   0.000000   0.000000
     3  O    0.000000   0.000000   0.000000
     4  C    0.000000   0.000000   0.000000
     5  C    0.000000   0.000000   0.000000
     6  H    0.000000   0.000000   0.000000
     7  H    0.732311   0.000000   0.000000
     8  H    0.000000   0.711869   0.000000
     9  H    0.000000   0.000000   0.853989
 Mulliken charges:
               1
     1  C   -0.179430
     2  C   -1.891471
     3  O    3.169466
     4  C   -1.857458
     5  C   -0.095371
     6  H    0.152431
     7  H    0.267689
     8  H    0.288131
     9  H    0.146011
 Sum of Mulliken charges =   0.00000
 Mulliken charges with hydrogens summed into heavy atoms:
               1
     1  C   -0.033419
     2  C   -1.603340
     3  O    3.169466
     4  C   -1.589768
     5  C    0.057061
 Charge=              0.0000 electrons
 Dipole moment (field-independent basis, Debye):
    X=             -3.4890    Y=            -10.5829    Z=              0.5848  Tot=             11.1585
 N-N= 1.053779556212D+02 E-N=-1.702128535609D+02  KE=-1.563434150647D+01
 Orbital energies and kinetic energies (alpha):
                                 1                 2
   1         O                -1.988361         -1.360851
   2         O                -1.267895         -1.049269
   3         O                -1.003243         -0.888226
   4         O                -0.894327         -0.586024
   5         O                -0.847785         -0.697434
   6         O                -0.767456         -0.602621
   7         O                -0.737903         -0.543782
   8         O                -0.632944         -0.385128
   9         O                -0.616653         -0.341525
  10         O                -0.523437         -0.344414
  11         O                -0.517298         -0.429947
  12         O                -0.490088         -0.332645
  13         O                -0.355971         -0.255304
  14         V                 0.046528         -0.161931
  15         V                 0.115530         -0.184744
  16         V                 0.116697         -0.169024
  17         V                 0.200208         -0.162807
  18         V                 0.207764         -0.111480
  19         V                 0.232124         -0.092202
  20         V                 0.262290         -0.083250
  21         V                 0.277169         -0.128522
  22         V                 0.280145          0.484334
  23         V                 0.363434          0.493721
  24         V                 0.411296          0.585946
 Total kinetic energy from orbitals=-1.563434150647D+01
 Leave Link  601 at Tue Dec 15 17:09:03 2015, MaxMem=    33554432 cpu:         0.0
 (Enter /home/Applications/g09/g09/l701.exe)
 Compute integral first derivatives.
 ... and contract with generalized density number  6.
 Leave Link  701 at Tue Dec 15 17:09:03 2015, MaxMem=    33554432 cpu:         0.0
 (Enter /home/Applications/g09/g09/l702.exe)
 L702 exits ... SP integral derivatives will be done elsewhere.
 Leave Link  702 at Tue Dec 15 17:09:03 2015, MaxMem=    33554432 cpu:         0.0
 (Enter /home/Applications/g09/g09/l703.exe)
 Compute integral first derivatives, UseDBF=F ICtDFT=           0.
 Integral derivatives from FoFJK, PRISM(SPDF).
 Calling FoFJK, ICntrl=  10005127 FMM=F ISym2X=0 I1Cent= 0 IOpClX= 0 NMat=1 NMatS=1 NMatT=0.
 FoFJK:  IHMeth= 8 ICntrl=10005127 DoSepK=F KAlg= 0 I1Cent=   0 FoldK=F
 IRaf=         0 NMat=   1 IRICut=       1 DoRegI=T DoRafI=F ISym2E= 0.
 FoFCou: FMM=F IPFlag=           0 FMFlag=      100000 FMFlg1=         800
         NFxFlg=           0 DoJE=F BraDBF=F KetDBF=F FulRan=T
         wScrn=  0.000000 ICntrl=10005127 IOpCl=  0 I1Cent=           0 NGrid=           0
         NMat0=    1 NMatS0=      1 NMatT0=    0 NMatD0=    1 NMtDS0=    0 NMtDT0=    0
 Symmetry not used in FoFCou.
 Leave Link  703 at Tue Dec 15 17:09:03 2015, MaxMem=    33554432 cpu:         0.0
 (Enter /home/Applications/g09/g09/l716.exe)
 Dipole        =-1.51858797D+00-4.50671435D+00 2.21371375D-01
 ***** Axes restored to original set *****
 -------------------------------------------------------------------
 Center     Atomic                   Forces (Hartrees/Bohr)
 Number     Number              X              Y              Z
 -------------------------------------------------------------------
      1        6           0.129783418    0.009984086    0.003721366
      2        6          -0.220259311   -0.078659230   -0.002109212
      3        8           0.039639717    0.028178854    0.007154906
      4        6          -0.303310115    0.090663389   -0.001882395
      5        6           0.229678726    0.019213119    0.000041410
      6        1           0.037627533    0.020941951   -0.002522221
      7        1          -0.005141716    0.062747366    0.001096303
      8        1          -0.012596985   -0.075018274   -0.001344649
      9        1           0.104578733   -0.078051261   -0.004155508
 -------------------------------------------------------------------
 Cartesian Forces:  Max     0.303310115 RMS     0.097388383
 Z-matrix is all fixed cartesians, so copy forces.
 Force constants in Cartesian coordinates: 
                1             2             3             4             5 
      1  0.974313D+00
      2 -0.506483D-01  0.782788D+00
      3 -0.191158D-01  0.219524D-02  0.207886D+00
      4 -0.507752D+00 -0.103585D+00  0.106575D-02  0.926585D+00
      5 -0.815920D-01 -0.215178D+00 -0.169976D-03  0.926649D-02  0.899955D+00
      6 -0.599252D-02 -0.230623D-02 -0.103630D+00  0.195617D-01  0.136213D-01
      7 -0.841819D-02  0.297247D-01 -0.994133D-03 -0.286657D+00  0.172028D+00
      8 -0.604381D-02  0.213732D-01 -0.263332D-03  0.216224D+00 -0.389965D+00
      9 -0.536430D-03  0.869053D-03  0.585485D-02 -0.102688D-01  0.660352D-02
     10  0.105240D-01 -0.260095D-03 -0.500496D-03  0.234139D-01  0.168242D-01
     11  0.348370D-01 -0.870388D-03 -0.212477D-02 -0.184250D-01 -0.132462D-01
     12 -0.195531D-02  0.455170D-04 -0.208744D-02  0.113762D-02  0.736298D-03
     13 -0.162665D+00  0.419795D-02  0.298411D-02  0.964841D-02 -0.340916D-01
     14 -0.186760D-01 -0.375652D+00  0.115196D-01 -0.228602D-03  0.797873D-03
     15  0.325987D-02  0.131480D-01 -0.758740D-01 -0.726055D-04  0.438372D-03
     16  0.169288D-01 -0.385870D-03  0.835984D-04  0.000000D+00  0.104515D-05
     17 -0.216230D-01  0.515990D-03  0.587011D-03 -0.170454D-05  0.378615D-05
     18  0.158128D-02  0.479701D-03  0.154831D-01 -0.514700D-04  0.114326D-03
     19  0.150589D-04  0.126869D-04  0.391052D-03  0.306096D-05  0.000000D+00
     20  0.189790D-04  0.159894D-04  0.492848D-03  0.000000D+00  0.000000D+00
     21  0.324350D-03  0.273258D-03  0.842274D-02 -0.865370D-04  0.106941D-04
     22  0.746965D-02 -0.263254D-01 -0.240432D-02 -0.160181D+00 -0.100252D+00
     23 -0.367039D-02  0.129807D-01 -0.108885D-02 -0.960681D-01 -0.307711D+00
     24  0.201177D-03 -0.128128D-02  0.287605D-01 -0.113830D-01 -0.204614D-01
     25 -0.330416D+00  0.147270D+00  0.184902D-01 -0.505970D-02  0.178166D-01
     26  0.147398D+00 -0.225973D+00 -0.111478D-01 -0.718048D-02  0.253430D-01
     27  0.222334D-01 -0.134233D-01 -0.848151D-01  0.973458D-04 -0.893129D-03
                6             7             8             9            10 
      6  0.190419D+00
      7 -0.791411D-02  0.524248D+00
      8  0.590013D-02 -0.381783D-01  0.674228D+00
      9 -0.445916D-01  0.124561D-01 -0.172285D-02  0.537088D-01
     10  0.642309D-03 -0.262286D+00 -0.179279D+00 -0.603947D-02  0.988245D+00
     11 -0.668049D-03 -0.135760D+00 -0.311026D+00 -0.528706D-02 -0.754917D-01
     12 -0.126850D-02 -0.440076D-02 -0.452359D-02 -0.457890D-01 -0.630985D-02
     13  0.148359D-02 -0.864689D-02  0.678797D-02  0.699663D-03 -0.586567D+00
     14  0.161085D-03 -0.283808D-01  0.222938D-01  0.959715D-03  0.132996D+00
     15  0.394221D-03 -0.829909D-03  0.444324D-03  0.634938D-02  0.162245D-01
     16  0.310364D-04  0.426493D-05 -0.717911D-05  0.224947D-03 -0.537577D-02
     17  0.112432D-03  0.000000D+00 -0.137780D-05  0.431715D-04  0.695674D-02
     18  0.339497D-02  0.140165D-03 -0.235939D-03  0.739282D-02  0.151258D-02
     19 -0.119256D-03  0.196284D-01 -0.154478D-01  0.914165D-03 -0.167977D+00
     20  0.364182D-04  0.114673D-01 -0.902755D-02  0.690588D-03  0.982446D-01
     21  0.337150D-02  0.586319D-03 -0.546128D-03  0.500658D-02 -0.553791D-02
     22 -0.100952D-01  0.221289D-01  0.159420D-01  0.242263D-02  0.105324D-04
     23 -0.173190D-01 -0.109075D-01 -0.786591D-02 -0.156286D-02  0.482582D-05
     24 -0.757640D-01  0.102729D-02  0.841208D-03  0.479411D-02 -0.126699D-03
     25  0.240243D-02 -0.124040D-05  0.185561D-05  0.127129D-03  0.130976D-04
     26  0.461915D-03  0.578851D-05 -0.865950D-05 -0.593269D-03  0.420041D-05
     27  0.276751D-01 -0.709732D-04  0.106175D-03  0.727409D-02  0.135059D-03
               11            12            13            14            15 
     11  0.810721D+00
     12  0.203462D-02  0.217008D+00
     13  0.108455D+00  0.149113D-01  0.957815D+00
     14 -0.232795D+00 -0.345793D-02 -0.108069D-01  0.758221D+00
     15 -0.435331D-02 -0.119128D+00 -0.224468D-01 -0.120123D-01  0.208911D+00
     16 -0.177989D-01  0.107473D-02 -0.234422D+00 -0.100002D+00  0.479944D-02
     17  0.229078D-01 -0.595989D-04 -0.103530D+00 -0.187046D+00  0.443521D-02
     18  0.220708D-02  0.293906D-01  0.368923D-02  0.322220D-02 -0.792248D-01
     19  0.104174D+00 -0.438753D-02  0.772821D-02  0.255011D-01 -0.627152D-03
     20 -0.275694D+00  0.530362D-02  0.452905D-02  0.148371D-01  0.772889D-03
     21  0.806205D-02 -0.865691D-01  0.678656D-03 -0.118303D-02  0.362257D-01
     22 -0.130158D-05 -0.410345D-03 -0.193544D-05  0.429902D-05  0.127662D-03
     23  0.000000D+00 -0.188015D-03  0.881734D-05 -0.195852D-04 -0.581594D-03
     24  0.156573D-04  0.493623D-02 -0.999292D-04  0.221964D-03  0.659135D-02
     25  0.110345D-04  0.340119D-03  0.171105D-01 -0.407326D-03 -0.434997D-03
     26  0.353877D-05  0.109077D-03  0.244495D-01 -0.637689D-03 -0.229155D-02
     27  0.113785D-03  0.350722D-02 -0.189986D-02  0.568669D-03  0.157545D-01
               16            17            18            19            20 
     16  0.222888D+00
     17  0.118217D+00  0.163629D+00
     18 -0.577421D-02 -0.487261D-02  0.416055D-01
     19 -0.182244D-04 -0.349760D-05 -0.598940D-03  0.140621D+00
     20 -0.229685D-04 -0.440807D-05 -0.754852D-03 -0.114236D+00  0.269873D+00
     21 -0.392531D-03 -0.753337D-04 -0.129004D-01  0.442766D-02 -0.654151D-02
     22  0.000000D+00  0.000000D+00  0.000000D+00  0.000000D+00  0.000000D+00
     23  0.000000D+00  0.000000D+00  0.000000D+00  0.000000D+00  0.000000D+00
     24  0.000000D+00  0.000000D+00  0.000000D+00  0.000000D+00  0.000000D+00
     25 -0.455841D-05 -0.165132D-04 -0.498630D-03  0.000000D+00  0.000000D+00
     26 -0.146189D-05 -0.529580D-05 -0.159911D-03  0.000000D+00  0.000000D+00
     27 -0.470051D-04 -0.170280D-03 -0.514174D-02  0.000000D+00  0.000000D+00
               21            22            23            24            25 
     21  0.464429D-01
     22  0.000000D+00  0.130578D+00
     23  0.000000D+00  0.110615D+00  0.302698D+00
     24  0.000000D+00  0.105814D-01  0.197296D-01  0.421368D-01
     25  0.000000D+00 -0.387746D-05  0.176647D-04 -0.200198D-03  0.318362D+00
     26  0.000000D+00  0.180947D-04 -0.824350D-04  0.934256D-03 -0.164693D+00
     27  0.000000D+00 -0.221860D-03  0.101074D-02 -0.114550D-01 -0.202261D-01
               26            27 
     26  0.201361D+00
     27  0.126873D-01  0.472008D-01
 Leave Link  716 at Tue Dec 15 17:09:03 2015, MaxMem=    33554432 cpu:         0.0
 (Enter /home/Applications/g09/g09/l103.exe)

 GradGradGradGradGradGradGradGradGradGradGradGradGradGradGradGradGradGrad
 Berny optimization.
 Search for a local minimum.
 Step number   1 out of a maximum of    2
 All quantities printed in internal units (Hartrees-Bohrs-Radians)
 Second derivative matrix not updated -- first step.
 ITU=  0
     Eigenvalues ---    0.01868   0.02961   0.06938   0.07336   0.07994
     Eigenvalues ---    0.08809   0.12955   0.14028   0.15788   0.23956
     Eigenvalues ---    0.26942   0.32520   0.40305   0.43376   0.61894
     Eigenvalues ---    0.82887   1.04181   1.29673   1.39690   1.59612
     Eigenvalues ---    1.71196
 Quadratic step=1.288D+00 exceeds max=3.000D-01 adjusted using Lamda=-8.397D-01.
 Angle between NR and scaled steps=  27.68 degrees.
 Angle between quadratic step and forces=  23.30 degrees.
 Linear search not attempted -- first point.
 TrRot= -0.006503  0.003530  0.000652  0.000002 -0.000007  0.000002
 Variable       Old X    -DE/DX   Delta X   Delta X   Delta X     New X
                                 (Linear)    (Quad)   (Total)
    X1        1.74938   0.12978   0.00000   0.07670   0.07020   1.81958
    Y1       -1.40705   0.00998   0.00000  -0.02111  -0.01757  -1.42462
    Z1        0.07373   0.00372   0.00000   0.00080   0.00146   0.07519
    X2       -0.71877  -0.22026   0.00000  -0.10622  -0.11272  -0.83149
    Y2       -2.10610  -0.07866   0.00000  -0.05648  -0.05295  -2.15905
    Z2        0.05985  -0.00211   0.00000  -0.00136  -0.00071   0.05914
    X3       -2.21242   0.03964   0.00000   0.00214  -0.00437  -2.21679
    Y3       -0.02596   0.02818   0.00000   0.01251   0.01604  -0.00992
    Z3        0.01491   0.00715   0.00000   0.00528   0.00592   0.02083
    X4       -0.56980  -0.30331   0.00000  -0.13297  -0.13948  -0.70928
    Y4        2.06330   0.09066   0.00000   0.05867   0.06220   2.12550
    Z4        0.05045  -0.00188   0.00000  -0.00422  -0.00357   0.04687
    X5        1.81244   0.22968   0.00000   0.10088   0.09437   1.90681
    Y5        1.33968   0.01921   0.00000   0.03256   0.03610   1.37577
    Z5       -0.01781   0.00004   0.00000   0.00301   0.00367  -0.01414
    X6        3.48082   0.03763   0.00000   0.05983   0.05332   3.53414
    Y6        2.64160   0.02094   0.00000   0.02951   0.03305   2.67465
    Z6       -0.07618  -0.00252   0.00000  -0.00288  -0.00220  -0.07838
    X7       -1.61684  -0.00514   0.00000  -0.02299  -0.02950  -1.64634
    Y7        3.85838   0.06275   0.00000   0.07820   0.08172   3.94010
    Z7       -0.00598   0.00110   0.00000  -0.00042   0.00022  -0.00575
    X8       -1.61454  -0.01260   0.00000  -0.02440  -0.03089  -1.64543
    Y8       -3.93699  -0.07502   0.00000  -0.08836  -0.08484  -4.02183
    Z8       -0.08435  -0.00134   0.00000  -0.00251  -0.00187  -0.08622
    X9        3.32843   0.10458   0.00000   0.10556   0.09907   3.42749
    Y9       -2.52133  -0.07805   0.00000  -0.07729  -0.07375  -2.59508
    Z9       -0.04475  -0.00416   0.00000  -0.00360  -0.00292  -0.04767
         Item               Value     Threshold  Converged?
 Maximum Force            0.303310     0.000450     NO 
 RMS     Force            0.097388     0.000300     NO 
 Maximum Displacement     0.139479     0.001800     NO 
 RMS     Displacement     0.057583     0.001200     NO 
 Predicted change in Energy=-1.075180D-01
 GradGradGradGradGradGradGradGradGradGradGradGradGradGradGradGradGradGrad

 Leave Link  103 at Tue Dec 15 17:09:03 2015, MaxMem=    33554432 cpu:         0.0
 (Enter /home/Applications/g09/g09/l9999.exe)
 1\1\GINC-DUSTIN-DESKTOP\Force\RAM1-FC\STO-3G\C4H4O1\DUSTIN\15-Dec-2015
 \0\\#P AM1(Input,print) CIS(Singlets,NStates=15) pop(full) force\\AM1-
 Reparam Input\\0,1\C,0.925731,-0.744579,0.039015\C,-0.380357,-1.114501
 ,0.031671\O,-1.170762,-0.013737,0.007892\C,-0.301526,1.091852,0.026696
 \C,0.959101,0.708926,-0.009426\H,1.84197,1.397872,-0.040313\H,-0.85559
 3,2.041767,-0.003163\H,-0.854377,-2.083368,-0.044637\H,1.761327,-1.334
 228,-0.02368\\Version=ES64L-G09RevD.01\State=1-A\HF=1.8109961\RMSD=1.8
 80e-09\RMSF=9.739e-02\Dipole=-4.7556324,0.082726,-0.2066539\PG=C01 [X(
 C4H4O1)]\\@


 IF YOU DON'T HAVE THE LAW - ARGUE THE FACTS.
 IF YOU DON'T HAVE THE FACTS - ARGUE THE LAW.
 IF YOU DON'T HAVE EITHER - POUND THE TABLE.
 Job cpu time:       0 days  0 hours  0 minutes  0.8 seconds.
 File lengths (MBytes):  RWF=      7 Int=      0 D2E=      0 Chk=      2 Scr=      1
 Normal termination of Gaussian 09 at Tue Dec 15 17:09:03 2015.
