 Entering Gaussian System, Link 0=g09
 Input=FuranDFT_2.com
 Output=FuranDFT_2.log
 Initial command:
 /home/Applications/g09/g09/l1.exe "/home/Applications/g09/scratch/Gau-23310.inp" -scrdir="/home/Applications/g09/scratch/"
 Entering Link 1 = /home/Applications/g09/g09/l1.exe PID=     23312.
  
 Copyright (c) 1988,1990,1992,1993,1995,1998,2003,2009,2013,
            Gaussian, Inc.  All Rights Reserved.
  
 This is part of the Gaussian(R) 09 program.  It is based on
 the Gaussian(R) 03 system (copyright 2003, Gaussian, Inc.),
 the Gaussian(R) 98 system (copyright 1998, Gaussian, Inc.),
 the Gaussian(R) 94 system (copyright 1995, Gaussian, Inc.),
 the Gaussian 92(TM) system (copyright 1992, Gaussian, Inc.),
 the Gaussian 90(TM) system (copyright 1990, Gaussian, Inc.),
 the Gaussian 88(TM) system (copyright 1988, Gaussian, Inc.),
 the Gaussian 86(TM) system (copyright 1986, Carnegie Mellon
 University), and the Gaussian 82(TM) system (copyright 1983,
 Carnegie Mellon University). Gaussian is a federally registered
 trademark of Gaussian, Inc.
  
 This software contains proprietary and confidential information,
 including trade secrets, belonging to Gaussian, Inc.
  
 This software is provided under written license and may be
 used, copied, transmitted, or stored only in accord with that
 written license.
  
 The following legend is applicable only to US Government
 contracts under FAR:
  
                    RESTRICTED RIGHTS LEGEND
  
 Use, reproduction and disclosure by the US Government is
 subject to restrictions as set forth in subparagraphs (a)
 and (c) of the Commercial Computer Software - Restricted
 Rights clause in FAR 52.227-19.
  
 Gaussian, Inc.
 340 Quinnipiac St., Bldg. 40, Wallingford CT 06492
  
  
 ---------------------------------------------------------------
 Warning -- This program may not be used in any manner that
 competes with the business of Gaussian, Inc. or will provide
 assistance to any competitor of Gaussian, Inc.  The licensee
 of this program is prohibited from giving any competitor of
 Gaussian, Inc. access to this program.  By using this program,
 the user acknowledges that Gaussian, Inc. is engaged in the
 business of creating and licensing software in the field of
 computational chemistry and represents and warrants to the
 licensee that it is not a competitor of Gaussian, Inc. and that
 it will not use this program in any manner prohibited above.
 ---------------------------------------------------------------
  

 Cite this work as:
 Gaussian 09, Revision D.01,
 M. J. Frisch, G. W. Trucks, H. B. Schlegel, G. E. Scuseria, 
 M. A. Robb, J. R. Cheeseman, G. Scalmani, V. Barone, B. Mennucci, 
 G. A. Petersson, H. Nakatsuji, M. Caricato, X. Li, H. P. Hratchian, 
 A. F. Izmaylov, J. Bloino, G. Zheng, J. L. Sonnenberg, M. Hada, 
 M. Ehara, K. Toyota, R. Fukuda, J. Hasegawa, M. Ishida, T. Nakajima, 
 Y. Honda, O. Kitao, H. Nakai, T. Vreven, J. A. Montgomery, Jr., 
 J. E. Peralta, F. Ogliaro, M. Bearpark, J. J. Heyd, E. Brothers, 
 K. N. Kudin, V. N. Staroverov, T. Keith, R. Kobayashi, J. Normand, 
 K. Raghavachari, A. Rendell, J. C. Burant, S. S. Iyengar, J. Tomasi, 
 M. Cossi, N. Rega, J. M. Millam, M. Klene, J. E. Knox, J. B. Cross, 
 V. Bakken, C. Adamo, J. Jaramillo, R. Gomperts, R. E. Stratmann, 
 O. Yazyev, A. J. Austin, R. Cammi, C. Pomelli, J. W. Ochterski, 
 R. L. Martin, K. Morokuma, V. G. Zakrzewski, G. A. Voth, 
 P. Salvador, J. J. Dannenberg, S. Dapprich, A. D. Daniels, 
 O. Farkas, J. B. Foresman, J. V. Ortiz, J. Cioslowski, 
 and D. J. Fox, Gaussian, Inc., Wallingford CT, 2013.
 
 ******************************************
 Gaussian 09:  ES64L-G09RevD.01 24-Apr-2013
                14-Nov-2015 
 ******************************************
 -------------------------------------------------------
 #P B3LYP/3-21G CIS(Singlets,NStates=15) pop(full) force
 -------------------------------------------------------
 1/10=7,30=1,38=1/1,3;
 2/12=2,17=6,18=5,40=1/2;
 3/5=5,11=9,16=1,25=1,30=1,71=1,74=-5/1,2,8,3;
 4//1;
 5/5=2,38=5/2;
 8/6=1,10=1,108=15/1;
 9/15=2,41=15,42=1,48=1/14;
 10/5=4/2;
 6/7=3,18=1/1;
 7/12=6,13=5,29=1/1,2,3,16;
 1/10=7,30=1/3;
 99//99;
 Leave Link    1 at Sat Nov 14 17:21:06 2015, MaxMem=           0 cpu:         0.0
 (Enter /home/Applications/g09/g09/l101.exe)
 --------
 FuranDFT
 --------
 Symbolic Z-matrix:
 Charge =  0 Multiplicity = 1
 6                     0.90894  -0.7413    0.00223 
 6                    -0.3802   -1.12777   0.02823 
 8                    -1.16715  -0.04528  -0.04082 
 6                    -0.32861   1.13626   0.03342 
 6                     0.92444   0.67048   0.00416 
 1                     1.81077   1.38934   0.00302 
 1                    -0.87903   2.06303   0.02013 
 1                    -0.8316   -2.04614   0.01716 
 1                     1.81992  -1.3514    0.01567 
 
 NAtoms=      9 NQM=        9 NQMF=       0 NMMI=      0 NMMIF=      0
                NMic=       0 NMicF=      0.
                    Isotopes and Nuclear Properties:
 (Nuclear quadrupole moments (NQMom) in fm**2, nuclear magnetic moments (NMagM)
  in nuclear magnetons)

  Atom         1           2           3           4           5           6           7           8           9
 IAtWgt=          12          12          16          12          12           1           1           1           1
 AtmWgt=  12.0000000  12.0000000  15.9949146  12.0000000  12.0000000   1.0078250   1.0078250   1.0078250   1.0078250
 NucSpn=           0           0           0           0           0           1           1           1           1
 AtZEff=   0.0000000   0.0000000   0.0000000   0.0000000   0.0000000   0.0000000   0.0000000   0.0000000   0.0000000
 NQMom=    0.0000000   0.0000000   0.0000000   0.0000000   0.0000000   0.0000000   0.0000000   0.0000000   0.0000000
 NMagM=    0.0000000   0.0000000   0.0000000   0.0000000   0.0000000   2.7928460   2.7928460   2.7928460   2.7928460
 AtZNuc=   6.0000000   6.0000000   8.0000000   6.0000000   6.0000000   1.0000000   1.0000000   1.0000000   1.0000000
 Leave Link  101 at Sat Nov 14 17:21:06 2015, MaxMem=    33554432 cpu:         0.0
 (Enter /home/Applications/g09/g09/l103.exe)

 GradGradGradGradGradGradGradGradGradGradGradGradGradGradGradGradGradGrad
 Berny optimization.
 Initialization pass.
 Trust Radius=3.00D-01 FncErr=1.00D-07 GrdErr=1.00D-07
 Number of steps in this run=      2 maximum allowed number of steps=      2.
 GradGradGradGradGradGradGradGradGradGradGradGradGradGradGradGradGradGrad

 Leave Link  103 at Sat Nov 14 17:21:06 2015, MaxMem=    33554432 cpu:         0.0
 (Enter /home/Applications/g09/g09/l202.exe)
                          Input orientation:                          
 ---------------------------------------------------------------------
 Center     Atomic      Atomic             Coordinates (Angstroms)
 Number     Number       Type             X           Y           Z
 ---------------------------------------------------------------------
      1          6           0        0.908936   -0.741299    0.002227
      2          6           0       -0.380203   -1.127775    0.028234
      3          8           0       -1.167153   -0.045281   -0.040817
      4          6           0       -0.328606    1.136262    0.033424
      5          6           0        0.924443    0.670484    0.004163
      6          1           0        1.810769    1.389340    0.003020
      7          1           0       -0.879032    2.063032    0.020134
      8          1           0       -0.831595   -2.046141    0.017164
      9          1           0        1.819916   -1.351398    0.015669
 ---------------------------------------------------------------------
                    Distance matrix (angstroms):
                    1          2          3          4          5
     1  C    0.000000
     2  C    1.346076   0.000000
     3  O    2.190077   1.340094   0.000000
     4  C    2.248937   2.264631   1.450764   0.000000
     5  C    1.411869   2.221805   2.211135   1.337138   0.000000
     6  H    2.313639   3.337194   3.305764   2.154507   1.141196
     7  H    3.325872   3.229574   2.128782   1.077983   2.278589
     8  H    2.175381   1.023364   2.029631   3.221948   3.234794
     9  H    1.096488   2.211490   3.260631   3.287083   2.211337
                    6          7          8          9
     6  H    0.000000
     7  H    2.772938   0.000000
     8  H    4.334146   4.109448   0.000000
     9  H    2.740782   4.352318   2.741018   0.000000
 Stoichiometry    C4H4O
 Framework group  C1[X(C4H4O)]
 Deg. of freedom    21
 Full point group                 C1      NOp   1
 Largest Abelian subgroup         C1      NOp   1
 Largest concise Abelian subgroup C1      NOp   1
                         Standard orientation:                         
 ---------------------------------------------------------------------
 Center     Atomic      Atomic             Coordinates (Angstroms)
 Number     Number       Type             X           Y           Z
 ---------------------------------------------------------------------
      1          6           0        0.608469    1.005898   -0.009403
      2          6           0        1.143570   -0.228639    0.029399
      3          8           0        0.161140   -1.137871   -0.033686
      4          6           0       -1.110870   -0.443227    0.030924
      5          6           0       -0.795369    0.855524   -0.009594
      6          1           0       -1.613316    1.651251   -0.020170
      7          1           0       -1.966565   -1.098778    0.021567
      8          1           0        2.108609   -0.569144    0.023908
      9          1           0        1.107350    1.982306   -0.003766
 ---------------------------------------------------------------------
 Rotational constants (GHZ):      9.5776694      9.1351532      4.6793551
 Leave Link  202 at Sat Nov 14 17:21:06 2015, MaxMem=    33554432 cpu:         0.0
 (Enter /home/Applications/g09/g09/l301.exe)
 Standard basis: 3-21G (6D, 7F)
 Ernie: Thresh=  0.10000D-02 Tol=  0.10000D-05 Strict=F.
 There are    53 symmetry adapted cartesian basis functions of A   symmetry.
 There are    53 symmetry adapted basis functions of A   symmetry.
    53 basis functions,    87 primitive gaussians,    53 cartesian basis functions
    18 alpha electrons       18 beta electrons
       nuclear repulsion energy       160.6194050157 Hartrees.
 IExCor=  402 DFT=T Ex+Corr=B3LYP ExCW=0 ScaHFX=  0.200000
 ScaDFX=  0.800000  0.720000  1.000000  0.810000 ScalE2=  1.000000  1.000000
 IRadAn=      0 IRanWt=     -1 IRanGd=            0 ICorTp=0 IEmpDi=  4
 NAtoms=    9 NActive=    9 NUniq=    9 SFac= 1.00D+00 NAtFMM=   60 NAOKFM=F Big=F
 Integral buffers will be    131072 words long.
 Regular integral format.
 Two-electron integral symmetry is turned on.
 Leave Link  301 at Sat Nov 14 17:21:06 2015, MaxMem=    33554432 cpu:         0.0
 (Enter /home/Applications/g09/g09/l302.exe)
 NPDir=0 NMtPBC=     1 NCelOv=     1 NCel=       1 NClECP=     1 NCelD=      1
         NCelK=      1 NCelE2=     1 NClLst=     1 CellRange=     0.0.
 One-electron integrals computed using PRISM.
 NBasis=    53 RedAO= T EigKep=  3.06D-03  NBF=    53
 NBsUse=    53 1.00D-06 EigRej= -1.00D+00 NBFU=    53
 Precomputing XC quadrature grid using
 IXCGrd= 4 IRadAn=           0 IRanWt=          -1 IRanGd=           0 AccXCQ= 0.00D+00.
 Generated NRdTot=       0 NPtTot=           0 NUsed=           0 NTot=          32
 NSgBfM=    53    53    53    53    53 MxSgAt=     9 MxSgA2=     9.
 Leave Link  302 at Sat Nov 14 17:21:06 2015, MaxMem=    33554432 cpu:         0.1
 (Enter /home/Applications/g09/g09/l308.exe)
 Leave Link  308 at Sat Nov 14 17:21:06 2015, MaxMem=    33554432 cpu:         0.0
 (Enter /home/Applications/g09/g09/l303.exe)
 DipDrv:  MaxL=1.
 Leave Link  303 at Sat Nov 14 17:21:06 2015, MaxMem=    33554432 cpu:         0.0
 (Enter /home/Applications/g09/g09/l401.exe)
 ExpMin= 1.83D-01 ExpMax= 3.22D+02 ExpMxC= 3.22D+02 IAcc=1 IRadAn=         1 AccDes= 0.00D+00
 Harris functional with IExCor=  402 and IRadAn=       1 diagonalized for initial guess.
 HarFok:  IExCor=  402 AccDes= 0.00D+00 IRadAn=         1 IDoV= 1 UseB2=F ITyADJ=14
 ICtDFT=  3500011 ScaDFX=  1.000000  1.000000  1.000000  1.000000
 FoFCou: FMM=F IPFlag=           0 FMFlag=      100000 FMFlg1=           0
         NFxFlg=           0 DoJE=T BraDBF=F KetDBF=T FulRan=T
         wScrn=  0.000000 ICntrl=     500 IOpCl=  0 I1Cent=   200000004 NGrid=           0
         NMat0=    1 NMatS0=      1 NMatT0=    0 NMatD0=    1 NMtDS0=    0 NMtDT0=    0
 Petite list used in FoFCou.
 Harris En= -228.730597431089    
 JPrj=0 DoOrth=F DoCkMO=F.
 Leave Link  401 at Sat Nov 14 17:21:06 2015, MaxMem=    33554432 cpu:         0.2
 (Enter /home/Applications/g09/g09/l502.exe)
 Closed shell SCF:
 Using DIIS extrapolation, IDIIS=  1040.
 Integral symmetry usage will be decided dynamically.
 Keep R1 ints in memory in canonical form, NReq=1925595.
 IVT=       27707 IEndB=       27707 NGot=    33554432 MDV=    32502130
 LenX=    32502130 LenY=    32498880
 Requested convergence on RMS density matrix=1.00D-08 within 128 cycles.
 Requested convergence on MAX density matrix=1.00D-06.
 Requested convergence on             energy=1.00D-06.
 No special actions if energy rises.
 FoFCou: FMM=F IPFlag=           0 FMFlag=           0 FMFlg1=           0
         NFxFlg=           0 DoJE=F BraDBF=F KetDBF=F FulRan=T
         wScrn=  0.000000 ICntrl=     600 IOpCl=  0 I1Cent=           0 NGrid=           0
         NMat0=    1 NMatS0=   1431 NMatT0=    0 NMatD0=    1 NMtDS0=    0 NMtDT0=    0
 Symmetry not used in FoFCou.
 Integral accuracy reduced to 1.0D-05 until final iterations.

 Cycle   1  Pass 0  IDiag  1:
 E= -228.660756470921    
 DIIS: error= 3.41D-02 at cycle   1 NSaved=   1.
 NSaved= 1 IEnMin= 1 EnMin= -228.660756470921     IErMin= 1 ErrMin= 3.41D-02
 ErrMax= 3.41D-02  0.00D+00 EMaxC= 1.00D-01 BMatC= 7.54D-02 BMatP= 7.54D-02
 IDIUse=3 WtCom= 6.59D-01 WtEn= 3.41D-01
 Coeff-Com:  0.100D+01
 Coeff-En:   0.100D+01
 Coeff:      0.100D+01
 Gap=     0.232 Goal=   None    Shift=    0.000
 GapD=    0.232 DampG=1.000 DampE=0.500 DampFc=0.5000 IDamp=-1.
 Damping current iteration by 5.00D-01
 RMSDP=1.16D-02 MaxDP=1.16D-01              OVMax= 1.81D-01

 Cycle   2  Pass 0  IDiag  1:
 E= -228.692085937348     Delta-E=       -0.031329466427 Rises=F Damp=T
 DIIS: error= 1.21D-02 at cycle   2 NSaved=   2.
 NSaved= 2 IEnMin= 2 EnMin= -228.692085937348     IErMin= 2 ErrMin= 1.21D-02
 ErrMax= 1.21D-02  0.00D+00 EMaxC= 1.00D-01 BMatC= 8.15D-03 BMatP= 7.54D-02
 IDIUse=3 WtCom= 8.79D-01 WtEn= 1.21D-01
 Coeff-Com:  0.101D+00 0.899D+00
 Coeff-En:   0.182D+00 0.818D+00
 Coeff:      0.110D+00 0.890D+00
 Gap=     0.251 Goal=   None    Shift=    0.000
 RMSDP=4.30D-03 MaxDP=3.99D-02 DE=-3.13D-02 OVMax= 1.57D-01

 Cycle   3  Pass 0  IDiag  1:
 E= -228.729531449807     Delta-E=       -0.037445512459 Rises=F Damp=F
 DIIS: error= 1.85D-02 at cycle   3 NSaved=   3.
 NSaved= 3 IEnMin= 3 EnMin= -228.729531449807     IErMin= 2 ErrMin= 1.21D-02
 ErrMax= 1.85D-02  0.00D+00 EMaxC= 1.00D-01 BMatC= 1.13D-02 BMatP= 8.15D-03
 IDIUse=2 WtCom= 0.00D+00 WtEn= 1.00D+00
 Coeff-En:   0.000D+00 0.000D+00 0.100D+01
 Coeff:      0.000D+00 0.000D+00 0.100D+01
 Gap=     0.238 Goal=   None    Shift=    0.000
 RMSDP=5.87D-03 MaxDP=5.02D-02 DE=-3.74D-02 OVMax= 1.26D-01

 Cycle   4  Pass 0  IDiag  1:
 E= -228.699204581060     Delta-E=        0.030326868748 Rises=F Damp=F
 DIIS: error= 3.85D-02 at cycle   4 NSaved=   4.
 NSaved= 4 IEnMin= 3 EnMin= -228.729531449807     IErMin= 2 ErrMin= 1.21D-02
 ErrMax= 3.85D-02  0.00D+00 EMaxC= 1.00D-01 BMatC= 4.52D-02 BMatP= 8.15D-03
 IDIUse=2 WtCom= 0.00D+00 WtEn= 1.00D+00
 Coeff-En:   0.000D+00 0.000D+00 0.750D+00 0.250D+00
 Coeff:      0.000D+00 0.000D+00 0.750D+00 0.250D+00
 Gap=     0.248 Goal=   None    Shift=    0.000
 RMSDP=2.93D-03 MaxDP=2.37D-02 DE= 3.03D-02 OVMax= 6.80D-02

 Cycle   5  Pass 0  IDiag  1:
 E= -228.737493669236     Delta-E=       -0.038289088176 Rises=F Damp=F
 DIIS: error= 8.86D-03 at cycle   5 NSaved=   5.
 NSaved= 5 IEnMin= 5 EnMin= -228.737493669236     IErMin= 5 ErrMin= 8.86D-03
 ErrMax= 8.86D-03  0.00D+00 EMaxC= 1.00D-01 BMatC= 2.54D-03 BMatP= 8.15D-03
 IDIUse=3 WtCom= 9.11D-01 WtEn= 8.86D-02
 Coeff-Com: -0.104D-02 0.131D-01 0.275D+00-0.485D-01 0.762D+00
 Coeff-En:   0.000D+00 0.000D+00 0.228D+00 0.000D+00 0.772D+00
 Coeff:     -0.948D-03 0.119D-01 0.270D+00-0.442D-01 0.763D+00
 Gap=     0.252 Goal=   None    Shift=    0.000
 RMSDP=1.01D-03 MaxDP=7.57D-03 DE=-3.83D-02 OVMax= 2.24D-02

 Cycle   6  Pass 0  IDiag  1:
 E= -228.739809037799     Delta-E=       -0.002315368563 Rises=F Damp=F
 DIIS: error= 5.67D-04 at cycle   6 NSaved=   6.
 NSaved= 6 IEnMin= 6 EnMin= -228.739809037799     IErMin= 6 ErrMin= 5.67D-04
 ErrMax= 5.67D-04  0.00D+00 EMaxC= 1.00D-01 BMatC= 1.17D-05 BMatP= 2.54D-03
 IDIUse=3 WtCom= 9.94D-01 WtEn= 5.67D-03
 Coeff-Com: -0.384D-02 0.942D-02 0.806D-01-0.435D-01 0.366D+00 0.591D+00
 Coeff-En:   0.000D+00 0.000D+00 0.000D+00 0.000D+00 0.000D+00 0.100D+01
 Coeff:     -0.382D-02 0.937D-02 0.801D-01-0.432D-01 0.364D+00 0.594D+00
 Gap=     0.252 Goal=   None    Shift=    0.000
 RMSDP=7.66D-05 MaxDP=8.04D-04 DE=-2.32D-03 OVMax= 1.70D-03

 Cycle   7  Pass 0  IDiag  1:
 E= -228.739820495792     Delta-E=       -0.000011457993 Rises=F Damp=F
 DIIS: error= 1.65D-04 at cycle   7 NSaved=   7.
 NSaved= 7 IEnMin= 7 EnMin= -228.739820495792     IErMin= 7 ErrMin= 1.65D-04
 ErrMax= 1.65D-04  0.00D+00 EMaxC= 1.00D-01 BMatC= 7.81D-07 BMatP= 1.17D-05
 IDIUse=3 WtCom= 9.98D-01 WtEn= 1.65D-03
 Coeff-Com: -0.217D-02 0.449D-02 0.228D-01-0.221D-01 0.152D+00 0.365D+00
 Coeff-Com:  0.480D+00
 Coeff-En:   0.000D+00 0.000D+00 0.000D+00 0.000D+00 0.000D+00 0.000D+00
 Coeff-En:   0.100D+01
 Coeff:     -0.217D-02 0.448D-02 0.227D-01-0.221D-01 0.152D+00 0.365D+00
 Coeff:      0.481D+00
 Gap=     0.252 Goal=   None    Shift=    0.000
 RMSDP=1.71D-05 MaxDP=2.20D-04 DE=-1.15D-05 OVMax= 4.94D-04

 Cycle   8  Pass 0  IDiag  1:
 E= -228.739821315367     Delta-E=       -0.000000819575 Rises=F Damp=F
 DIIS: error= 1.82D-05 at cycle   8 NSaved=   8.
 NSaved= 8 IEnMin= 8 EnMin= -228.739821315367     IErMin= 8 ErrMin= 1.82D-05
 ErrMax= 1.82D-05  0.00D+00 EMaxC= 1.00D-01 BMatC= 1.11D-08 BMatP= 7.81D-07
 IDIUse=1 WtCom= 1.00D+00 WtEn= 0.00D+00
 Coeff-Com: -0.681D-04-0.139D-03 0.181D-02-0.156D-02 0.146D-01 0.726D-01
 Coeff-Com:  0.133D+00 0.780D+00
 Coeff:     -0.681D-04-0.139D-03 0.181D-02-0.156D-02 0.146D-01 0.726D-01
 Coeff:      0.133D+00 0.780D+00
 Gap=     0.252 Goal=   None    Shift=    0.000
 RMSDP=1.78D-06 MaxDP=1.51D-05 DE=-8.20D-07 OVMax= 3.36D-05

 Initial convergence to 1.0D-05 achieved.  Increase integral accuracy.
 Cycle   9  Pass 1  IDiag  1:
 E= -228.739853860169     Delta-E=       -0.000032544802 Rises=F Damp=F
 DIIS: error= 1.17D-05 at cycle   1 NSaved=   1.
 NSaved= 1 IEnMin= 1 EnMin= -228.739853860169     IErMin= 1 ErrMin= 1.17D-05
 ErrMax= 1.17D-05  0.00D+00 EMaxC= 1.00D-01 BMatC= 7.95D-09 BMatP= 7.95D-09
 IDIUse=1 WtCom= 1.00D+00 WtEn= 0.00D+00
 Coeff-Com:  0.100D+01
 Coeff:      0.100D+01
 Gap=     0.252 Goal=   None    Shift=    0.000
 RMSDP=1.78D-06 MaxDP=1.51D-05 DE=-3.25D-05 OVMax= 3.44D-05

 Cycle  10  Pass 1  IDiag  1:
 E= -228.739853871324     Delta-E=       -0.000000011154 Rises=F Damp=F
 DIIS: error= 3.33D-06 at cycle   2 NSaved=   2.
 NSaved= 2 IEnMin= 2 EnMin= -228.739853871324     IErMin= 2 ErrMin= 3.33D-06
 ErrMax= 3.33D-06  0.00D+00 EMaxC= 1.00D-01 BMatC= 3.95D-10 BMatP= 7.95D-09
 IDIUse=1 WtCom= 1.00D+00 WtEn= 0.00D+00
 Coeff-Com:  0.138D-01 0.986D+00
 Coeff:      0.138D-01 0.986D+00
 Gap=     0.252 Goal=   None    Shift=    0.000
 RMSDP=8.66D-07 MaxDP=8.73D-06 DE=-1.12D-08 OVMax= 1.33D-05

 Cycle  11  Pass 1  IDiag  1:
 E= -228.739853871016     Delta-E=        0.000000000307 Rises=F Damp=F
 DIIS: error= 3.84D-06 at cycle   3 NSaved=   3.
 NSaved= 3 IEnMin= 2 EnMin= -228.739853871324     IErMin= 2 ErrMin= 3.33D-06
 ErrMax= 3.84D-06  0.00D+00 EMaxC= 1.00D-01 BMatC= 7.96D-10 BMatP= 3.95D-10
 IDIUse=1 WtCom= 1.00D+00 WtEn= 0.00D+00
 Coeff-Com: -0.223D-01 0.606D+00 0.417D+00
 Coeff:     -0.223D-01 0.606D+00 0.417D+00
 Gap=     0.252 Goal=   None    Shift=    0.000
 RMSDP=4.75D-07 MaxDP=5.66D-06 DE= 3.07D-10 OVMax= 8.88D-06

 Cycle  12  Pass 1  IDiag  1:
 E= -228.739853871709     Delta-E=       -0.000000000692 Rises=F Damp=F
 DIIS: error= 7.89D-07 at cycle   4 NSaved=   4.
 NSaved= 4 IEnMin= 4 EnMin= -228.739853871709     IErMin= 4 ErrMin= 7.89D-07
 ErrMax= 7.89D-07  0.00D+00 EMaxC= 1.00D-01 BMatC= 2.02D-11 BMatP= 3.95D-10
 IDIUse=1 WtCom= 1.00D+00 WtEn= 0.00D+00
 Coeff-Com: -0.153D-01 0.300D+00 0.225D+00 0.490D+00
 Coeff:     -0.153D-01 0.300D+00 0.225D+00 0.490D+00
 Gap=     0.252 Goal=   None    Shift=    0.000
 RMSDP=1.10D-07 MaxDP=1.60D-06 DE=-6.92D-10 OVMax= 2.02D-06

 Cycle  13  Pass 1  IDiag  1:
 E= -228.739853871724     Delta-E=       -0.000000000016 Rises=F Damp=F
 DIIS: error= 3.03D-07 at cycle   5 NSaved=   5.
 NSaved= 5 IEnMin= 5 EnMin= -228.739853871724     IErMin= 5 ErrMin= 3.03D-07
 ErrMax= 3.03D-07  0.00D+00 EMaxC= 1.00D-01 BMatC= 2.43D-12 BMatP= 2.02D-11
 IDIUse=1 WtCom= 1.00D+00 WtEn= 0.00D+00
 Coeff-Com: -0.368D-02 0.520D-01 0.403D-01 0.276D+00 0.636D+00
 Coeff:     -0.368D-02 0.520D-01 0.403D-01 0.276D+00 0.636D+00
 Gap=     0.252 Goal=   None    Shift=    0.000
 RMSDP=3.56D-08 MaxDP=3.73D-07 DE=-1.58D-11 OVMax= 7.98D-07

 Cycle  14  Pass 1  IDiag  1:
 E= -228.739853871727     Delta-E=       -0.000000000003 Rises=F Damp=F
 DIIS: error= 6.27D-08 at cycle   6 NSaved=   6.
 NSaved= 6 IEnMin= 6 EnMin= -228.739853871727     IErMin= 6 ErrMin= 6.27D-08
 ErrMax= 6.27D-08  0.00D+00 EMaxC= 1.00D-01 BMatC= 1.78D-13 BMatP= 2.43D-12
 IDIUse=1 WtCom= 1.00D+00 WtEn= 0.00D+00
 Coeff-Com: -0.102D-02 0.127D-01 0.105D-01 0.123D+00 0.350D+00 0.504D+00
 Coeff:     -0.102D-02 0.127D-01 0.105D-01 0.123D+00 0.350D+00 0.504D+00
 Gap=     0.252 Goal=   None    Shift=    0.000
 RMSDP=1.11D-08 MaxDP=1.23D-07 DE=-2.50D-12 OVMax= 2.46D-07

 Cycle  15  Pass 1  IDiag  1:
 E= -228.739853871725     Delta-E=        0.000000000002 Rises=F Damp=F
 DIIS: error= 2.23D-08 at cycle   7 NSaved=   7.
 NSaved= 7 IEnMin= 6 EnMin= -228.739853871727     IErMin= 7 ErrMin= 2.23D-08
 ErrMax= 2.23D-08  0.00D+00 EMaxC= 1.00D-01 BMatC= 1.73D-14 BMatP= 1.78D-13
 IDIUse=1 WtCom= 1.00D+00 WtEn= 0.00D+00
 Coeff-Com: -0.136D-03-0.111D-03 0.864D-03 0.287D-01 0.106D+00 0.264D+00
 Coeff-Com:  0.600D+00
 Coeff:     -0.136D-03-0.111D-03 0.864D-03 0.287D-01 0.106D+00 0.264D+00
 Coeff:      0.600D+00
 Gap=     0.252 Goal=   None    Shift=    0.000
 RMSDP=3.13D-09 MaxDP=3.49D-08 DE= 1.93D-12 OVMax= 6.67D-08

 SCF Done:  E(RB3LYP) =  -228.739853872     A.U. after   15 cycles
            NFock= 15  Conv=0.31D-08     -V/T= 2.0081
 KE= 2.268997923189D+02 PE=-8.539381787479D+02 EE= 2.376791275416D+02
 Leave Link  502 at Sat Nov 14 17:21:10 2015, MaxMem=    33554432 cpu:         3.2
 (Enter /home/Applications/g09/g09/l801.exe)
 DoSCS=F DFT=T ScalE2(SS,OS)=  1.000000  1.000000
 ExpMin= 1.83D-01 ExpMax= 3.22D+02 ExpMxC= 3.22D+02 IAcc=3 IRadAn=         5 AccDes= 0.00D+00
 HarFok:  IExCor=  205 AccDes= 0.00D+00 IRadAn=         5 IDoV=-2 UseB2=F ITyADJ=14
 ICtDFT= 12500011 ScaDFX=  1.000000  1.000000  1.000000  1.000000
 Largest valence mixing into a core orbital is  1.75D-04
 Largest core mixing into a valence orbital is  4.77D-05
 Range of M.O.s used for correlation:     6    53
 NBasis=    53 NAE=    18 NBE=    18 NFC=     5 NFV=     0
 NROrb=     48 NOA=    13 NOB=    13 NVA=    35 NVB=    35
 Leave Link  801 at Sat Nov 14 17:21:10 2015, MaxMem=    33554432 cpu:         0.2
 (Enter /home/Applications/g09/g09/l914.exe)
 RHF ground state
 MDV=    33554432 DFT=T DoStab=F Mixed=T DoRPA=F DoScal=F NonHer=F
 Keep R1, R2, and R3 ints in memory in canonical form, NReq=5596273.
 FoFCou: FMM=F IPFlag=           0 FMFlag=           0 FMFlg1=           0
         NFxFlg=           0 DoJE=F BraDBF=F KetDBF=F FulRan=T
         wScrn=  0.000000 ICntrl=     600 IOpCl=  0 I1Cent=           0 NGrid=           0
         NMat0=    1 NMatS0=   1431 NMatT0=    0 NMatD0=    1 NMtDS0=    0 NMtDT0=    0
 Symmetry not used in FoFCou.
 Making orbital integer symmetry assigments:
 Orbital symmetries:
       Occupied  (A) (A) (A) (A) (A) (A) (A) (A) (A) (A) (A) (A)
                 (A) (A) (A) (A) (A) (A)
       Virtual   (A) (A) (A) (A) (A) (A) (A) (A) (A) (A) (A) (A)
                 (A) (A) (A) (A) (A) (A) (A) (A) (A) (A) (A) (A)
                 (A) (A) (A) (A) (A) (A) (A) (A) (A) (A) (A)
    60 initial guesses have been made.
 Convergence on wavefunction:    0.000001000000000
 Davidson Disk Diagonalization:  ConvIn= 1.00D-06 SkipCon=T Conv= 1.00D-06.
 Max sub-space:   240 roots to seek:    60 dimension of matrix:          910
 Iteration     1 Dimension    60 NMult     0 NNew     60
 CISAX will form    60 AO SS matrices at one time.
 NMat=    60 NSing=    60 JSym2X= 0.
 New state      1 was old state      2
 New state      2 was old state      1
 New state      3 was old state      4
 New state      4 was old state      6
 New state      5 was old state      7
 New state      6 was old state      8
 New state      7 was old state      9
 New state      8 was old state     13
 New state      9 was old state     12
 New state     10 was old state     11
 New state     11 was old state      5
 New state     12 was old state     10
 New state     13 was old state     14
 New state     14 was old state      3
 Excitation Energies [eV] at current iteration:
 Root      1 :     7.410386563889758
 Root      2 :     8.037766736714229
 Root      3 :     8.206407407755867
 Root      4 :     8.379333523400186
 Root      5 :     9.152824536331085
 Root      6 :     9.371481017738722
 Root      7 :     9.676041347051143
 Root      8 :    10.029157559796760
 Root      9 :    10.109025550640340
 Root     10 :    10.203623893905900
 Root     11 :    10.254140564828240
 Root     12 :    10.292556788836790
 Root     13 :    10.612312712483220
 Root     14 :    10.701723124151550
 Root     15 :    10.891166655168970
 Root     16 :    10.945862357221240
 Root     17 :    11.320269035296130
 Root     18 :    11.383186736779560
 Root     19 :    11.477672338377260
 Root     20 :    11.526328481425840
 Root     21 :    11.804349895267040
 Root     22 :    11.991764057046070
 Root     23 :    12.134640527847830
 Root     24 :    12.239735527773420
 Root     25 :    12.596373134621810
 Root     26 :    12.888441976509840
 Root     27 :    13.224141050744050
 Root     28 :    13.391963505462030
 Root     29 :    13.455273784677520
 Root     30 :    13.509869750491220
 Root     31 :    13.755346999206970
 Root     32 :    13.798162812260200
 Root     33 :    13.865584074005010
 Root     34 :    13.943067108932370
 Root     35 :    14.068215562424760
 Root     36 :    14.116850578724240
 Root     37 :    14.251683831894940
 Root     38 :    14.526260453285680
 Root     39 :    14.635217313567210
 Root     40 :    14.675821100536060
 Root     41 :    14.854696567204750
 Root     42 :    14.872075102053550
 Root     43 :    14.915097979195520
 Root     44 :    15.018942031824230
 Root     45 :    15.215281861320730
 Root     46 :    15.254792477361860
 Root     47 :    15.486651347038710
 Root     48 :    15.567325055078050
 Root     49 :    15.653705435669610
 Root     50 :    15.816336284390870
 Root     51 :    15.825530432047710
 Root     52 :    15.862946549980530
 Root     53 :    16.055295094795170
 Root     54 :    16.295845409568080
 Root     55 :    16.344589921036630
 Root     56 :    16.353428525056470
 Root     57 :    17.033611737143960
 Root     58 :    17.349137445892570
 Root     59 :    17.615915955254700
 Root     60 :    19.538224974105570
 Iteration     2 Dimension   120 NMult    60 NNew     60
 CISAX will form    60 AO SS matrices at one time.
 NMat=    60 NSing=    60 JSym2X= 0.
 Root      1 not converged, maximum delta is    0.273973887775967
 Root      2 not converged, maximum delta is    0.235902042298596
 Root      3 not converged, maximum delta is    0.033280868308123
 Root      4 not converged, maximum delta is    0.022352483358057
 Root      5 not converged, maximum delta is    0.022048307528495
 Root      6 not converged, maximum delta is    0.056791094847655
 Root      7 not converged, maximum delta is    0.352876775417286
 Root      8 not converged, maximum delta is    0.395467202008836
 New state      9 was old state     14
 Root      9 not converged, maximum delta is    0.355448351392388
 New state     10 was old state      9
 Root     10 not converged, maximum delta is    0.268565539151173
 Root     11 not converged, maximum delta is    0.373288018177010
 New state     12 was old state     10
 Root     12 not converged, maximum delta is    0.117018725896685
 New state     13 was old state     12
 Root     13 not converged, maximum delta is    0.217096327167935
 New state     14 was old state     13
 Root     14 not converged, maximum delta is    0.217701516970606
 Root     15 not converged, maximum delta is    0.154303888326563
 Excitation Energies [eV] at current iteration:
 Root      1 :     7.108075807624876   Change is   -0.302310756264883
 Root      2 :     7.466838552290624   Change is   -0.570928184423604
 Root      3 :     8.196930281549653   Change is   -0.009477126206213
 Root      4 :     8.355165130065796   Change is   -0.024168393334389
 Root      5 :     9.124437154378317   Change is   -0.028387381952768
 Root      6 :     9.350341396453397   Change is   -0.021139621285324
 Root      7 :     9.640285190207159   Change is   -0.035756156843985
 Root      8 :     9.688118614744287   Change is   -0.341038945052473
 Root      9 :     9.802274416571100   Change is   -0.899448707580451
 Root     10 :    10.089593733096590   Change is   -0.019431817543758
 Root     11 :    10.121636611142610   Change is   -0.132503953685623
 Root     12 :    10.184142524056200   Change is   -0.019481369849700
 Root     13 :    10.275215079758070   Change is   -0.017341709078719
 Root     14 :    10.597271198646940   Change is   -0.015041513836285
 Root     15 :    10.846214357618690   Change is   -0.044952297550282
 Root     16 :    10.927474278806150   Change is   -0.018388078415095
 Root     17 :    11.285422261475510   Change is   -0.034846773820621
 Root     18 :    11.337323370230480   Change is   -0.140348968146774
 Root     19 :    11.362188738584930   Change is   -0.020997998194628
 Root     20 :    11.474866702788810   Change is   -0.051461778637025
 Root     21 :    11.739317142386600   Change is   -0.065032752880443
 Root     22 :    11.966103400713340   Change is   -0.025660656332728
 Root     23 :    12.076761410161040   Change is   -0.057879117686796
 Root     24 :    12.175167331885890   Change is   -0.064568195887529
 Root     25 :    12.397688634446470   Change is   -0.826452416297573
 Root     26 :    12.564433235950830   Change is   -0.031939898670973
 Root     27 :    12.874194053070520   Change is   -0.014247923439326
 Root     28 :    13.226483100887770   Change is   -0.165480404574264
 Root     29 :    13.371038208546680   Change is   -0.138831541944539
 Root     30 :    13.411803956316840   Change is   -0.043469828360676
 Root     31 :    13.487544015784520   Change is   -0.310618796475675
 Root     32 :    13.657454217993810   Change is   -0.097892781213156
 Root     33 :    13.763325671802250   Change is   -0.179741437130119
 Root     34 :    13.818701636637200   Change is   -0.046882437367811
 Root     35 :    13.963376265749030   Change is   -0.104839296675737
 Root     36 :    13.991532698000580   Change is   -0.125317880723653
 Root     37 :    14.029174015829310   Change is   -0.222509816065639
 Root     38 :    14.435359327856670   Change is   -0.199857985710543
 Root     39 :    14.506939170909600   Change is   -0.019321282376079
 Root     40 :    14.538377763986540   Change is   -0.137443336549519
 Root     41 :    14.690791326297560   Change is   -0.181283775755994
 Root     42 :    14.772174842794810   Change is   -0.142923136400713
 Root     43 :    14.824997537920880   Change is   -0.029699029283864
 Root     44 :    14.905141611649560   Change is   -0.310140249671168
 Root     45 :    14.993916843922290   Change is   -0.025025187901942
 Root     46 :    15.213964331014100   Change is   -0.040828146347762
 Root     47 :    15.343242867299840   Change is   -0.143408479738869
 Root     48 :    15.486584266312150   Change is   -0.167121169357459
 Root     49 :    15.495645287029800   Change is   -0.071679768048255
 Root     50 :    15.591161765715850   Change is   -0.234368666331861
 Root     51 :    15.719938241737590   Change is   -0.096398042653281
 Root     52 :    15.827741149845180   Change is   -0.035205400135342
 Root     53 :    15.941226218784100   Change is   -0.114068876011073
 Root     54 :    15.960532619123200   Change is   -0.335312790444884
 Root     55 :    16.211544152178750   Change is   -0.133045768857876
 Root     56 :    16.248614322771400   Change is   -0.104814202285064
 Root     57 :    16.451289703717840   Change is   -0.582322033426112
 Root     58 :    16.501686078892130   Change is   -0.847451367000430
 Root     59 :    16.621342932061070   Change is   -0.994573023193623
 Root     60 :    17.121081195418210
 Iteration     3 Dimension   135 NMult   120 NNew     15
 CISAX will form    15 AO SS matrices at one time.
 NMat=    15 NSing=    15 JSym2X= 0.
 Root      1 not converged, maximum delta is    0.002187602957459
 Root      2 not converged, maximum delta is    0.001728206612969
 Root      3 not converged, maximum delta is    0.000152414584421
 Root      4 not converged, maximum delta is    0.000205883134677
 Root      5 not converged, maximum delta is    0.000286612523999
 Root      6 not converged, maximum delta is    0.000495517677223
 Root      7 not converged, maximum delta is    0.011203215269205
 Root      8 not converged, maximum delta is    0.011462585859320
 Root      9 not converged, maximum delta is    0.005726535347139
 Root     10 not converged, maximum delta is    0.000704642229497
 Root     11 not converged, maximum delta is    0.000847530732317
 Root     12 not converged, maximum delta is    0.000714953431031
 Root     13 not converged, maximum delta is    0.000277752301355
 Root     14 not converged, maximum delta is    0.000556614242767
 Root     15 not converged, maximum delta is    0.000259157589389
 Excitation Energies [eV] at current iteration:
 Root      1 :     7.106419132204095   Change is   -0.001656675420781
 Root      2 :     7.465562435343172   Change is   -0.001276116947452
 Root      3 :     8.196916737055146   Change is   -0.000013544494508
 Root      4 :     8.355141458146132   Change is   -0.000023671919665
 Root      5 :     9.124388463458773   Change is   -0.000048690919543
 Root      6 :     9.350276480289292   Change is   -0.000064916164105
 Root      7 :     9.639061384760602   Change is   -0.001223805446556
 Root      8 :     9.686994488741499   Change is   -0.001124126002787
 Root      9 :     9.798344916796436   Change is   -0.003929499774662
 Root     10 :    10.089534948789110   Change is   -0.000058784307476
 Root     11 :    10.121480025573030   Change is   -0.000156585569584
 Root     12 :    10.184046662969390   Change is   -0.000095861086810
 Root     13 :    10.275177708650310   Change is   -0.000037371107766
 Root     14 :    10.597194766263630   Change is   -0.000076432383313
 Root     15 :    10.846164379961340   Change is   -0.000049977657351
 Iteration     4 Dimension   150 NMult   135 NNew     15
 CISAX will form    15 AO SS matrices at one time.
 NMat=    15 NSing=    15 JSym2X= 0.
 Root      1 not converged, maximum delta is    0.000046456893380
 Root      2 not converged, maximum delta is    0.000054263951312
 Root      3 not converged, maximum delta is    0.000003790736795
 Root      4 not converged, maximum delta is    0.000004048318823
 Root      5 not converged, maximum delta is    0.000008607231680
 Root      6 not converged, maximum delta is    0.000007624902355
 Root      7 not converged, maximum delta is    0.000055518008014
 Root      8 not converged, maximum delta is    0.000048608699532
 Root      9 not converged, maximum delta is    0.000123917280564
 Root     10 not converged, maximum delta is    0.000008658424581
 Root     11 not converged, maximum delta is    0.000014537977844
 Root     12 not converged, maximum delta is    0.000012458384132
 Root     13 not converged, maximum delta is    0.000008554233868
 Root     14 not converged, maximum delta is    0.000012786732079
 Root     15 not converged, maximum delta is    0.000013094587051
 Excitation Energies [eV] at current iteration:
 Root      1 :     7.106417112232974   Change is   -0.000002019971120
 Root      2 :     7.465561074063493   Change is   -0.000001361279679
 Root      3 :     8.196916721674505   Change is   -0.000000015380641
 Root      4 :     8.355141439372957   Change is   -0.000000018773174
 Root      5 :     9.124388400140278   Change is   -0.000000063318496
 Root      6 :     9.350276417263535   Change is   -0.000000063025757
 Root      7 :     9.639059255968354   Change is   -0.000002128792248
 Root      8 :     9.686992739159388   Change is   -0.000001749582110
 Root      9 :     9.798338463784344   Change is   -0.000006453012094
 Root     10 :    10.089534885636710   Change is   -0.000000063152399
 Root     11 :    10.121479820248660   Change is   -0.000000205324369
 Root     12 :    10.184046572514200   Change is   -0.000000090455190
 Root     13 :    10.275177664851870   Change is   -0.000000043798430
 Root     14 :    10.597194653265870   Change is   -0.000000112997760
 Root     15 :    10.846164317615130   Change is   -0.000000062346202
 Iteration     5 Dimension   165 NMult   150 NNew     15
 CISAX will form    15 AO SS matrices at one time.
 NMat=    15 NSing=    15 JSym2X= 0.
 Root      1 not converged, maximum delta is    0.000001708318307
 Root      2 not converged, maximum delta is    0.000001209068188
 Root      3 has converged.
 Root      4 has converged.
 Root      5 has converged.
 Root      6 has converged.
 Root      7 not converged, maximum delta is    0.000002178671911
 Root      8 not converged, maximum delta is    0.000002129627608
 Root      9 not converged, maximum delta is    0.000002919757409
 Root     10 has converged.
 Root     11 not converged, maximum delta is    0.000001041738597
 Root     12 has converged.
 Root     13 has converged.
 Root     14 has converged.
 Root     15 has converged.
 Excitation Energies [eV] at current iteration:
 Root      1 :     7.106417110175938   Change is   -0.000000002057036
 Root      2 :     7.465561072985654   Change is   -0.000000001077839
 Root      3 :     8.196916721664383   Change is   -0.000000000010121
 Root      4 :     8.355141439361610   Change is   -0.000000000011349
 Root      5 :     9.124388400096958   Change is   -0.000000000043321
 Root      6 :     9.350276417213253   Change is   -0.000000000050283
 Root      7 :     9.639059254203799   Change is   -0.000000001764556
 Root      8 :     9.686992737684175   Change is   -0.000000001475213
 Root      9 :     9.798338458648661   Change is   -0.000000005135682
 Root     10 :    10.089534885583150   Change is   -0.000000000053559
 Root     11 :    10.121479820062870   Change is   -0.000000000185791
 Root     12 :    10.184046572443730   Change is   -0.000000000070473
 Root     13 :    10.275177664815450   Change is   -0.000000000036424
 Root     14 :    10.597194653140440   Change is   -0.000000000125424
 Root     15 :    10.846164317563120   Change is   -0.000000000052018
 Iteration     6 Dimension   170 NMult   165 NNew      5
 CISAX will form     5 AO SS matrices at one time.
 NMat=     5 NSing=     5 JSym2X= 0.
 Root      1 has converged.
 Root      2 has converged.
 Root      3 has converged.
 Root      4 has converged.
 Root      5 has converged.
 Root      6 has converged.
 Root      7 has converged.
 Root      8 has converged.
 Root      9 has converged.
 Root     10 has converged.
 Root     11 has converged.
 Root     12 has converged.
 Root     13 has converged.
 Root     14 has converged.
 Root     15 has converged.
 Excitation Energies [eV] at current iteration:
 Root      1 :     7.106417110174964   Change is   -0.000000000000974
 Root      2 :     7.465561072985420   Change is   -0.000000000000234
 Root      3 :     8.196916721664397   Change is    0.000000000000014
 Root      4 :     8.355141439361597   Change is   -0.000000000000012
 Root      5 :     9.124388400096928   Change is   -0.000000000000030
 Root      6 :     9.350276417213243   Change is   -0.000000000000011
 Root      7 :     9.639059254202575   Change is   -0.000000000001224
 Root      8 :     9.686992737683191   Change is   -0.000000000000985
 Root      9 :     9.798338458644771   Change is   -0.000000000003890
 Root     10 :    10.089534885583100   Change is   -0.000000000000054
 Root     11 :    10.121479820062750   Change is   -0.000000000000121
 Root     12 :    10.184046572443710   Change is   -0.000000000000015
 Root     13 :    10.275177664815420   Change is   -0.000000000000030
 Root     14 :    10.597194653140350   Change is   -0.000000000000094
 Root     15 :    10.846164317563080   Change is   -0.000000000000033
 Convergence achieved on expansion vectors.
 ***********************************************************************
 Excited states from <AA,BB:AA,BB> singles matrix:
 ***********************************************************************
 
 1PDM for each excited state written to RWF  633
 Ground to excited state transition densities written to RWF  633
 Ground to excited state transition electric dipole moments (Au):
       state          X           Y           Z        Dip. S.      Osc.
         1         0.8836     -0.0621     -0.0137      0.7849      0.1366
         2        -0.6513     -0.1395     -0.0163      0.4439      0.0812
         3         0.0086      0.0366     -0.0414      0.0031      0.0006
         4         0.0027      0.0753     -0.1247      0.0212      0.0043
         5         0.0647      0.1034     -0.0761      0.0207      0.0046
         6         0.1006     -0.0372     -0.0085      0.0116      0.0027
         7         0.4821      0.5215     -0.0570      0.5077      0.1199
         8        -0.5293     -0.4456     -0.0269      0.4795      0.1138
         9        -0.2562      1.2471     -0.0432      1.6228      0.3896
        10        -0.0805      0.0105     -0.1100      0.0187      0.0046
        11         0.1692     -0.1311     -0.0045      0.0458      0.0114
        12         0.0410     -0.0950     -0.0190      0.0111      0.0028
        13        -0.0473      0.1128      0.0761      0.0207      0.0052
        14         0.1518     -0.0745      0.0003      0.0286      0.0074
        15        -0.0519     -0.0828     -0.0802      0.0160      0.0042
 Ground to excited state transition velocity dipole moments (Au):
       state          X           Y           Z        Dip. S.      Osc.
         1         0.0093     -0.0495     -0.0039      0.0026      0.0065
         2        -0.0024     -0.0349     -0.0044      0.0012      0.0030
         3         0.0018      0.0038      0.0142      0.0002      0.0005
         4        -0.0013     -0.0048      0.0675      0.0046      0.0100
         5        -0.0119     -0.0034      0.0133      0.0003      0.0007
         6        -0.0105     -0.0085      0.0001      0.0002      0.0004
         7        -0.0493     -0.0157      0.0365      0.0040      0.0075
         8         0.0653      0.0191      0.0276      0.0054      0.0101
         9         0.0279     -0.0331     -0.0203      0.0023      0.0042
        10         0.0105      0.0016      0.0421      0.0019      0.0034
        11        -0.0241      0.0041     -0.0214      0.0011      0.0019
        12        -0.0044      0.0003     -0.0590      0.0035      0.0062
        13         0.0084     -0.0122      0.0188      0.0006      0.0010
        14        -0.0260      0.0075     -0.0113      0.0009      0.0015
        15         0.0169      0.0015     -0.0039      0.0003      0.0005
 Ground to excited state transition magnetic dipole moments (Au):
       state          X           Y           Z
         1         0.0722      0.0155      0.4678
         2         0.1220      0.0577     -0.3196
         3        -0.0039      0.5424     -0.0315
         4        -1.4484     -0.3624     -0.0150
         5         0.1073      0.0517     -0.0492
         6        -0.2649     -0.0910     -0.0056
         7         0.0001      0.0072     -0.1249
         8        -0.1151      0.0379      0.1577
         9         0.0244     -0.0187     -0.0284
        10        -0.4069      0.1422      0.0334
        11        -0.2779     -0.1510     -0.0883
        12         0.0218      0.1411     -0.0107
        13        -0.0430      0.1605      0.0123
        14         0.1030      0.0854     -0.1061
        15        -0.0080      0.3416      0.0582
 Ground to excited state transition velocity quadrupole moments (Au):
       state          XX          YY          ZZ          XY          XZ          YZ
         1        -0.0809      0.0372      0.0287      0.1283     -0.0003      0.0072
         2         0.0187     -0.0609      0.0202     -0.1759      0.0006      0.0085
         3        -0.0006      0.0011     -0.0046     -0.0087      0.0043     -0.0403
         4         0.0196      0.0022     -0.0077     -0.0078      0.0438     -0.1758
         5         0.0167     -0.0027     -0.0091      0.0234      0.1932     -0.0095
         6         0.0115     -0.0103      0.0067     -0.0461      0.0183     -0.0854
         7         0.1193     -0.1210     -0.0224     -0.1840     -0.0454     -0.0761
         8        -0.1751      0.1231      0.0203      0.1966     -0.0077     -0.1037
         9         0.2208     -0.2228     -0.0559      0.2253      0.0057     -0.0025
        10        -0.0204      0.0045      0.0017      0.0540     -0.0413     -0.0256
        11        -0.0179     -0.0054      0.0130     -0.1134      0.1053     -0.0216
        12        -0.0378      0.0069      0.0067     -0.0200      0.0207     -0.0629
        13         0.0475     -0.0265     -0.0082      0.0279     -0.0453     -0.0762
        14         0.0047     -0.0004     -0.0015     -0.0399     -0.0420      0.0102
        15        -0.0055      0.0357     -0.0016      0.0264     -0.0636      0.0004
 <0|del|b> * <b|rxdel|0> + <0|del|b> * <b|delr+rdel|0>
 Rotatory Strengths (R) in cgs (10**-40 erg-esu-cm/Gauss)
       state          XX          YY          ZZ    R(velocity)    E-M Angle
         1        -4.2021     -0.7942     -0.1989     -1.7317       94.60
         2         0.2508      0.4134     -2.9662     -0.7673       94.19
         3         1.7544     -0.4725      2.5398      1.2739       78.36
         4         0.4769      1.9297      3.7204      2.0423       88.49
         5         0.1424     -2.2446     -2.3368     -1.4797      154.00
         6         0.9516      3.7724      2.5665      2.4302       20.25
         7       -12.0870      5.8928     -3.1479     -3.1140      126.21
         8        10.5590    -15.2696     -0.1690     -1.6265       99.68
         9        -3.1374      5.6630      1.1576      1.2278       20.33
        10         3.7794     -5.1718     -3.6820     -1.6915       98.15
        11         3.0948      6.3388      5.6821      5.0386       41.73
        12         1.7444     -0.3447     -0.3139      0.3620       86.11
        13        -1.6395     -1.2150     -1.0535     -1.3027      121.54
        14         2.3664     -1.9907     -1.8931     -0.5058       99.61
        15         0.2604     -0.2232      0.2513      0.0962       88.46
 1/2[<0|r|b>*<b|rxdel|0> + (<0|rxdel|b>*<b|r|0>)*]
 Rotatory Strengths (R) in cgs (10**-40 erg-esu-cm/Gauss)
       state          XX          YY          ZZ     R(length)
         1       -45.0924      0.6795      4.5275    -13.2952
         2        56.1820      5.6875     -3.6802     19.3964
         3         0.0236    -14.0334     -0.9220     -4.9773
         4         2.7294     19.2897     -1.3266      6.8975
         5        -4.9109     -3.7838     -2.6487     -3.7811
         6        18.8550     -2.3937     -0.0341      5.4758
         7        -0.0220     -2.6653     -5.0313     -2.5728
         8       -43.0950     11.9394      2.9942     -9.3871
         9         4.4128     16.4817     -0.8674      6.6757
        10       -23.1652     -1.0595      2.6004     -7.2081
        11        33.2489    -13.9927     -0.2807      6.3252
        12        -0.6320      9.4835     -0.1444      2.9024
        13        -1.4376    -12.8018     -0.6635     -4.9676
        14       -11.0529      4.5014      0.0244     -2.1757
        15        -0.2934     19.9930      3.2993      7.6663
  1/2[<0|del|b>*<b|r|0> + (<0|r|b>*<b|del|0>)*] (Au)
       state          X           Y           Z        Dip. S.   Osc.(frdel)
         1         0.0082      0.0031      0.0001     -0.0113     -0.0076
         2         0.0016      0.0049      0.0001     -0.0065     -0.0043
         3         0.0000      0.0001     -0.0006      0.0004      0.0003
         4         0.0000     -0.0004     -0.0084      0.0088      0.0059
         5        -0.0008     -0.0004     -0.0010      0.0021      0.0014
         6        -0.0011      0.0003      0.0000      0.0007      0.0005
         7        -0.0238     -0.0082     -0.0021      0.0340      0.0227
         8        -0.0346     -0.0085     -0.0007      0.0438      0.0292
         9        -0.0072     -0.0412      0.0009      0.0475      0.0317
        10        -0.0008      0.0000     -0.0046      0.0055      0.0036
        11        -0.0041     -0.0005      0.0001      0.0045      0.0030
        12        -0.0002      0.0000      0.0011     -0.0009     -0.0006
        13        -0.0004     -0.0014      0.0014      0.0003      0.0002
        14        -0.0039     -0.0006      0.0000      0.0045      0.0030
        15        -0.0009     -0.0001      0.0003      0.0007      0.0005

 Excitation energies and oscillator strengths:
 
 Excited State   1:      Singlet-A      7.1064 eV  174.47 nm  f=0.1366  <S**2>=0.000
      17 -> 19         0.28412
      18 -> 19         0.57334
      18 -> 20         0.24161
 This state for optimization and/or second-order correction.
 Total Energy, E(CIS) =  -228.478697837    
 Copying the excited state density for this state as the 1-particle RhoCI density.
 
 Excited State   2:      Singlet-A      7.4656 eV  166.07 nm  f=0.0812  <S**2>=0.000
      17 -> 19         0.46304
      18 -> 19        -0.36497
      18 -> 20         0.36217
 
 Excited State   3:      Singlet-A      8.1969 eV  151.26 nm  f=0.0006  <S**2>=0.000
      18 -> 21         0.69653
 
 Excited State   4:      Singlet-A      8.3551 eV  148.39 nm  f=0.0043  <S**2>=0.000
      16 -> 19         0.69844
 
 Excited State   5:      Singlet-A      9.1244 eV  135.88 nm  f=0.0046  <S**2>=0.000
      18 -> 22         0.67519
      18 -> 23         0.14118
 
 Excited State   6:      Singlet-A      9.3503 eV  132.60 nm  f=0.0027  <S**2>=0.000
      17 -> 20         0.14422
      17 -> 21         0.66660
      18 -> 23        -0.12703
 
 Excited State   7:      Singlet-A      9.6391 eV  128.63 nm  f=0.1199  <S**2>=0.000
      15 -> 19         0.10244
      17 -> 19        -0.13874
      17 -> 20         0.39559
      18 -> 20         0.20777
      18 -> 22        -0.14168
      18 -> 23         0.45418
 
 Excited State   8:      Singlet-A      9.6870 eV  127.99 nm  f=0.1138  <S**2>=0.000
      17 -> 19         0.10551
      17 -> 20        -0.41012
      17 -> 21         0.17961
      18 -> 20        -0.17810
      18 -> 23         0.45972
 
 Excited State   9:      Singlet-A      9.7983 eV  126.54 nm  f=0.3896  <S**2>=0.000
      17 -> 19        -0.34955
      17 -> 20        -0.29958
      17 -> 22        -0.10252
      18 -> 20         0.42118
 
 Excited State  10:      Singlet-A     10.0895 eV  122.88 nm  f=0.0046  <S**2>=0.000
      14 -> 19        -0.23621
      15 -> 19         0.59837
      16 -> 20        -0.16285
      18 -> 24         0.20242
 
 Excited State  11:      Singlet-A     10.1215 eV  122.50 nm  f=0.0114  <S**2>=0.000
      14 -> 19         0.54988
      15 -> 19         0.23590
      16 -> 20         0.20498
      17 -> 20         0.12503
      17 -> 22        -0.15400
      18 -> 24         0.20363
 
 Excited State  12:      Singlet-A     10.1840 eV  121.74 nm  f=0.0028  <S**2>=0.000
      14 -> 19        -0.17589
      15 -> 19        -0.20730
      17 -> 22        -0.36923
      18 -> 23         0.16308
      18 -> 24         0.48553
 
 Excited State  13:      Singlet-A     10.2752 eV  120.66 nm  f=0.0052  <S**2>=0.000
      15 -> 19        -0.13267
      16 -> 20         0.11336
      17 -> 22         0.54440
      18 -> 24         0.39406
 
 Excited State  14:      Singlet-A     10.5972 eV  117.00 nm  f=0.0074  <S**2>=0.000
      14 -> 19        -0.28452
      16 -> 20         0.62209
 
 Excited State  15:      Singlet-A     10.8462 eV  114.31 nm  f=0.0042  <S**2>=0.000
      18 -> 25         0.68288
 SavETr:  write IOETrn=   770 NScale= 10 NData=  16 NLR=1 NState=   15 LETran=     280.
 The selected state is a singlet
 CISAX will form     1 AO SS matrices at one time.
 NMat=     1 NSing=     1 JSym2X= 0.
 CISAX will form     1 AO SS matrices at one time.
 NMat=     1 NSing=     1 JSym2X= 0.
 Leave Link  914 at Sat Nov 14 17:21:35 2015, MaxMem=    33554432 cpu:        24.4
 (Enter /home/Applications/g09/g09/l1002.exe)
 Minotr:  Closed shell wavefunction.
          Computing CIS/TD-HF/TD-KS derivatives.
          Using Z-Vector for PSCF gradient.
          Skipping F1 and S1 gradient terms here.
          IDoAtm=111111111
          Frozen-core window.
          Direct CPHF calculation.
          Differentiating once with respect to electric field.
                with respect to dipole field.
          Differentiating once with respect to nuclear coordinates.
          Requested convergence is 1.0D-10 RMS, and 1.0D-09 maximum.
          NewPWx=F KeepS1=T KeepF1=T KeepIn=T MapXYZ=F SortEE=F KeepMc=T.
          MDV=      33554290 using IRadAn=       0.
 Using stored XC quadrature information.
 Keep R1 ints in memory in canonical form, NReq=1898913.
 FoFCou: FMM=F IPFlag=           0 FMFlag=           0 FMFlg1=           0
         NFxFlg=           0 DoJE=F BraDBF=F KetDBF=F FulRan=T
         wScrn=  0.000000 ICntrl=     600 IOpCl=  0 I1Cent=           0 NGrid=           0
         NMat0=    1 NMatS0=   1431 NMatT0=    0 NMatD0=    1 NMtDS0=    0 NMtDT0=    0
 Symmetry not used in FoFCou.
          Solving linear equations separately, MaxMat=       0.
          There are     1 degrees of freedom in the 1st order CPHF.  IDoFFX=0 NUNeed=     1.
 LinEq1:  Iter=  0 NonCon=     1 RMS=4.32D-02 Max=5.92D-01 NDo=     1
 AX will form     1 AO Fock derivatives at one time.
 LinEq1:  Iter=  1 NonCon=     1 RMS=1.83D-02 Max=3.07D-01 NDo=     1
 LinEq1:  Iter=  2 NonCon=     1 RMS=1.35D-02 Max=1.83D-01 NDo=     1
 LinEq1:  Iter=  3 NonCon=     1 RMS=5.69D-03 Max=6.98D-02 NDo=     1
 LinEq1:  Iter=  4 NonCon=     1 RMS=4.68D-03 Max=5.33D-02 NDo=     1
 LinEq1:  Iter=  5 NonCon=     1 RMS=1.11D-03 Max=8.62D-03 NDo=     1
 LinEq1:  Iter=  6 NonCon=     1 RMS=4.45D-04 Max=3.82D-03 NDo=     1
 LinEq1:  Iter=  7 NonCon=     1 RMS=2.05D-04 Max=2.99D-03 NDo=     1
 LinEq1:  Iter=  8 NonCon=     1 RMS=1.02D-04 Max=6.34D-04 NDo=     1
 LinEq1:  Iter=  9 NonCon=     1 RMS=1.42D-05 Max=1.07D-04 NDo=     1
 LinEq1:  Iter= 10 NonCon=     1 RMS=1.22D-06 Max=1.04D-05 NDo=     1
 LinEq1:  Iter= 11 NonCon=     1 RMS=1.34D-07 Max=8.42D-07 NDo=     1
 LinEq1:  Iter= 12 NonCon=     1 RMS=2.11D-08 Max=1.25D-07 NDo=     1
 LinEq1:  Iter= 13 NonCon=     1 RMS=2.76D-09 Max=1.78D-08 NDo=     1
 LinEq1:  Iter= 14 NonCon=     1 RMS=3.34D-10 Max=1.66D-09 NDo=     1
 LinEq1:  Iter= 15 NonCon=     0 RMS=4.56D-11 Max=2.64D-10 NDo=     1
 Linear equations converged to 1.000D-10 1.000D-09 after    15 iterations.
 End of Minotr F.D. properties file   721 does not exist.
 End of Minotr F.D. properties file   722 does not exist.
 End of Minotr F.D. properties file   788 does not exist.
 Leave Link 1002 at Sat Nov 14 17:21:45 2015, MaxMem=    33554432 cpu:         9.4
 (Enter /home/Applications/g09/g09/l601.exe)
 Copying SCF densities to generalized density rwf, IOpCl= 0 IROHF=0.

 **********************************************************************

            Population analysis using the SCF density.

 **********************************************************************

 Orbital symmetries:
       Occupied  (A) (A) (A) (A) (A) (A) (A) (A) (A) (A) (A) (A)
                 (A) (A) (A) (A) (A) (A)
       Virtual   (A) (A) (A) (A) (A) (A) (A) (A) (A) (A) (A) (A)
                 (A) (A) (A) (A) (A) (A) (A) (A) (A) (A) (A) (A)
                 (A) (A) (A) (A) (A) (A) (A) (A) (A) (A) (A)
 The electronic state is 1-A.
 Alpha  occ. eigenvalues --  -19.09983 -10.17501 -10.17087 -10.13090 -10.12080
 Alpha  occ. eigenvalues --   -1.10573  -0.80596  -0.74878  -0.59161  -0.58111
 Alpha  occ. eigenvalues --   -0.53509  -0.45401  -0.43736  -0.40839  -0.40676
 Alpha  occ. eigenvalues --   -0.34882  -0.27773  -0.23404
 Alpha virt. eigenvalues --    0.01800   0.08834   0.11702   0.14338   0.16820
 Alpha virt. eigenvalues --    0.18141   0.20844   0.23626   0.36310   0.42184
 Alpha virt. eigenvalues --    0.48684   0.67374   0.69901   0.70911   0.75999
 Alpha virt. eigenvalues --    0.76822   0.79041   0.81036   0.82244   0.84010
 Alpha virt. eigenvalues --    0.91425   0.96991   1.02184   1.03031   1.17844
 Alpha virt. eigenvalues --    1.23654   1.33627   1.35554   1.50843   1.55838
 Alpha virt. eigenvalues --    1.62919   1.74577   1.97244   2.12898   3.14638
     Molecular Orbital Coefficients:
                           1         2         3         4         5
                           O         O         O         O         O
     Eigenvalues --   -19.09983 -10.17501 -10.17087 -10.13090 -10.12080
   1 1   C  1S          0.00018  -0.00013  -0.01050  -0.06103   0.98414
   2        2S          0.00069   0.00011  -0.00539  -0.01098   0.10995
   3        2PX        -0.00118   0.00034  -0.00157   0.00127  -0.00099
   4        2PY         0.00071   0.00039   0.00268   0.00066  -0.00189
   5        2PZ         0.00001  -0.00001  -0.00006   0.00001   0.00011
   6        3S         -0.00909  -0.01921   0.03266   0.04382  -0.10522
   7        3PX         0.00563   0.00098   0.00713  -0.02006   0.01499
   8        3PY         0.00939   0.01256  -0.01729  -0.01327   0.02964
   9        3PZ        -0.00004  -0.00042   0.00043   0.00020  -0.00081
  10 2   C  1S         -0.00043  -0.05765   0.98364   0.00036   0.01020
  11        2S         -0.00079  -0.00936   0.10625  -0.00043  -0.00370
  12        2PX        -0.00159   0.00152  -0.00191   0.00020   0.00125
  13        2PY        -0.00186  -0.00024  -0.00064  -0.00089  -0.00213
  14        2PZ        -0.00009  -0.00006  -0.00023   0.00004   0.00003
  15        3S          0.02042   0.01973  -0.07273  -0.01015   0.04143
  16        3PX        -0.01876  -0.01850   0.00752   0.00399  -0.01971
  17        3PY        -0.00186   0.00964  -0.01436  -0.00135   0.01812
  18        3PZ        -0.00092  -0.00006   0.00079   0.00010  -0.00074
  19 3   O  1S          0.98274   0.00008   0.00027   0.00006   0.00007
  20        2S          0.10737   0.00115   0.00169   0.00019   0.00027
  21        2PX        -0.00002  -0.00101   0.00028  -0.00002   0.00004
  22        2PY         0.00416   0.00079   0.00060  -0.00012  -0.00012
  23        2PZ         0.00031   0.00010   0.00008   0.00003   0.00003
  24        3S         -0.05944   0.00136   0.00065  -0.00288  -0.00420
  25        3PX        -0.00071  -0.00052  -0.00123   0.00241  -0.00205
  26        3PY        -0.01351  -0.00235  -0.00354  -0.00098  -0.00196
  27        3PZ        -0.00093  -0.00033  -0.00048  -0.00017  -0.00017
  28 4   C  1S         -0.00059   0.98383   0.05666   0.01181   0.00147
  29        2S         -0.00140   0.10637   0.00304  -0.00369  -0.00077
  30        2PX         0.00173   0.00235  -0.00108  -0.00107  -0.00009
  31        2PY        -0.00128   0.00038  -0.00072  -0.00246  -0.00121
  32        2PZ        -0.00005  -0.00020  -0.00008   0.00005   0.00004
  33        3S          0.01463  -0.07814   0.00991   0.04145  -0.00612
  34        3PX         0.01236  -0.01194   0.01226   0.01622  -0.00415
  35        3PY         0.00213  -0.01945   0.01185   0.02291  -0.00078
  36        3PZ        -0.00067   0.00094   0.00012  -0.00071   0.00004
  37 5   C  1S          0.00012  -0.01221  -0.00179   0.98415   0.06049
  38        2S          0.00040  -0.00621  -0.00081   0.11017   0.00253
  39        2PX         0.00087   0.00116  -0.00025   0.00147  -0.00140
  40        2PY         0.00108   0.00289   0.00079  -0.00176   0.00017
  41        2PZ         0.00003  -0.00007   0.00000   0.00010   0.00002
  42        3S         -0.00410   0.04179  -0.01275  -0.10887   0.03401
  43        3PX        -0.00232  -0.00139  -0.00012  -0.02070   0.02213
  44        3PY         0.00459  -0.02225   0.00789   0.02594  -0.00695
  45        3PZ        -0.00017   0.00056  -0.00044  -0.00089   0.00018
  46 6   H  1S         -0.00058  -0.00104  -0.00023  -0.00259  -0.00012
  47        2S         -0.00111   0.00246  -0.00004   0.00401   0.00495
  48 7   H  1S          0.00012  -0.00401   0.00108   0.00009  -0.00024
  49        2S          0.00310   0.00697   0.00736   0.00663  -0.00030
  50 8   H  1S          0.00037   0.00157  -0.00410   0.00004  -0.00029
  51        2S          0.00538   0.00767   0.01147   0.00026   0.00640
  52 9   H  1S         -0.00101  -0.00052  -0.00096  -0.00014  -0.00345
  53        2S         -0.00343  -0.00169   0.00165   0.00379   0.00416
                           6         7         8         9        10
                           O         O         O         O         O
     Eigenvalues --    -1.10573  -0.80596  -0.74878  -0.59161  -0.58111
   1 1   C  1S         -0.03248   0.13799  -0.09355  -0.10770   0.01429
   2        2S          0.03213  -0.14800   0.10078   0.10927  -0.01365
   3        2PX        -0.00710   0.06489   0.05979   0.05345   0.17125
   4        2PY        -0.03935   0.05565  -0.07036   0.01092  -0.07397
   5        2PZ         0.00037  -0.00298   0.00247   0.00292   0.00369
   6        3S          0.06791  -0.27818   0.19326   0.37102  -0.04161
   7        3PX        -0.02819   0.01379  -0.02160   0.00815   0.06609
   8        3PY        -0.04784   0.03498   0.00199  -0.03240  -0.02094
   9        3PZ         0.00045  -0.00202   0.00035   0.00284   0.00199
  10 2   C  1S         -0.08573   0.03175  -0.14899   0.05293  -0.09692
  11        2S          0.09619  -0.03984   0.16300  -0.05543   0.10824
  12        2PX        -0.08877   0.01566  -0.01497  -0.05275   0.16715
  13        2PY        -0.04628  -0.12905   0.02592   0.20659   0.07774
  14        2PZ        -0.00506  -0.00046  -0.00691   0.00340   0.00281
  15        3S          0.06780  -0.02917   0.35658  -0.19974   0.29302
  16        3PX         0.05325   0.01237  -0.02236  -0.01464   0.09239
  17        3PY        -0.00755  -0.02707   0.04211   0.05694   0.03625
  18        3PZ         0.00129   0.00021  -0.00318   0.00203   0.00067
  19 3   O  1S         -0.20852  -0.09249   0.02312  -0.02106   0.04311
  20        2S          0.19003   0.08905  -0.02099   0.01879  -0.04347
  21        2PX         0.01048   0.03716   0.18131  -0.23910  -0.07780
  22        2PY         0.10933  -0.01590   0.02641  -0.02102  -0.02967
  23        2PZ         0.00750   0.00250  -0.00024  -0.00116   0.00130
  24        3S          0.66222   0.33141  -0.08583   0.08833  -0.18598
  25        3PX         0.00629   0.02887   0.14919  -0.21212  -0.06684
  26        3PY         0.13872   0.00071   0.01450  -0.01374  -0.03042
  27        3PZ         0.00982   0.00231  -0.00047  -0.00078   0.00174
  28 4   C  1S         -0.06287   0.07459   0.13980   0.01109  -0.11140
  29        2S          0.07290  -0.08617  -0.14896  -0.01962   0.12033
  30        2PX         0.07112  -0.01238  -0.02762   0.07669  -0.11288
  31        2PY        -0.00981  -0.11906  -0.00549  -0.20157  -0.08573
  32        2PZ        -0.00339   0.00226   0.00672  -0.00239  -0.00081
  33        3S          0.05962  -0.11901  -0.35521   0.02809   0.36348
  34        3PX        -0.02440  -0.00686  -0.02604   0.05976  -0.05652
  35        3PY        -0.02121  -0.03502  -0.03286  -0.05637  -0.02410
  36        3PZ         0.00042   0.00094   0.00349  -0.00202  -0.00159
  37 5   C  1S         -0.03078   0.15448   0.05525   0.09150   0.06901
  38        2S          0.03101  -0.16657  -0.06010  -0.09368  -0.06896
  39        2PX         0.01544  -0.06186   0.06946   0.14588  -0.09699
  40        2PY        -0.03429   0.06469   0.08164   0.05469  -0.08756
  41        2PZ         0.00031  -0.00322  -0.00167  -0.00353   0.00183
  42        3S          0.05167  -0.31242  -0.10985  -0.32869  -0.23456
  43        3PX         0.01502  -0.02695  -0.01344   0.04715  -0.04583
  44        3PY        -0.02967   0.03068  -0.00727   0.04516  -0.01007
  45        3PZ         0.00112  -0.00162   0.00024  -0.00309   0.00042
  46 6   H  1S          0.00605  -0.05264  -0.02789  -0.09420  -0.04734
  47        2S          0.00712  -0.01264  -0.00851  -0.05428  -0.03203
  48 7   H  1S          0.01168  -0.02233  -0.08069   0.01603   0.16535
  49        2S         -0.01805  -0.00422  -0.03180   0.02456   0.08773
  50 8   H  1S          0.01796  -0.00601   0.09479  -0.10325   0.15664
  51        2S         -0.03099  -0.00254   0.03222  -0.05707   0.06945
  52 9   H  1S          0.00824  -0.05125   0.04342   0.09795  -0.00554
  53        2S          0.01694  -0.01131   0.01011   0.05830  -0.00551
                          11        12        13        14        15
                           O         O         O         O         O
     Eigenvalues --    -0.53509  -0.45401  -0.43736  -0.40839  -0.40676
   1 1   C  1S         -0.04949   0.02944   0.00092   0.01877  -0.00522
   2        2S          0.04512  -0.03427  -0.00052  -0.01553   0.00835
   3        2PX        -0.00266  -0.00617  -0.01623  -0.07295  -0.33291
   4        2PY         0.23937   0.03025   0.01555  -0.25767   0.00776
   5        2PZ        -0.00372   0.00018   0.13189   0.00619  -0.01336
   6        3S          0.22840  -0.07730  -0.00269  -0.07210   0.01370
   7        3PX         0.01939   0.01083  -0.00510  -0.08279  -0.18915
   8        3PY         0.12414  -0.00705   0.01333  -0.17196  -0.02350
   9        3PZ        -0.00052   0.00101   0.09609   0.00343  -0.00854
  10 2   C  1S          0.02514  -0.00498  -0.00233  -0.03678   0.00463
  11        2S         -0.03132   0.00082   0.00248   0.04282  -0.00671
  12        2PX         0.15101   0.28248  -0.00205  -0.02565   0.10632
  13        2PY        -0.09600   0.01304  -0.02083   0.16203  -0.16231
  14        2PZ         0.00172   0.01011   0.21080   0.00672  -0.00708
  15        3S         -0.05382   0.01671   0.00702   0.12501  -0.03015
  16        3PX         0.11006   0.17813  -0.00744  -0.01976   0.07725
  17        3PY        -0.09796  -0.01714  -0.01037   0.09075  -0.12064
  18        3PZ         0.00010   0.00519   0.19600   0.00626  -0.00752
  19 3   O  1S         -0.05456  -0.01570   0.00538  -0.00600   0.02235
  20        2S          0.05398   0.01299  -0.00505   0.00531  -0.01843
  21        2PX         0.01623  -0.24590   0.00048  -0.11981   0.03006
  22        2PY        -0.17149  -0.07504  -0.00447  -0.04522  -0.04818
  23        2PZ        -0.00494  -0.00567   0.36172   0.00773  -0.01428
  24        3S          0.21275   0.06352  -0.02335   0.02229  -0.11347
  25        3PX         0.01715  -0.22972   0.00058  -0.12376   0.02838
  26        3PY        -0.15762  -0.06706  -0.00506  -0.04587  -0.04753
  27        3PZ        -0.00533  -0.00551   0.36511   0.00784  -0.01557
  28 4   C  1S          0.01407   0.02329  -0.00353   0.04938  -0.01119
  29        2S         -0.01935  -0.02572   0.00378  -0.05988   0.01153
  30        2PX        -0.11024   0.27429   0.01194  -0.03107  -0.04526
  31        2PY        -0.10731   0.09763  -0.00723  -0.20294  -0.11789
  32        2PZ         0.00066  -0.01119   0.17311   0.00375  -0.00532
  33        3S         -0.01748  -0.06355   0.01231  -0.16628   0.01967
  34        3PX        -0.06752   0.19616   0.01265  -0.02102  -0.04394
  35        3PY        -0.10352   0.05853  -0.00048  -0.14364  -0.09120
  36        3PZ        -0.00039  -0.00811   0.16631   0.00341  -0.00584
  37 5   C  1S         -0.04346  -0.03233   0.00068  -0.03015  -0.01367
  38        2S          0.04114   0.03734   0.00014   0.02579   0.01748
  39        2PX        -0.03748   0.00645   0.01603  -0.02232   0.34310
  40        2PY         0.20198  -0.05892   0.00470   0.26844   0.00542
  41        2PZ        -0.00473  -0.00076   0.12664  -0.00617  -0.00980
  42        3S          0.18321   0.09356  -0.00367   0.13735   0.05826
  43        3PX        -0.06011   0.00253   0.00831  -0.06472   0.24175
  44        3PY         0.10799  -0.00807   0.00583   0.15457  -0.03303
  45        3PZ        -0.00176  -0.00154   0.09550  -0.00240  -0.00622
  46 6   H  1S          0.11701   0.00369  -0.00627   0.17793  -0.14673
  47        2S          0.06789  -0.00984  -0.00672   0.16497  -0.13056
  48 7   H  1S          0.06438  -0.20801   0.00009   0.03517   0.09976
  49        2S          0.03050  -0.15674   0.00308   0.03644   0.08465
  50 8   H  1S          0.06587   0.18117   0.00591  -0.00189   0.11240
  51        2S          0.02492   0.13315   0.00845  -0.00853   0.09493
  52 9   H  1S          0.14765  -0.01892   0.00361  -0.20503  -0.09643
  53        2S          0.08747  -0.00679   0.00031  -0.17959  -0.08901
                          16        17        18        19        20
                           O         O         O         V         V
     Eigenvalues --    -0.34882  -0.27773  -0.23404   0.01800   0.08834
   1 1   C  1S          0.03281  -0.00444  -0.00142   0.00237   0.00502
   2        2S         -0.03337   0.00483   0.00282  -0.00409  -0.00252
   3        2PX        -0.02107   0.00895   0.00663   0.00080   0.00526
   4        2PY         0.15587  -0.01483  -0.00824   0.00498  -0.00466
   5        2PZ        -0.02270  -0.24085  -0.24638  -0.14764   0.34475
   6        3S         -0.20637   0.03096  -0.00641  -0.02020  -0.05184
   7        3PX        -0.05766   0.01447   0.01210  -0.00458   0.01793
   8        3PY         0.11670  -0.01241   0.00215   0.00171  -0.01416
   9        3PZ        -0.02227  -0.25006  -0.26641  -0.25491   0.70694
  10 2   C  1S         -0.02018   0.00016   0.00432  -0.00413   0.00484
  11        2S          0.02612   0.00050  -0.00555  -0.00056  -0.00308
  12        2PX        -0.00170  -0.00496   0.01219  -0.00421   0.00682
  13        2PY        -0.16630   0.00698   0.00566  -0.00029   0.00634
  14        2PZ        -0.00897   0.00825  -0.31360   0.32121  -0.23017
  15        3S          0.08307  -0.00639  -0.01180   0.04589  -0.05450
  16        3PX        -0.00673  -0.00193   0.00229  -0.01078   0.01674
  17        3PY         0.03001  -0.01011   0.00669   0.00339  -0.00052
  18        3PZ        -0.00523   0.05090  -0.31883   0.48515  -0.44998
  19 3   O  1S          0.06360   0.00002   0.00043  -0.00031   0.00601
  20        2S         -0.06492   0.00033  -0.00031  -0.00096  -0.00437
  21        2PX        -0.08834   0.00703  -0.00322   0.00105   0.02880
  22        2PY         0.43277  -0.03927  -0.00622   0.00260  -0.00963
  23        2PZ         0.01891   0.32017   0.07823  -0.28130   0.02665
  24        3S         -0.23414  -0.00422  -0.00356   0.00470  -0.04535
  25        3PX        -0.09542   0.00801  -0.00696   0.00097   0.04893
  26        3PY         0.46918  -0.04306  -0.00761   0.00432  -0.01442
  27        3PZ         0.02243   0.35879   0.09589  -0.39137   0.04365
  28 4   C  1S         -0.01287   0.00132  -0.00470  -0.00461  -0.01045
  29        2S          0.01553  -0.00084   0.00592   0.00054   0.00939
  30        2PX         0.09104  -0.00423   0.01477   0.00208   0.03066
  31        2PY        -0.16069   0.01004  -0.00170   0.00045  -0.02290
  32        2PZ        -0.01479  -0.13463   0.31861   0.32307   0.19564
  33        3S          0.07984  -0.00994   0.01408   0.04516   0.07022
  34        3PX         0.05183  -0.00149   0.00753   0.00182   0.04234
  35        3PY         0.01298  -0.00417  -0.00927   0.00528  -0.05453
  36        3PZ        -0.01101  -0.08834   0.35201   0.49051   0.40927
  37 5   C  1S          0.01964  -0.00273   0.00014   0.00296  -0.00137
  38        2S         -0.02204   0.00364  -0.00128  -0.00500  -0.00037
  39        2PX        -0.01856  -0.00440   0.00086  -0.00167   0.00889
  40        2PY         0.15551  -0.02180   0.00572   0.00193  -0.00987
  41        2PZ        -0.02618  -0.31213   0.13167  -0.19281  -0.33450
  42        3S         -0.13239   0.01765   0.01608  -0.01938   0.03327
  43        3PX         0.03939  -0.01167   0.00465   0.00838   0.02843
  44        3PY         0.12437  -0.01680  -0.00079  -0.00459  -0.02682
  45        3PZ        -0.02427  -0.31682   0.13662  -0.33535  -0.68064
  46 6   H  1S          0.07810  -0.00492   0.00270   0.00191   0.00739
  47        2S          0.11082  -0.01051   0.00535   0.01454   0.03987
  48 7   H  1S          0.03081  -0.00406  -0.00648  -0.00672  -0.00551
  49        2S          0.03622  -0.00594  -0.01154  -0.01961  -0.03673
  50 8   H  1S          0.07728  -0.00817   0.00358  -0.00598   0.00162
  51        2S          0.08287  -0.01109   0.00745  -0.01351   0.00950
  52 9   H  1S          0.06437  -0.00240  -0.00351   0.00176   0.00586
  53        2S          0.09306  -0.00626  -0.00821   0.01197   0.03458
                          21        22        23        24        25
                           V         V         V         V         V
     Eigenvalues --     0.11702   0.14338   0.16820   0.18141   0.20844
   1 1   C  1S          0.03704  -0.00742   0.03883   0.10625  -0.02641
   2        2S         -0.02238  -0.00469  -0.04395  -0.08301   0.02792
   3        2PX        -0.01763   0.07439   0.15193  -0.07800   0.17089
   4        2PY        -0.13336   0.04846   0.06641  -0.20035  -0.01802
   5        2PZ        -0.01896  -0.01092  -0.00585  -0.00356  -0.01100
   6        3S         -0.39502   0.26335  -0.11819  -1.04778   0.18631
   7        3PX         0.00000   0.17604   0.37876  -0.47238   0.87861
   8        3PY        -0.43993   0.05867  -0.05557  -0.90713   0.06723
   9        3PZ        -0.03397  -0.01461  -0.00336  -0.01028  -0.02776
  10 2   C  1S          0.00067  -0.07391  -0.02745  -0.03901   0.11480
  11        2S          0.00405   0.05502   0.02303   0.04848  -0.07851
  12        2PX        -0.08015   0.03946   0.16203  -0.12149  -0.18714
  13        2PY        -0.07633  -0.11330  -0.01645   0.03018   0.04533
  14        2PZ         0.00829   0.00013   0.00479  -0.00569   0.01800
  15        3S         -0.20060   0.77951   0.37268   0.03082  -1.62756
  16        3PX        -0.08007   0.33564   0.66815  -0.05269  -0.80959
  17        3PY        -0.32155  -0.43059  -0.12058   0.02634   0.04180
  18        3PZ         0.01975   0.00392   0.01308  -0.00006   0.04618
  19 3   O  1S          0.06876   0.08292   0.01023   0.01860   0.02790
  20        2S         -0.04833  -0.05922  -0.00448  -0.01245  -0.00889
  21        2PX         0.08811   0.11637   0.08802  -0.06111   0.19771
  22        2PY        -0.14643  -0.09375   0.01617  -0.04935   0.00978
  23        2PZ        -0.01232  -0.01162  -0.00535  -0.00179  -0.01071
  24        3S         -0.55130  -0.66425  -0.09372  -0.15812  -0.30958
  25        3PX         0.13197   0.19066   0.20280  -0.05113   0.37891
  26        3PY        -0.25051  -0.14097   0.01432  -0.08402  -0.04727
  27        3PZ        -0.02161  -0.02114  -0.00951  -0.00433  -0.02240
  28 4   C  1S         -0.01050  -0.12939   0.05519   0.01067  -0.03081
  29        2S          0.01737   0.10100  -0.03524  -0.02398   0.03515
  30        2PX         0.23611   0.07188   0.27426  -0.07506   0.12902
  31        2PY        -0.07606  -0.21724   0.02773  -0.05904  -0.14584
  32        2PZ        -0.01947  -0.02576   0.00078   0.00079  -0.01165
  33        3S         -0.15350   1.21270  -0.72605   0.16490   0.14316
  34        3PX         0.41121  -0.05695   0.97504   0.03452   0.26436
  35        3PY        -0.17080  -0.64930   0.20935  -0.15996  -0.49213
  36        3PZ        -0.03910  -0.05301  -0.00011  -0.00772  -0.03034
  37 5   C  1S          0.05264  -0.00341  -0.09362  -0.07518  -0.05685
  38        2S         -0.03398  -0.01916   0.07557   0.05895   0.00795
  39        2PX         0.11024  -0.02284  -0.01559  -0.10063  -0.07156
  40        2PY        -0.18801   0.07538   0.01308   0.12181   0.07467
  41        2PZ         0.02363   0.01652   0.00432   0.00081   0.01124
  42        3S         -0.54080   0.31611   0.82423   0.68067   1.18563
  43        3PX         0.39214   0.03153  -0.07927  -0.53082   0.04712
  44        3PY        -0.42836   0.09991   0.32327   0.61283   0.14015
  45        3PZ         0.05442   0.04631  -0.00292   0.00515   0.03209
  46 6   H  1S          0.12778   0.01263  -0.00829  -0.05412   0.03664
  47        2S          1.11660  -0.15240  -0.61417  -1.15025  -0.50784
  48 7   H  1S          0.02874  -0.08329   0.08609  -0.00140   0.02103
  49        2S          0.37979  -1.20764   1.40521  -0.19717  -0.16722
  50 8   H  1S         -0.00707  -0.08663  -0.06367  -0.00415  -0.00755
  51        2S          0.08223  -1.02141  -1.01625   0.09029   1.68186
  52 9   H  1S          0.08576  -0.01545  -0.01395   0.07369  -0.01691
  53        2S          0.78267  -0.29964  -0.16489   1.65308  -0.56033
                          26        27        28        29        30
                           V         V         V         V         V
     Eigenvalues --     0.23626   0.36310   0.42184   0.48684   0.67374
   1 1   C  1S         -0.08562  -0.05965   0.00014  -0.13510   0.03453
   2        2S          0.02108   0.01930   0.02474   0.02964  -0.08375
   3        2PX        -0.00873  -0.03746  -0.25848  -0.09036  -0.33392
   4        2PY         0.05953  -0.10460   0.13164  -0.22041   0.25210
   5        2PZ         0.01353   0.00130  -0.01381  -0.01052  -0.00916
   6        3S          1.65739   1.21951  -0.43515   3.48434  -0.43808
   7        3PX        -0.43119   0.63338  -1.64824  -1.41061   0.36647
   8        3PY         0.12274  -1.29347   1.30079  -2.23970   0.20318
   9        3PZ         0.04082   0.02665  -0.06698   0.04056   0.00108
  10 2   C  1S         -0.05170   0.07463  -0.02943   0.10536  -0.05489
  11        2S          0.04216  -0.00298   0.02111  -0.00675  -0.02002
  12        2PX        -0.19264   0.16389   0.02946   0.24684  -0.24054
  13        2PY        -0.20885  -0.21989   0.14885   0.15349  -0.25677
  14        2PZ        -0.01679   0.00955   0.00478   0.00054   0.00600
  15        3S          0.35479  -1.49385   1.16544  -2.12946   0.43314
  16        3PX        -0.54941   1.03108  -0.03454   1.66208  -0.11807
  17        3PY        -0.80612  -0.99709   1.76712  -1.16647   0.56898
  18        3PZ        -0.05011   0.06179  -0.00064   0.07682  -0.02808
  19 3   O  1S          0.07268  -0.04666  -0.01640  -0.02203   0.02511
  20        2S         -0.03385   0.01821   0.00637   0.00656  -0.09106
  21        2PX        -0.23238  -0.04720   0.20831   0.20374   0.03288
  22        2PY        -0.07715   0.14149   0.01946   0.05348  -0.18607
  23        2PZ        -0.01268   0.00118   0.00089   0.00091  -0.00481
[...]
     6  H   -0.020449   0.004435   0.002023  -0.034193   0.369278   0.494947
     7  H    0.002359   0.002734  -0.021399   0.384748  -0.032216  -0.000384
     8  H   -0.044703   0.391867  -0.031294   0.003953   0.003203  -0.000016
     9  H    0.376412  -0.024111   0.002251   0.005247  -0.030993  -0.001099
               7          8          9
     1  C    0.002359  -0.044703   0.376412
     2  C    0.002734   0.391867  -0.024111
     3  O   -0.021399  -0.031294   0.002251
     4  C    0.384748   0.003953   0.005247
     5  C   -0.032216   0.003203  -0.030993
     6  H   -0.000384  -0.000016  -0.001099
     7  H    0.441671  -0.000042  -0.000027
     8  H   -0.000042   0.451577  -0.000511
     9  H   -0.000027  -0.000511   0.489441
 Mulliken charges:
               1
     1  C   -0.265218
     2  C    0.127657
     3  O   -0.482901
     4  C    0.038706
     5  C   -0.235618
     6  H    0.185460
     7  H    0.222556
     8  H    0.225966
     9  H    0.183391
 Sum of Mulliken charges =   0.00000
 Mulliken charges with hydrogens summed into heavy atoms:
               1
     1  C   -0.081826
     2  C    0.353624
     3  O   -0.482901
     4  C    0.261262
     5  C   -0.050158
 Electronic spatial extent (au):  <R**2>=            290.8617
 Charge=              0.0000 electrons
 Dipole moment (field-independent basis, Debye):
    X=             -0.1816    Y=              0.6981    Z=              0.0485  Tot=              0.7230
 Quadrupole moment (field-independent basis, Debye-Ang):
   XX=            -23.1829   YY=            -28.1810   ZZ=            -31.7728
   XY=              0.5548   XZ=              0.0505   YZ=             -0.1031
 Traceless Quadrupole moment (field-independent basis, Debye-Ang):
   XX=              4.5293   YY=             -0.4687   ZZ=             -4.0606
   XY=              0.5548   XZ=              0.0505   YZ=             -0.1031
 Octapole moment (field-independent basis, Debye-Ang**2):
  XXX=              1.0613  YYY=              1.3556  ZZZ=             -0.2737  XYY=             -1.5784
  XXY=             -4.6301  XXZ=              0.0318  XZZ=              0.7660  YZZ=             -3.4273
  YYZ=             -0.0463  XYZ=              0.0558
 Hexadecapole moment (field-independent basis, Debye-Ang**3):
 XXXX=           -158.1287 YYYY=           -155.1292 ZZZZ=            -30.8685 XXXY=             -1.3431
 XXXZ=              0.0864 YYYX=              3.2381 YYYZ=             -0.0977 ZZZX=              0.0316
 ZZZY=              0.2413 XXYY=            -45.9502 XXZZ=            -39.7783 YYZZ=            -34.1649
 XXYZ=             -0.0171 YYXZ=              0.1076 ZZXY=             -0.5612
 N-N= 1.606194050157D+02 E-N=-8.539381794009D+02  KE= 2.268997923189D+02
 Orbital energies and kinetic energies (alpha):
                                 1                 2
   1         O               -19.099833         28.829607
   2         O               -10.175008         15.802849
   3         O               -10.170870         15.796623
   4         O               -10.130901         15.806013
   5         O               -10.120796         15.806152
   6         O                -1.105729          2.478175
   7         O                -0.805960          1.848254
   8         O                -0.748779          1.772593
   9         O                -0.591613          1.631856
  10         O                -0.581113          1.430044
  11         O                -0.535091          1.298962
  12         O                -0.454009          1.526688
  13         O                -0.437357          1.526863
  14         O                -0.408390          1.368485
  15         O                -0.406764          1.358120
  16         O                -0.348816          2.328952
  17         O                -0.277729          1.601203
  18         O                -0.234041          1.238457
  19         V                 0.017999          1.806843
  20         V                 0.088344          1.507377
  21         V                 0.117019          1.473759
  22         V                 0.143385          1.729967
  23         V                 0.168201          1.309297
  24         V                 0.181411          1.287005
  25         V                 0.208440          1.560245
  26         V                 0.236260          1.977381
  27         V                 0.363102          1.908784
  28         V                 0.421840          1.726700
  29         V                 0.486837          2.689354
  30         V                 0.673741          2.495263
  31         V                 0.699010          2.492015
  32         V                 0.709114          2.745759
  33         V                 0.759988          2.696335
  34         V                 0.768218          2.507170
  35         V                 0.790409          2.578546
  36         V                 0.810363          2.687105
  37         V                 0.822436          2.488450
  38         V                 0.840099          2.610471
  39         V                 0.914252          2.715904
  40         V                 0.969910          3.272899
  41         V                 1.021841          3.183105
  42         V                 1.030310          3.241195
  43         V                 1.178435          2.735157
  44         V                 1.236535          2.915890
  45         V                 1.336274          2.630694
  46         V                 1.355542          2.822431
  47         V                 1.508427          4.926620
  48         V                 1.558377          3.354189
  49         V                 1.629191          3.774711
  50         V                 1.745767          4.338250
  51         V                 1.972437          4.256774
  52         V                 2.128982          4.140638
  53         V                 3.146378          6.804404
 Total kinetic energy from orbitals= 2.268997923189D+02
 No NMR shielding tensors so no spin-rotation constants.
 Leave Link  601 at Sat Nov 14 17:21:45 2015, MaxMem=    33554432 cpu:         0.0
 (Enter /home/Applications/g09/g09/l701.exe)
 Compute integral first derivatives.
 ... and contract with generalized density number  6.
 Leave Link  701 at Sat Nov 14 17:21:45 2015, MaxMem=    33554432 cpu:         0.0
 (Enter /home/Applications/g09/g09/l702.exe)
 L702 exits ... SP integral derivatives will be done elsewhere.
 Leave Link  702 at Sat Nov 14 17:21:45 2015, MaxMem=    33554432 cpu:         0.0
 (Enter /home/Applications/g09/g09/l703.exe)
 Compute integral first derivatives, UseDBF=F ICtDFT=           0.
 Integral derivatives from FoFJK, PRISM(SPDF).
 Calling FoFJK, ICntrl=  10005127 FMM=F ISym2X=0 I1Cent= 0 IOpClX= 0 NMat=1 NMatS=1 NMatT=0.
 FoFJK:  IHMeth= 1 ICntrl=10005127 DoSepK=F KAlg= 0 I1Cent=   0 FoldK=F
 IRaf=         0 NMat=   1 IRICut=       1 DoRegI=T DoRafI=F ISym2E= 0.
 FoFCou: FMM=F IPFlag=           0 FMFlag=      100000 FMFlg1=         800
         NFxFlg=           0 DoJE=F BraDBF=F KetDBF=F FulRan=T
         wScrn=  0.000000 ICntrl=10005127 IOpCl=  0 I1Cent=           0 NGrid=           0
         NMat0=    1 NMatS0=      1 NMatT0=    0 NMatD0=    1 NMtDS0=    0 NMtDT0=    0
 Symmetry not used in FoFCou.
 Leave Link  703 at Sat Nov 14 17:21:46 2015, MaxMem=    33554432 cpu:         1.1
 (Enter /home/Applications/g09/g09/l716.exe)
 Dipole        = 5.86969627D-01 4.03144184D-01-1.31314824D-02
 ***** Axes restored to original set *****
 -------------------------------------------------------------------
 Center     Atomic                   Forces (Hartrees/Bohr)
 Number     Number              X              Y              Z
 -------------------------------------------------------------------
      1        6           0.097634884    0.000715882    0.005509056
      2        6          -0.039456374   -0.008146152    0.001262345
      3        8          -0.089190238   -0.026200009   -0.004993653
      4        6          -0.043097505    0.051126629    0.004204267
      5        6           0.124764728    0.055177154   -0.003523340
      6        1          -0.023214711   -0.032081129   -0.000815876
      7        1           0.006155743   -0.003102627    0.000901075
      8        1          -0.019617834   -0.039760418   -0.000954205
      9        1          -0.013978693    0.002270672   -0.001589669
 -------------------------------------------------------------------
 Cartesian Forces:  Max     0.124764728 RMS     0.041612634
 Z-matrix is all fixed cartesians, so copy forces.
 Force constants in Cartesian coordinates: 
                1             2             3             4             5 
      1  0.939963D+00
      2 -0.333771D-02  0.804630D+00
      3 -0.660201D-02 -0.553613D-02  0.220007D+00
      4 -0.527894D+00 -0.113498D+00  0.112566D-01  0.986997D+00
      5 -0.890229D-01 -0.222118D+00  0.549533D-02  0.329358D-01  0.994332D+00
      6  0.903627D-02  0.402031D-02 -0.113676D+00  0.126545D-01 -0.221567D-01
      7 -0.904157D-02  0.299866D-01 -0.256619D-02 -0.302319D+00  0.186831D+00
      8 -0.653311D-02  0.217376D-01 -0.837332D-03  0.228553D+00 -0.409729D+00
      9  0.428030D-03 -0.958558D-03  0.742596D-02 -0.221671D-01  0.212416D-01
     10  0.129084D-01 -0.118474D-03 -0.283542D-03  0.234755D-01  0.172039D-01
     11  0.347275D-01 -0.378988D-03 -0.173854D-02 -0.168062D-01 -0.123173D-01
     12 -0.312073D-04 -0.255188D-03 -0.332228D-02  0.223192D-02  0.171844D-02
     13 -0.172307D+00  0.802438D-02  0.912496D-03  0.105676D-01 -0.352613D-01
     14 -0.163880D-01 -0.437026D+00  0.660085D-03 -0.125105D-03  0.385223D-03
     15  0.912808D-03 -0.201750D-02 -0.852782D-01 -0.243423D-03  0.149941D-02
     16  0.175159D-01 -0.192479D-03  0.613827D-04  0.000000D+00  0.000000D+00
     17 -0.215969D-01  0.237283D-03 -0.463328D-04  0.000000D+00  0.000000D+00
     18 -0.213209D-03 -0.229711D-04  0.184589D-01  0.989522D-04 -0.765709D-05
     19  0.759282D-05  0.000000D+00  0.333762D-03  0.118223D-04  0.000000D+00
     20  0.746758D-05  0.000000D+00  0.328257D-03  0.415773D-05  0.000000D+00
     21  0.206279D-03 -0.147002D-04  0.906753D-02 -0.199702D-03  0.000000D+00
     22  0.836433D-02 -0.279364D-01 -0.536662D-03 -0.185986D+00 -0.128849D+00
     23 -0.411263D-02  0.137100D-01 -0.121472D-03 -0.123840D+00 -0.374651D+00
     24  0.118712D-03  0.175472D-02  0.319603D-01 -0.470014D-02 -0.616910D-02
     25 -0.269516D+00  0.107072D+00 -0.257588D-02 -0.485318D-02  0.161627D-01
     26  0.106256D+00 -0.180791D+00  0.179613D-02 -0.722307D-02  0.240979D-01
     27 -0.385567D-02  0.303002D-02 -0.846428D-01  0.106839D-02 -0.162070D-02
                6             7             8             9            10 
      6  0.211319D+00
      7 -0.197880D-01  0.496942D+00
      8  0.221976D-01 -0.838065D-01  0.666626D+00
      9 -0.458392D-01  0.343677D-01 -0.742970D-02  0.526075D-01
     10  0.206411D-02 -0.218877D+00 -0.148449D+00 -0.152110D-01  0.898709D+00
     11 -0.155320D-02 -0.105767D+00 -0.281179D+00 -0.137570D-01 -0.126044D+00
     12 -0.271101D-02 -0.132977D-01 -0.149612D-01 -0.422723D-01  0.537598D-02
     13 -0.171934D-03 -0.102803D-01  0.725736D-02  0.422102D-03 -0.529141D+00
     14  0.106858D-03 -0.275252D-01  0.194828D-01  0.841863D-03  0.141634D+00
     15  0.927707D-03 -0.209012D-02  0.628689D-03  0.426121D-02  0.122806D-01
     16  0.116109D-04  0.000000D+00 -0.610866D-05  0.972230D-04 -0.643041D-02
     17 -0.669773D-05  0.000000D+00  0.694018D-05 -0.110457D-03  0.793052D-02
     18  0.479116D-02  0.000000D+00 -0.372066D-03  0.592166D-02  0.127505D-02
     19 -0.134138D-03  0.199944D-01 -0.142400D-01  0.792763D-03 -0.180673D+00
     20 -0.471744D-04  0.118957D-01 -0.847739D-02  0.555866D-03  0.107852D+00
     21  0.226586D-02  0.144071D-02 -0.139505D-02  0.592944D-02 -0.511887D-02
     22 -0.329048D-02  0.235824D-01  0.172205D-01  0.120189D-02  0.304239D-04
     23 -0.262695D-02 -0.116144D-01 -0.848466D-02 -0.646914D-03 -0.906194D-05
     24 -0.859528D-01  0.192741D-02  0.169839D-02  0.465926D-02 -0.488792D-03
     25 -0.381869D-03  0.000000D+00  0.441140D-05  0.684832D-04 -0.165732D-05
     26  0.659899D-04  0.000000D+00  0.169566D-04  0.263236D-03  0.000000D+00
     27  0.288748D-01  0.630157D-05  0.470651D-03  0.730645D-02  0.106515D-03
               11            12            13            14            15 
     11  0.805058D+00
     12  0.169173D-01  0.216339D+00
     13  0.116728D+00  0.952169D-02  0.892132D+00
     14 -0.238195D+00 -0.510399D-02 -0.292675D-01  0.820951D+00
     15 -0.638967D-02 -0.115619D+00 -0.109521D-01  0.573938D-02  0.212998D+00
     16 -0.173111D-01  0.189037D-03 -0.216373D+00 -0.931886D-01  0.273432D-03
     17  0.213467D-01 -0.188594D-03 -0.970474D-01 -0.180185D+00  0.674049D-05
     18  0.167267D-02  0.279760D-01 -0.398759D-03 -0.941475D-03 -0.788135D-01
     19  0.114473D+00 -0.357167D-02  0.929594D-02  0.250375D-01 -0.466894D-03
     20 -0.294333D+00  0.177597D-02  0.552641D-02  0.148521D-01  0.241961D-03
     21  0.485756D-02 -0.906186D-01  0.375426D-03 -0.126481D-02  0.362101D-01
     22  0.000000D+00 -0.345195D-03  0.446535D-05  0.000000D+00  0.216208D-03
     23  0.000000D+00  0.102818D-03 -0.412411D-05  0.000000D+00 -0.199685D-03
     24 -0.157379D-05  0.554592D-02  0.160056D-03 -0.123854D-04  0.774977D-02
     25  0.000000D+00 -0.728516D-04  0.161011D-01 -0.176949D-03  0.694543D-04
     26  0.000000D+00 -0.562049D-05  0.240445D-01 -0.264778D-03  0.490692D-03
     27 -0.759065D-05  0.468214D-02  0.130979D-03 -0.255248D-04  0.175643D-01
               16            17            18            19            20 
     16  0.205294D+00
     17  0.110706D+00  0.158586D+00
     18 -0.415138D-03  0.107274D-03  0.406354D-01
     19 -0.740908D-05  0.841762D-05 -0.451273D-03  0.151370D+00
     20 -0.728688D-05  0.827879D-05 -0.443829D-03 -0.125279D+00  0.287951D+00
     21 -0.201288D-03  0.228687D-03 -0.122600D-01  0.349745D-02 -0.241105D-02
     22  0.000000D+00  0.000000D+00  0.000000D+00  0.000000D+00  0.000000D+00
     23  0.000000D+00  0.000000D+00  0.000000D+00  0.000000D+00  0.000000D+00
     24  0.000000D+00  0.000000D+00  0.000000D+00  0.000000D+00  0.000000D+00
     25  0.000000D+00  0.000000D+00  0.104398D-03  0.000000D+00  0.000000D+00
     26  0.000000D+00  0.000000D+00  0.805428D-05  0.000000D+00  0.000000D+00
     27 -0.162600D-04  0.937959D-05 -0.670961D-02  0.000000D+00  0.000000D+00
               21            22            23            24            25 
     21  0.494057D-01
     22  0.000000D+00  0.154008D+00
     23  0.000000D+00  0.139578D+00  0.369414D+00
     24  0.000000D+00  0.309837D-02  0.317436D-02  0.483728D-01
     25  0.000000D+00 -0.322558D-05  0.297908D-05 -0.115618D-03  0.258273D+00
     26  0.000000D+00 -0.123985D-04  0.114510D-04 -0.444413D-03 -0.123065D+00
     27  0.000000D+00 -0.344136D-03  0.317838D-03 -0.123352D-01  0.290388D-02
               26            27 
     26  0.156930D+00
     27 -0.217407D-02  0.452600D-01
 Leave Link  716 at Sat Nov 14 17:21:46 2015, MaxMem=    33554432 cpu:         0.0
 (Enter /home/Applications/g09/g09/l103.exe)

 GradGradGradGradGradGradGradGradGradGradGradGradGradGradGradGradGradGrad
 Berny optimization.
 Search for a local minimum.
 Step number   1 out of a maximum of    2
 All quantities printed in internal units (Hartrees-Bohrs-Radians)
 Second derivative matrix not updated -- first step.
 ITU=  0
     Eigenvalues ---    0.02014   0.02987   0.06683   0.07350   0.07795
     Eigenvalues ---    0.08020   0.12954   0.14275   0.16456   0.22300
     Eigenvalues ---    0.25050   0.33226   0.41386   0.43245   0.61230
     Eigenvalues ---    0.80343   1.00210   1.27294   1.50098   1.62842
     Eigenvalues ---    1.65866
 Quadratic step=4.108D-01 exceeds max=3.000D-01 adjusted using Lamda=-9.713D-02.
 Angle between NR and scaled steps=  15.35 degrees.
 Angle between quadratic step and forces=  29.67 degrees.
 Linear search not attempted -- first point.
 TrRot= -0.005587  0.007961  0.000648 -0.955277 -0.000651  0.957822
 Variable       Old X    -DE/DX   Delta X   Delta X   Delta X     New X
                                 (Linear)    (Quad)   (Total)
    X1        1.71764   0.09763   0.00000   0.09655   0.09444   1.81208
    Y1       -1.40085   0.00072   0.00000   0.02788   0.04047  -1.36038
    Z1        0.00421   0.00551   0.00000   0.01676   0.01882   0.02303
    X2       -0.71848  -0.03946   0.00000  -0.04406  -0.04420  -0.76268
    Y2       -2.13119  -0.00815   0.00000  -0.01681  -0.01075  -2.14194
    Z2        0.05335   0.00126   0.00000  -0.00479  -0.00328   0.05007
    X3       -2.20560  -0.08919   0.00000  -0.16915  -0.17436  -2.37996
    Y3       -0.08557  -0.02620   0.00000  -0.04634  -0.04446  -0.13003
    Z3       -0.07713  -0.00499   0.00000  -0.00245  -0.00262  -0.07975
    X4       -0.62098  -0.04310   0.00000  -0.01673  -0.02786  -0.64884
    Y4        2.14722   0.05113   0.00000   0.02307   0.02944   2.17666
    Z4        0.06316   0.00420   0.00000   0.00205   0.00130   0.06446
    X5        1.74694   0.12476   0.00000   0.14319   0.13417   1.88111
    Y5        1.26703   0.05518   0.00000   0.08011   0.09288   1.35991
    Z5        0.00787  -0.00352   0.00000  -0.00590  -0.00526   0.00260
    X6        3.42186  -0.02321   0.00000   0.06288   0.05070   3.47256
    Y6        2.62547  -0.03208   0.00000  -0.03950  -0.02268   2.60279
    Z6        0.00571  -0.00082   0.00000  -0.01002  -0.00944  -0.00374
    X7       -1.66113   0.00616   0.00000   0.01219  -0.00337  -1.66450
    Y7        3.89857  -0.00310   0.00000   0.01700   0.02078   3.91935
    Z7        0.03805   0.00090   0.00000   0.00838   0.00633   0.04438
    X8       -1.57149  -0.01962   0.00000  -0.04536  -0.04085  -1.61234
    Y8       -3.86665  -0.03976   0.00000  -0.10212  -0.09824  -3.96489
    Z8        0.03244  -0.00095   0.00000  -0.01062  -0.00846   0.02398
    X9        3.43914  -0.01398   0.00000   0.01038   0.01133   3.45048
    Y9       -2.55377   0.00227   0.00000  -0.02420  -0.00744  -2.56121
    Z9        0.02961  -0.00159   0.00000  -0.00069   0.00263   0.03224
         Item               Value     Threshold  Converged?
 Maximum Force            0.124765     0.000450     NO 
 RMS     Force            0.041613     0.000300     NO 
 Maximum Displacement     0.174360     0.001800     NO 
 RMS     Displacement     0.057386     0.001200     NO 
 Predicted change in Energy=-3.267108D-02
 GradGradGradGradGradGradGradGradGradGradGradGradGradGradGradGradGradGrad

 Leave Link  103 at Sat Nov 14 17:21:46 2015, MaxMem=    33554432 cpu:         0.0
 (Enter /home/Applications/g09/g09/l9999.exe)
 1\1\GINC-DUSTIN-DESKTOP\Force\RB3LYP-FC\3-21G\C4H4O1\DUSTIN\14-Nov-201
 5\0\\#P B3LYP/3-21G CIS(Singlets,NStates=15) pop(full) force\\FuranDFT
 \\0,1\C,0.908936,-0.741299,0.002227\C,-0.380203,-1.127775,0.028234\O,-
 1.167153,-0.045281,-0.040817\C,-0.328606,1.136262,0.033424\C,0.924443,
 0.670484,0.004163\H,1.810769,1.38934,0.00302\H,-0.879032,2.063032,0.02
 0134\H,-0.831595,-2.046141,0.017164\H,1.819916,-1.351398,0.015669\\Ver
 sion=ES64L-G09RevD.01\State=1-A\HF=-228.7398539\RMSD=3.134e-09\RMSF=4.
 161e-02\Dipole=0.331543,-0.6302319,-0.010864\PG=C01 [X(C4H4O1)]\\@


 THESE ARE THE TIMES THAT TRY MENS SOULS.
 THE SUMMER SOLDIER AND THE SUNSHINE PATRIOT WILL IN THIS CRISIS,
 SHRINK FROM THE SERVICE OF HIS COUNTRY.  BUT HE THAT STANDS NOW,
 DESERVES THE LOVE AND THANKS OF MAN AND WOMAN.
 TYRANNY, LIKE HELL, IS NOT EASILY CONQUERED,
 YET WE HAVE THIS CONSOLATION WITH US,
 THAT THE HARDER THE CONFLICT, THE MORE GLORIOUS THE TRIUMPH.
 WHAT WE OBTAIN TOO CHEAP, WE ESTEEM TOO LIGHTLY, 
 'TIS DEARNESS ONLY THAT GIVES EVERYTHING ITS VALUE.

                                              -- TOM PAINE
 Job cpu time:       0 days  0 hours  0 minutes 39.0 seconds.
 File lengths (MBytes):  RWF=     14 Int=      0 D2E=      0 Chk=      3 Scr=      1
 Normal termination of Gaussian 09 at Sat Nov 14 17:21:46 2015.
