 Entering Gaussian System, Link 0=g09
 Input=FuranDFT_80.com
 Output=FuranDFT_80.log
 Initial command:
 /home/Applications/g09/g09/l1.exe "/home/Applications/g09/scratch/Gau-6285.inp" -scrdir="/home/Applications/g09/scratch/"
 Entering Link 1 = /home/Applications/g09/g09/l1.exe PID=      6287.
  
 Copyright (c) 1988,1990,1992,1993,1995,1998,2003,2009,2013,
            Gaussian, Inc.  All Rights Reserved.
  
 This is part of the Gaussian(R) 09 program.  It is based on
 the Gaussian(R) 03 system (copyright 2003, Gaussian, Inc.),
 the Gaussian(R) 98 system (copyright 1998, Gaussian, Inc.),
 the Gaussian(R) 94 system (copyright 1995, Gaussian, Inc.),
 the Gaussian 92(TM) system (copyright 1992, Gaussian, Inc.),
 the Gaussian 90(TM) system (copyright 1990, Gaussian, Inc.),
 the Gaussian 88(TM) system (copyright 1988, Gaussian, Inc.),
 the Gaussian 86(TM) system (copyright 1986, Carnegie Mellon
 University), and the Gaussian 82(TM) system (copyright 1983,
 Carnegie Mellon University). Gaussian is a federally registered
 trademark of Gaussian, Inc.
  
 This software contains proprietary and confidential information,
 including trade secrets, belonging to Gaussian, Inc.
  
 This software is provided under written license and may be
 used, copied, transmitted, or stored only in accord with that
 written license.
  
 The following legend is applicable only to US Government
 contracts under FAR:
  
                    RESTRICTED RIGHTS LEGEND
  
 Use, reproduction and disclosure by the US Government is
 subject to restrictions as set forth in subparagraphs (a)
 and (c) of the Commercial Computer Software - Restricted
 Rights clause in FAR 52.227-19.
  
 Gaussian, Inc.
 340 Quinnipiac St., Bldg. 40, Wallingford CT 06492
  
  
 ---------------------------------------------------------------
 Warning -- This program may not be used in any manner that
 competes with the business of Gaussian, Inc. or will provide
 assistance to any competitor of Gaussian, Inc.  The licensee
 of this program is prohibited from giving any competitor of
 Gaussian, Inc. access to this program.  By using this program,
 the user acknowledges that Gaussian, Inc. is engaged in the
 business of creating and licensing software in the field of
 computational chemistry and represents and warrants to the
 licensee that it is not a competitor of Gaussian, Inc. and that
 it will not use this program in any manner prohibited above.
 ---------------------------------------------------------------
  

 Cite this work as:
 Gaussian 09, Revision D.01,
 M. J. Frisch, G. W. Trucks, H. B. Schlegel, G. E. Scuseria, 
 M. A. Robb, J. R. Cheeseman, G. Scalmani, V. Barone, B. Mennucci, 
 G. A. Petersson, H. Nakatsuji, M. Caricato, X. Li, H. P. Hratchian, 
 A. F. Izmaylov, J. Bloino, G. Zheng, J. L. Sonnenberg, M. Hada, 
 M. Ehara, K. Toyota, R. Fukuda, J. Hasegawa, M. Ishida, T. Nakajima, 
 Y. Honda, O. Kitao, H. Nakai, T. Vreven, J. A. Montgomery, Jr., 
 J. E. Peralta, F. Ogliaro, M. Bearpark, J. J. Heyd, E. Brothers, 
 K. N. Kudin, V. N. Staroverov, T. Keith, R. Kobayashi, J. Normand, 
 K. Raghavachari, A. Rendell, J. C. Burant, S. S. Iyengar, J. Tomasi, 
 M. Cossi, N. Rega, J. M. Millam, M. Klene, J. E. Knox, J. B. Cross, 
 V. Bakken, C. Adamo, J. Jaramillo, R. Gomperts, R. E. Stratmann, 
 O. Yazyev, A. J. Austin, R. Cammi, C. Pomelli, J. W. Ochterski, 
 R. L. Martin, K. Morokuma, V. G. Zakrzewski, G. A. Voth, 
 P. Salvador, J. J. Dannenberg, S. Dapprich, A. D. Daniels, 
 O. Farkas, J. B. Foresman, J. V. Ortiz, J. Cioslowski, 
 and D. J. Fox, Gaussian, Inc., Wallingford CT, 2013.
 
 ******************************************
 Gaussian 09:  ES64L-G09RevD.01 24-Apr-2013
                15-Dec-2015 
 ******************************************
 -------------------------------------------------------
 #P B3LYP/3-21G CIS(Singlets,NStates=15) pop(full) force
 -------------------------------------------------------
 1/10=7,30=1,38=1/1,3;
 2/12=2,17=6,18=5,40=1/2;
 3/5=5,11=9,16=1,25=1,30=1,71=1,74=-5/1,2,8,3;
 4//1;
 5/5=2,38=5/2;
 8/6=1,10=1,108=15/1;
 9/15=2,41=15,42=1,48=1/14;
 10/5=4/2;
 6/7=3,18=1/1;
 7/12=6,13=5,29=1/1,2,3,16;
 1/10=7,30=1/3;
 99//99;
 Leave Link    1 at Tue Dec 15 16:27:19 2015, MaxMem=           0 cpu:         0.0
 (Enter /home/Applications/g09/g09/l101.exe)
 --------
 FuranDFT
 --------
 Symbolic Z-matrix:
 Charge =  0 Multiplicity = 1
 6                     0.9167   -0.76485  -0.03669 
 6                    -0.3853   -1.0791   -0.02743 
 8                    -1.14582   0.00935  -0.03457 
 6                    -0.2976    1.04989  -0.02766 
 6                     0.99752   0.70393   0.01507 
 1                     1.85176   1.40743  -0.04383 
 1                    -0.86487   2.06461   0.00205 
 1                    -0.82194  -2.04538  -0.03481 
 1                     1.85092  -1.38532   0.03546 
 
 NAtoms=      9 NQM=        9 NQMF=       0 NMMI=      0 NMMIF=      0
                NMic=       0 NMicF=      0.
                    Isotopes and Nuclear Properties:
 (Nuclear quadrupole moments (NQMom) in fm**2, nuclear magnetic moments (NMagM)
  in nuclear magnetons)

  Atom         1           2           3           4           5           6           7           8           9
 IAtWgt=          12          12          16          12          12           1           1           1           1
 AtmWgt=  12.0000000  12.0000000  15.9949146  12.0000000  12.0000000   1.0078250   1.0078250   1.0078250   1.0078250
 NucSpn=           0           0           0           0           0           1           1           1           1
 AtZEff=   0.0000000   0.0000000   0.0000000   0.0000000   0.0000000   0.0000000   0.0000000   0.0000000   0.0000000
 NQMom=    0.0000000   0.0000000   0.0000000   0.0000000   0.0000000   0.0000000   0.0000000   0.0000000   0.0000000
 NMagM=    0.0000000   0.0000000   0.0000000   0.0000000   0.0000000   2.7928460   2.7928460   2.7928460   2.7928460
 AtZNuc=   6.0000000   6.0000000   8.0000000   6.0000000   6.0000000   1.0000000   1.0000000   1.0000000   1.0000000
 Leave Link  101 at Tue Dec 15 16:27:19 2015, MaxMem=    33554432 cpu:         0.0
 (Enter /home/Applications/g09/g09/l103.exe)

 GradGradGradGradGradGradGradGradGradGradGradGradGradGradGradGradGradGrad
 Berny optimization.
 Initialization pass.
 Trust Radius=3.00D-01 FncErr=1.00D-07 GrdErr=1.00D-07
 Number of steps in this run=      2 maximum allowed number of steps=      2.
 GradGradGradGradGradGradGradGradGradGradGradGradGradGradGradGradGradGrad

 Leave Link  103 at Tue Dec 15 16:27:19 2015, MaxMem=    33554432 cpu:         0.0
 (Enter /home/Applications/g09/g09/l202.exe)
                          Input orientation:                          
 ---------------------------------------------------------------------
 Center     Atomic      Atomic             Coordinates (Angstroms)
 Number     Number       Type             X           Y           Z
 ---------------------------------------------------------------------
      1          6           0        0.916703   -0.764854   -0.036692
      2          6           0       -0.385303   -1.079104   -0.027434
      3          8           0       -1.145823    0.009348   -0.034570
      4          6           0       -0.297599    1.049894   -0.027661
      5          6           0        0.997519    0.703933    0.015072
      6          1           0        1.851758    1.407431   -0.043834
      7          1           0       -0.864870    2.064606    0.002045
      8          1           0       -0.821943   -2.045380   -0.034806
      9          1           0        1.850922   -1.385324    0.035456
 ---------------------------------------------------------------------
                    Distance matrix (angstroms):
                    1          2          3          4          5
     1  C    0.000000
     2  C    1.339425   0.000000
     3  O    2.203045   1.327844   0.000000
     4  C    2.183557   2.130804   1.342486   0.000000
     5  C    1.471919   2.256817   2.253625   1.341211   0.000000
     6  H    2.364995   3.344782   3.307599   2.178952   1.108198
     7  H    3.343852   3.180215   2.074695   1.162893   2.306533
     8  H    2.159315   1.060376   2.080097   3.139380   3.297219
     9  H    1.123812   2.257970   3.306130   3.248140   2.256924
                    6          7          8          9
     6  H    0.000000
     7  H    2.795363   0.000000
     8  H    4.366997   4.110375   0.000000
     9  H    2.793880   4.390747   2.754055   0.000000
 Stoichiometry    C4H4O
 Framework group  C1[X(C4H4O)]
 Deg. of freedom    21
 Full point group                 C1      NOp   1
 Largest Abelian subgroup         C1      NOp   1
 Largest concise Abelian subgroup C1      NOp   1
                         Standard orientation:                         
 ---------------------------------------------------------------------
 Center     Atomic      Atomic             Coordinates (Angstroms)
 Number     Number       Type             X           Y           Z
 ---------------------------------------------------------------------
      1          6           0       -0.409688    1.107866    0.020502
      2          6           0       -1.136864   -0.016702   -0.004374
      3          8           0       -0.361389   -1.094562    0.000825
      4          6           0        0.901189   -0.638383    0.008814
      5          6           0        1.003535    0.698559   -0.022100
      6          1           0        1.949464    1.271398    0.049859
      7          1           0        1.671334   -1.509186   -0.021189
      8          1           0       -2.193206   -0.109073   -0.007104
      9          1           0       -0.685512    2.195320   -0.045213
 ---------------------------------------------------------------------
 Rotational constants (GHZ):      9.6939728      9.2410683      4.7325515
 Leave Link  202 at Tue Dec 15 16:27:19 2015, MaxMem=    33554432 cpu:         0.0
 (Enter /home/Applications/g09/g09/l301.exe)
 Standard basis: 3-21G (6D, 7F)
 Ernie: Thresh=  0.10000D-02 Tol=  0.10000D-05 Strict=F.
 There are    53 symmetry adapted cartesian basis functions of A   symmetry.
 There are    53 symmetry adapted basis functions of A   symmetry.
    53 basis functions,    87 primitive gaussians,    53 cartesian basis functions
    18 alpha electrons       18 beta electrons
       nuclear repulsion energy       161.6266241639 Hartrees.
 IExCor=  402 DFT=T Ex+Corr=B3LYP ExCW=0 ScaHFX=  0.200000
 ScaDFX=  0.800000  0.720000  1.000000  0.810000 ScalE2=  1.000000  1.000000
 IRadAn=      0 IRanWt=     -1 IRanGd=            0 ICorTp=0 IEmpDi=  4
 NAtoms=    9 NActive=    9 NUniq=    9 SFac= 1.00D+00 NAtFMM=   60 NAOKFM=F Big=F
 Integral buffers will be    131072 words long.
 Regular integral format.
 Two-electron integral symmetry is turned on.
 Leave Link  301 at Tue Dec 15 16:27:19 2015, MaxMem=    33554432 cpu:         0.0
 (Enter /home/Applications/g09/g09/l302.exe)
 NPDir=0 NMtPBC=     1 NCelOv=     1 NCel=       1 NClECP=     1 NCelD=      1
         NCelK=      1 NCelE2=     1 NClLst=     1 CellRange=     0.0.
 One-electron integrals computed using PRISM.
 NBasis=    53 RedAO= T EigKep=  3.52D-03  NBF=    53
 NBsUse=    53 1.00D-06 EigRej= -1.00D+00 NBFU=    53
 Precomputing XC quadrature grid using
 IXCGrd= 4 IRadAn=           0 IRanWt=          -1 IRanGd=           0 AccXCQ= 0.00D+00.
 Generated NRdTot=       0 NPtTot=           0 NUsed=           0 NTot=          32
 NSgBfM=    53    53    53    53    53 MxSgAt=     9 MxSgA2=     9.
 Leave Link  302 at Tue Dec 15 16:27:19 2015, MaxMem=    33554432 cpu:         0.1
 (Enter /home/Applications/g09/g09/l308.exe)
 Leave Link  308 at Tue Dec 15 16:27:19 2015, MaxMem=    33554432 cpu:         0.0
 (Enter /home/Applications/g09/g09/l303.exe)
 DipDrv:  MaxL=1.
 Leave Link  303 at Tue Dec 15 16:27:19 2015, MaxMem=    33554432 cpu:         0.0
 (Enter /home/Applications/g09/g09/l401.exe)
 ExpMin= 1.83D-01 ExpMax= 3.22D+02 ExpMxC= 3.22D+02 IAcc=1 IRadAn=         1 AccDes= 0.00D+00
 Harris functional with IExCor=  402 and IRadAn=       1 diagonalized for initial guess.
 HarFok:  IExCor=  402 AccDes= 0.00D+00 IRadAn=         1 IDoV= 1 UseB2=F ITyADJ=14
 ICtDFT=  3500011 ScaDFX=  1.000000  1.000000  1.000000  1.000000
 FoFCou: FMM=F IPFlag=           0 FMFlag=      100000 FMFlg1=           0
         NFxFlg=           0 DoJE=T BraDBF=F KetDBF=T FulRan=T
         wScrn=  0.000000 ICntrl=     500 IOpCl=  0 I1Cent=   200000004 NGrid=           0
         NMat0=    1 NMatS0=      1 NMatT0=    0 NMatD0=    1 NMtDS0=    0 NMtDT0=    0
 Petite list used in FoFCou.
 Harris En= -228.717297257440    
 JPrj=0 DoOrth=F DoCkMO=F.
 Leave Link  401 at Tue Dec 15 16:27:19 2015, MaxMem=    33554432 cpu:         0.2
 (Enter /home/Applications/g09/g09/l502.exe)
 Closed shell SCF:
 Using DIIS extrapolation, IDIIS=  1040.
 Integral symmetry usage will be decided dynamically.
 Keep R1 ints in memory in canonical form, NReq=1925595.
 IVT=       27707 IEndB=       27707 NGot=    33554432 MDV=    32502130
 LenX=    32502130 LenY=    32498880
 Requested convergence on RMS density matrix=1.00D-08 within 128 cycles.
 Requested convergence on MAX density matrix=1.00D-06.
 Requested convergence on             energy=1.00D-06.
 No special actions if energy rises.
 FoFCou: FMM=F IPFlag=           0 FMFlag=           0 FMFlg1=           0
         NFxFlg=           0 DoJE=F BraDBF=F KetDBF=F FulRan=T
         wScrn=  0.000000 ICntrl=     600 IOpCl=  0 I1Cent=           0 NGrid=           0
         NMat0=    1 NMatS0=   1431 NMatT0=    0 NMatD0=    1 NMtDS0=    0 NMtDT0=    0
 Symmetry not used in FoFCou.
 Integral accuracy reduced to 1.0D-05 until final iterations.

 Cycle   1  Pass 0  IDiag  1:
 E= -228.657721247549    
 DIIS: error= 3.30D-02 at cycle   1 NSaved=   1.
 NSaved= 1 IEnMin= 1 EnMin= -228.657721247549     IErMin= 1 ErrMin= 3.30D-02
 ErrMax= 3.30D-02  0.00D+00 EMaxC= 1.00D-01 BMatC= 7.15D-02 BMatP= 7.15D-02
 IDIUse=3 WtCom= 6.70D-01 WtEn= 3.30D-01
 Coeff-Com:  0.100D+01
 Coeff-En:   0.100D+01
 Coeff:      0.100D+01
 Gap=     0.246 Goal=   None    Shift=    0.000
 GapD=    0.246 DampG=1.000 DampE=0.500 DampFc=0.5000 IDamp=-1.
 Damping current iteration by 5.00D-01
 RMSDP=1.16D-02 MaxDP=1.07D-01              OVMax= 1.82D-01

 Cycle   2  Pass 0  IDiag  1:
 E= -228.687560531701     Delta-E=       -0.029839284152 Rises=F Damp=T
 DIIS: error= 1.29D-02 at cycle   2 NSaved=   2.
 NSaved= 2 IEnMin= 2 EnMin= -228.687560531701     IErMin= 2 ErrMin= 1.29D-02
 ErrMax= 1.29D-02  0.00D+00 EMaxC= 1.00D-01 BMatC= 7.88D-03 BMatP= 7.15D-02
 IDIUse=3 WtCom= 8.71D-01 WtEn= 1.29D-01
 Coeff-Com:  0.102D+00 0.898D+00
 Coeff-En:   0.183D+00 0.817D+00
 Coeff:      0.113D+00 0.887D+00
 Gap=     0.263 Goal=   None    Shift=    0.000
 RMSDP=4.07D-03 MaxDP=3.23D-02 DE=-2.98D-02 OVMax= 1.53D-01

 Cycle   3  Pass 0  IDiag  1:
 E= -228.723494654111     Delta-E=       -0.035934122411 Rises=F Damp=F
 DIIS: error= 1.93D-02 at cycle   3 NSaved=   3.
 NSaved= 3 IEnMin= 3 EnMin= -228.723494654111     IErMin= 2 ErrMin= 1.29D-02
 ErrMax= 1.93D-02  0.00D+00 EMaxC= 1.00D-01 BMatC= 1.04D-02 BMatP= 7.88D-03
 IDIUse=2 WtCom= 0.00D+00 WtEn= 1.00D+00
 Coeff-En:   0.000D+00 0.000D+00 0.100D+01
 Coeff:      0.000D+00 0.000D+00 0.100D+01
 Gap=     0.253 Goal=   None    Shift=    0.000
 RMSDP=5.61D-03 MaxDP=4.24D-02 DE=-3.59D-02 OVMax= 1.20D-01

 Cycle   4  Pass 0  IDiag  1:
 E= -228.695799683627     Delta-E=        0.027694970484 Rises=F Damp=F
 DIIS: error= 3.96D-02 at cycle   4 NSaved=   4.
 NSaved= 4 IEnMin= 3 EnMin= -228.723494654111     IErMin= 2 ErrMin= 1.29D-02
 ErrMax= 3.96D-02  0.00D+00 EMaxC= 1.00D-01 BMatC= 4.06D-02 BMatP= 7.88D-03
 IDIUse=2 WtCom= 0.00D+00 WtEn= 1.00D+00
 Coeff-En:   0.000D+00 0.000D+00 0.748D+00 0.252D+00
 Coeff:      0.000D+00 0.000D+00 0.748D+00 0.252D+00
 Gap=     0.263 Goal=   None    Shift=    0.000
 RMSDP=2.83D-03 MaxDP=2.12D-02 DE= 2.77D-02 OVMax= 6.50D-02

 Cycle   5  Pass 0  IDiag  1:
 E= -228.730953437284     Delta-E=       -0.035153753657 Rises=F Damp=F
 DIIS: error= 9.24D-03 at cycle   5 NSaved=   5.
 NSaved= 5 IEnMin= 5 EnMin= -228.730953437284     IErMin= 5 ErrMin= 9.24D-03
 ErrMax= 9.24D-03  0.00D+00 EMaxC= 1.00D-01 BMatC= 2.29D-03 BMatP= 7.88D-03
 IDIUse=3 WtCom= 9.08D-01 WtEn= 9.24D-02
 Coeff-Com: -0.102D-01 0.314D-01 0.218D+00-0.113D+00 0.874D+00
 Coeff-En:   0.000D+00 0.000D+00 0.223D+00 0.000D+00 0.777D+00
 Coeff:     -0.928D-02 0.285D-01 0.218D+00-0.102D+00 0.865D+00
 Gap=     0.268 Goal=   None    Shift=    0.000
 RMSDP=9.55D-04 MaxDP=7.11D-03 DE=-3.52D-02 OVMax= 2.05D-02

 Cycle   6  Pass 0  IDiag  1:
 E= -228.733054913549     Delta-E=       -0.002101476265 Rises=F Damp=F
 DIIS: error= 4.76D-04 at cycle   6 NSaved=   6.
 NSaved= 6 IEnMin= 6 EnMin= -228.733054913549     IErMin= 6 ErrMin= 4.76D-04
 ErrMax= 4.76D-04  0.00D+00 EMaxC= 1.00D-01 BMatC= 8.74D-06 BMatP= 2.29D-03
 IDIUse=3 WtCom= 9.95D-01 WtEn= 4.76D-03
 Coeff-Com: -0.588D-02 0.138D-01 0.567D-01-0.535D-01 0.353D+00 0.636D+00
 Coeff-En:   0.000D+00 0.000D+00 0.000D+00 0.000D+00 0.000D+00 0.100D+01
 Coeff:     -0.585D-02 0.137D-01 0.565D-01-0.532D-01 0.351D+00 0.638D+00
 Gap=     0.268 Goal=   None    Shift=    0.000
 RMSDP=6.31D-05 MaxDP=5.94D-04 DE=-2.10D-03 OVMax= 1.28D-03

 Cycle   7  Pass 0  IDiag  1:
 E= -228.733063596220     Delta-E=       -0.000008682671 Rises=F Damp=F
 DIIS: error= 9.39D-05 at cycle   7 NSaved=   7.
 NSaved= 7 IEnMin= 7 EnMin= -228.733063596220     IErMin= 7 ErrMin= 9.39D-05
 ErrMax= 9.39D-05  0.00D+00 EMaxC= 1.00D-01 BMatC= 2.31D-07 BMatP= 8.74D-06
 IDIUse=1 WtCom= 1.00D+00 WtEn= 0.00D+00
 Coeff-Com: -0.186D-02 0.371D-02 0.155D-01-0.170D-01 0.117D+00 0.360D+00
 Coeff-Com:  0.523D+00
 Coeff:     -0.186D-02 0.371D-02 0.155D-01-0.170D-01 0.117D+00 0.360D+00
 Coeff:      0.523D+00
 Gap=     0.268 Goal=   None    Shift=    0.000
 RMSDP=9.57D-06 MaxDP=1.14D-04 DE=-8.68D-06 OVMax= 2.89D-04

 Initial convergence to 1.0D-05 achieved.  Increase integral accuracy.
 Cycle   8  Pass 1  IDiag  1:
 E= -228.733081852975     Delta-E=       -0.000018256755 Rises=F Damp=F
 DIIS: error= 1.82D-05 at cycle   1 NSaved=   1.
 NSaved= 1 IEnMin= 1 EnMin= -228.733081852975     IErMin= 1 ErrMin= 1.82D-05
 ErrMax= 1.82D-05  0.00D+00 EMaxC= 1.00D-01 BMatC= 2.21D-08 BMatP= 2.21D-08
 IDIUse=1 WtCom= 1.00D+00 WtEn= 0.00D+00
 Coeff-Com:  0.100D+01
 Coeff:      0.100D+01
 Gap=     0.268 Goal=   None    Shift=    0.000
 RMSDP=9.57D-06 MaxDP=1.14D-04 DE=-1.83D-05 OVMax= 9.10D-05

 Cycle   9  Pass 1  IDiag  1:
 E= -228.733081852861     Delta-E=        0.000000000114 Rises=F Damp=F
 DIIS: error= 2.66D-05 at cycle   2 NSaved=   2.
 NSaved= 2 IEnMin= 1 EnMin= -228.733081852975     IErMin= 1 ErrMin= 1.82D-05
 ErrMax= 2.66D-05  0.00D+00 EMaxC= 1.00D-01 BMatC= 2.46D-08 BMatP= 2.21D-08
 IDIUse=1 WtCom= 1.00D+00 WtEn= 0.00D+00
 Coeff-Com:  0.516D+00 0.484D+00
 Coeff:      0.516D+00 0.484D+00
 Gap=     0.268 Goal=   None    Shift=    0.000
 RMSDP=3.59D-06 MaxDP=3.73D-05 DE= 1.14D-10 OVMax= 8.74D-05

 Cycle  10  Pass 1  IDiag  1:
 E= -228.733081875480     Delta-E=       -0.000000022620 Rises=F Damp=F
 DIIS: error= 8.22D-06 at cycle   3 NSaved=   3.
 NSaved= 3 IEnMin= 3 EnMin= -228.733081875480     IErMin= 3 ErrMin= 8.22D-06
 ErrMax= 8.22D-06  0.00D+00 EMaxC= 1.00D-01 BMatC= 2.02D-09 BMatP= 2.21D-08
 IDIUse=1 WtCom= 1.00D+00 WtEn= 0.00D+00
 Coeff-Com:  0.417D-01 0.224D+00 0.734D+00
 Coeff:      0.417D-01 0.224D+00 0.734D+00
 Gap=     0.268 Goal=   None    Shift=    0.000
 RMSDP=1.24D-06 MaxDP=1.09D-05 DE=-2.26D-08 OVMax= 2.50D-05

 Cycle  11  Pass 1  IDiag  1:
 E= -228.733081877009     Delta-E=       -0.000000001529 Rises=F Damp=F
 DIIS: error= 5.80D-06 at cycle   4 NSaved=   4.
 NSaved= 4 IEnMin= 4 EnMin= -228.733081877009     IErMin= 4 ErrMin= 5.80D-06
 ErrMax= 5.80D-06  0.00D+00 EMaxC= 1.00D-01 BMatC= 7.94D-10 BMatP= 2.02D-09
 IDIUse=1 WtCom= 1.00D+00 WtEn= 0.00D+00
 Coeff-Com: -0.182D-01 0.120D+00 0.509D+00 0.389D+00
 Coeff:     -0.182D-01 0.120D+00 0.509D+00 0.389D+00
 Gap=     0.268 Goal=   None    Shift=    0.000
 RMSDP=4.68D-07 MaxDP=4.99D-06 DE=-1.53D-09 OVMax= 9.72D-06

 Cycle  12  Pass 1  IDiag  1:
 E= -228.733081877631     Delta-E=       -0.000000000622 Rises=F Damp=F
 DIIS: error= 1.26D-07 at cycle   5 NSaved=   5.
 NSaved= 5 IEnMin= 5 EnMin= -228.733081877631     IErMin= 5 ErrMin= 1.26D-07
 ErrMax= 1.26D-07  0.00D+00 EMaxC= 1.00D-01 BMatC= 1.31D-12 BMatP= 7.94D-10
 IDIUse=1 WtCom= 1.00D+00 WtEn= 0.00D+00
 Coeff-Com: -0.606D-02 0.307D-01 0.130D+00 0.112D+00 0.733D+00
 Coeff:     -0.606D-02 0.307D-01 0.130D+00 0.112D+00 0.733D+00
 Gap=     0.268 Goal=   None    Shift=    0.000
 RMSDP=3.38D-08 MaxDP=3.05D-07 DE=-6.22D-10 OVMax= 5.03D-07

 Cycle  13  Pass 1  IDiag  1:
 E= -228.733081877632     Delta-E=       -0.000000000001 Rises=F Damp=F
 DIIS: error= 6.24D-08 at cycle   6 NSaved=   6.
 NSaved= 6 IEnMin= 6 EnMin= -228.733081877632     IErMin= 6 ErrMin= 6.24D-08
 ErrMax= 6.24D-08  0.00D+00 EMaxC= 1.00D-01 BMatC= 3.33D-13 BMatP= 1.31D-12
 IDIUse=1 WtCom= 1.00D+00 WtEn= 0.00D+00
 Coeff-Com: -0.862D-03 0.362D-02 0.131D-01 0.171D-01 0.365D+00 0.602D+00
 Coeff:     -0.862D-03 0.362D-02 0.131D-01 0.171D-01 0.365D+00 0.602D+00
 Gap=     0.268 Goal=   None    Shift=    0.000
 RMSDP=1.55D-08 MaxDP=1.88D-07 DE=-7.96D-13 OVMax= 2.47D-07

 Cycle  14  Pass 1  IDiag  1:
 E= -228.733081877631     Delta-E=        0.000000000001 Rises=F Damp=F
 DIIS: error= 2.55D-08 at cycle   7 NSaved=   7.
 NSaved= 7 IEnMin= 6 EnMin= -228.733081877632     IErMin= 7 ErrMin= 2.55D-08
 ErrMax= 2.55D-08  0.00D+00 EMaxC= 1.00D-01 BMatC= 2.35D-14 BMatP= 3.33D-13
 IDIUse=1 WtCom= 1.00D+00 WtEn= 0.00D+00
 Coeff-Com: -0.113D-03-0.598D-05-0.126D-02 0.160D-02 0.127D+00 0.289D+00
 Coeff-Com:  0.583D+00
 Coeff:     -0.113D-03-0.598D-05-0.126D-02 0.160D-02 0.127D+00 0.289D+00
 Coeff:      0.583D+00
 Gap=     0.268 Goal=   None    Shift=    0.000
 RMSDP=4.03D-09 MaxDP=4.31D-08 DE= 6.82D-13 OVMax= 1.00D-07

 SCF Done:  E(RB3LYP) =  -228.733081878     A.U. after   14 cycles
            NFock= 14  Conv=0.40D-08     -V/T= 2.0081
 KE= 2.268864950759D+02 PE=-8.557035660897D+02 EE= 2.384573649723D+02
 Leave Link  502 at Tue Dec 15 16:27:24 2015, MaxMem=    33554432 cpu:         5.5
 (Enter /home/Applications/g09/g09/l801.exe)
 DoSCS=F DFT=T ScalE2(SS,OS)=  1.000000  1.000000
 ExpMin= 1.83D-01 ExpMax= 3.22D+02 ExpMxC= 3.22D+02 IAcc=3 IRadAn=         5 AccDes= 0.00D+00
 HarFok:  IExCor=  205 AccDes= 0.00D+00 IRadAn=         5 IDoV=-2 UseB2=F ITyADJ=14
 ICtDFT= 12500011 ScaDFX=  1.000000  1.000000  1.000000  1.000000
 Largest valence mixing into a core orbital is  2.04D-04
 Largest core mixing into a valence orbital is  4.33D-05
 Range of M.O.s used for correlation:     6    53
 NBasis=    53 NAE=    18 NBE=    18 NFC=     5 NFV=     0
 NROrb=     48 NOA=    13 NOB=    13 NVA=    35 NVB=    35
 Leave Link  801 at Tue Dec 15 16:27:25 2015, MaxMem=    33554432 cpu:         0.3
 (Enter /home/Applications/g09/g09/l914.exe)
 RHF ground state
 MDV=    33554432 DFT=T DoStab=F Mixed=T DoRPA=F DoScal=F NonHer=F
 Keep R1, R2, and R3 ints in memory in canonical form, NReq=5596273.
 FoFCou: FMM=F IPFlag=           0 FMFlag=           0 FMFlg1=           0
         NFxFlg=           0 DoJE=F BraDBF=F KetDBF=F FulRan=T
         wScrn=  0.000000 ICntrl=     600 IOpCl=  0 I1Cent=           0 NGrid=           0
         NMat0=    1 NMatS0=   1431 NMatT0=    0 NMatD0=    1 NMtDS0=    0 NMtDT0=    0
 Symmetry not used in FoFCou.
 Making orbital integer symmetry assigments:
 Orbital symmetries:
       Occupied  (A) (A) (A) (A) (A) (A) (A) (A) (A) (A) (A) (A)
                 (A) (A) (A) (A) (A) (A)
       Virtual   (A) (A) (A) (A) (A) (A) (A) (A) (A) (A) (A) (A)
                 (A) (A) (A) (A) (A) (A) (A) (A) (A) (A) (A) (A)
                 (A) (A) (A) (A) (A) (A) (A) (A) (A) (A) (A)
    60 initial guesses have been made.
 Convergence on wavefunction:    0.000001000000000
 Davidson Disk Diagonalization:  ConvIn= 1.00D-06 SkipCon=T Conv= 1.00D-06.
 Max sub-space:   240 roots to seek:    60 dimension of matrix:          910
 Iteration     1 Dimension    60 NMult     0 NNew     60
 CISAX will form    60 AO SS matrices at one time.
 NMat=    60 NSing=    60 JSym2X= 0.
 New state      1 was old state      3
 New state      2 was old state      1
 New state      3 was old state      5
 New state      4 was old state      6
 New state      5 was old state      7
 New state      6 was old state      8
 New state      7 was old state      9
 New state      8 was old state     11
 New state      9 was old state      4
 New state     11 was old state     12
 New state     12 was old state     13
 New state     13 was old state     16
 New state     15 was old state      2
 Excitation Energies [eV] at current iteration:
 Root      1 :     7.506309690387492
 Root      2 :     8.359352963510728
 Root      3 :     8.466661711156316
 Root      4 :     9.177509040437183
 Root      5 :     9.237006450544563
 Root      6 :     9.499914903316464
 Root      7 :     9.791239547173335
 Root      8 :     9.890466736452565
 Root      9 :    10.022345447689550
 Root     10 :    10.150086571464280
 Root     11 :    10.294380914494800
 Root     12 :    10.419948721798110
 Root     13 :    10.839340603789220
 Root     14 :    10.938035494586660
 Root     15 :    10.996459260930970
 Root     16 :    11.081492606458240
 Root     17 :    11.175325794146390
 Root     18 :    11.252515213924040
 Root     19 :    11.515197176054780
 Root     20 :    11.602381905563680
 Root     21 :    12.054399204586550
 Root     22 :    12.067094448698620
 Root     23 :    12.132496288961230
 Root     24 :    12.679516225990500
 Root     25 :    12.795663083640690
 Root     26 :    12.958250527840520
 Root     27 :    13.025813314358600
 Root     28 :    13.445982231356340
 Root     29 :    13.508866119170050
 Root     30 :    13.545895471601400
 Root     31 :    13.884546521665890
 Root     32 :    13.946358400880320
 Root     33 :    14.230812088314630
 Root     34 :    14.264784739281770
 Root     35 :    14.299040367017380
 Root     36 :    14.330856434784210
 Root     37 :    14.488024701049560
 Root     38 :    14.641468768229190
 Root     39 :    14.872259922691100
 Root     40 :    15.036713946025610
 Root     41 :    15.104315984108000
 Root     42 :    15.193798447396940
 Root     43 :    15.251909459599630
 Root     44 :    15.324189678343100
 Root     45 :    15.392702116385290
 Root     46 :    15.473615302339690
 Root     47 :    15.620736645196080
 Root     48 :    15.670946304063590
 Root     49 :    15.801367815092410
 Root     50 :    15.894452511924110
 Root     51 :    15.969147388656200
 Root     52 :    16.106654168095610
 Root     53 :    16.149253107758010
 Root     54 :    16.265857041349020
 Root     55 :    16.327938134134020
 Root     56 :    16.380007183672160
 Root     57 :    16.523157368632160
 Root     58 :    17.133168428876870
 Root     59 :    18.397062888664000
 Root     60 :    19.600512852359660
 Iteration     2 Dimension   120 NMult    60 NNew     60
 CISAX will form    60 AO SS matrices at one time.
 NMat=    60 NSing=    60 JSym2X= 0.
 Root      1 not converged, maximum delta is    0.150171077292861
 Root      2 not converged, maximum delta is    0.117685798746509
 Root      3 not converged, maximum delta is    0.078658103260573
 Root      4 not converged, maximum delta is    0.047838667269892
 Root      5 not converged, maximum delta is    0.122317234445327
 Root      6 not converged, maximum delta is    0.307284770540329
 New state      7 was old state      9
 Root      7 not converged, maximum delta is    0.397920685965853
 New state      8 was old state      7
 Root      8 not converged, maximum delta is    0.244162534221145
 New state      9 was old state      8
 Root      9 not converged, maximum delta is    0.023584962317853
 New state     10 was old state     15
 Root     10 not converged, maximum delta is    0.262226437161498
 New state     11 was old state     10
 Root     11 not converged, maximum delta is    0.150950347851602
 New state     12 was old state     11
 Root     12 not converged, maximum delta is    0.088149454693808
 New state     13 was old state     12
 Root     13 not converged, maximum delta is    0.063704746115791
 New state     14 was old state     13
 Root     14 not converged, maximum delta is    0.018471084418118
 New state     15 was old state     14
 Root     15 not converged, maximum delta is    0.179043824147651
 Excitation Energies [eV] at current iteration:
 Root      1 :     7.365468195604414   Change is   -0.140841494783077
 Root      2 :     7.595105966614914   Change is   -0.764246996895814
 Root      3 :     8.453463148384282   Change is   -0.013198562772034
 Root      4 :     9.156090568070413   Change is   -0.021418472366769
 Root      5 :     9.204739723588201   Change is   -0.032266726956362
 Root      6 :     9.338394381041409   Change is   -0.161520522275056
 Root      7 :     9.622891637075696   Change is   -0.399453810613850
 Root      8 :     9.799047317342943   Change is    0.007807770169608
 Root      9 :     9.875093130907596   Change is   -0.015373605544969
 Root     10 :     9.977841626132568   Change is   -1.018617634798400
 Root     11 :    10.117327822356870   Change is   -0.032758749107406
 Root     12 :    10.289139497437930   Change is   -0.005241417056870
 Root     13 :    10.405354433426670   Change is   -0.014594288371433
 Root     14 :    10.826200612237170   Change is   -0.013139991552051
 Root     15 :    10.939406179439350   Change is    0.001370684852690
 Root     16 :    11.065619119362160   Change is   -0.015873487096084
 Root     17 :    11.141241804584300   Change is   -0.034083989562091
 Root     18 :    11.221622323635940   Change is   -0.030892890288101
 Root     19 :    11.478257388896210   Change is   -0.036939787158575
 Root     20 :    11.580344441677120   Change is   -0.022037463886557
 Root     21 :    12.015087317825820   Change is   -0.039311886760729
 Root     22 :    12.036050005644120   Change is   -0.031044443054501
 Root     23 :    12.079306767308030   Change is   -0.053189521653198
 Root     24 :    12.622373631740970   Change is   -0.057142594249534
 Root     25 :    12.779019899766670   Change is   -0.016643183874026
 Root     26 :    12.887124015979430   Change is   -0.138689298379169
 Root     27 :    12.899996225338010   Change is   -0.058254302502507
 Root     28 :    13.195537758211680   Change is   -0.313328360958368
 Root     29 :    13.397819269185810   Change is   -0.048162962170526
 Root     30 :    13.507940371407770   Change is   -0.037955100193629
 Root     31 :    13.611536148321900   Change is   -0.273010373343994
 Root     32 :    13.709109895501940   Change is   -0.778914805547618
 Root     33 :    13.902522491210480   Change is   -0.043835909669842
 Root     34 :    14.119586816269700   Change is   -0.211269618514504
 Root     35 :    14.202565054362850   Change is   -0.028247033951772
 Root     36 :    14.257314037074890   Change is   -0.041726329942493
 Root     37 :    14.298461541281030   Change is    0.033676801999256
 Root     38 :    14.582446686286310   Change is   -0.059022081942887
 Root     39 :    14.699396298294040   Change is   -0.172863624397063
 Root     40 :    14.866317986090450   Change is   -0.457871692252645
 Root     41 :    15.003879742472360   Change is   -0.032834203553248
 Root     42 :    15.033578288158100   Change is   -0.070737695949896
 Root     43 :    15.089952638411640   Change is   -0.103845808985296
 Root     44 :    15.144823172405830   Change is   -0.107086287193801
 Root     45 :    15.277252703137740   Change is   -0.115449413247556
 Root     46 :    15.378915852947320   Change is   -0.241820792248763
 Root     47 :    15.420178036164630   Change is   -0.053437266175067
 Root     48 :    15.473126188273110   Change is   -0.197820115790489
 Root     49 :    15.572312560156910   Change is   -0.950844808475246
 Root     50 :    15.775749958936460   Change is   -0.025617856155946
 Root     51 :    15.821601847782170   Change is   -0.072850664141942
 Root     52 :    15.869638793194990   Change is   -0.099508595461209
 Root     53 :    15.934319484334540   Change is   -0.214933623423464
 Root     54 :    16.017919991886410   Change is   -0.088734176209200
 Root     55 :    16.089470853706560   Change is   -0.290536329965595
 Root     56 :    16.186466854510880   Change is   -0.079390186838143
 Root     57 :    16.320047917678550   Change is   -0.007890216455466
 Root     58 :    16.370366830111000   Change is   -0.762801598765869
 Root     59 :    17.118897735618310   Change is   -1.278165153045691
 Root     60 :    17.219839449405390   Change is   -2.380673402954274
 Iteration     3 Dimension   135 NMult   120 NNew     15
 CISAX will form    15 AO SS matrices at one time.
 NMat=    15 NSing=    15 JSym2X= 0.
 Root      1 not converged, maximum delta is    0.001074505873006
 Root      2 not converged, maximum delta is    0.002680727269811
 Root      3 not converged, maximum delta is    0.000293506689125
 Root      4 not converged, maximum delta is    0.000384335776718
 Root      5 not converged, maximum delta is    0.001484686067084
 Root      6 not converged, maximum delta is    0.002018434897589
 Root      7 not converged, maximum delta is    0.001694745108046
 Root      8 not converged, maximum delta is    0.000852365407867
 Root      9 not converged, maximum delta is    0.000857744764575
 Root     10 not converged, maximum delta is    0.003386271899076
 Root     11 not converged, maximum delta is    0.000671430225892
 Root     12 not converged, maximum delta is    0.000782682579379
 Root     13 not converged, maximum delta is    0.000419845529684
 Root     14 not converged, maximum delta is    0.000250639151151
 Root     15 not converged, maximum delta is    0.000123187084779
 Excitation Energies [eV] at current iteration:
 Root      1 :     7.364698274476057   Change is   -0.000769921128358
 Root      2 :     7.593256639331457   Change is   -0.001849327283456
 Root      3 :     8.453424815496863   Change is   -0.000038332887419
 Root      4 :     9.156064154171290   Change is   -0.000026413899123
 Root      5 :     9.204605511041974   Change is   -0.000134212546226
 Root      6 :     9.337350719517081   Change is   -0.001043661524327
 Root      7 :     9.622284957038497   Change is   -0.000606680037200
 Root      8 :     9.798939455758353   Change is   -0.000107861584590
 Root      9 :     9.875054932010963   Change is   -0.000038198896633
 Root     10 :     9.973936137398111   Change is   -0.003905488734458
 Root     11 :    10.117262784236250   Change is   -0.000065038120623
 Root     12 :    10.289047310402970   Change is   -0.000092187034961
 Root     13 :    10.405308317515550   Change is   -0.000046115911128
 Root     14 :    10.826179155474180   Change is   -0.000021456762995
 Root     15 :    10.939396945266960   Change is   -0.000009234172389
 Iteration     4 Dimension   150 NMult   135 NNew     15
 CISAX will form    15 AO SS matrices at one time.
 NMat=    15 NSing=    15 JSym2X= 0.
 Root      1 not converged, maximum delta is    0.000037361106389
 Root      2 not converged, maximum delta is    0.000054163928136
 Root      3 not converged, maximum delta is    0.000011317143965
 Root      4 not converged, maximum delta is    0.000006098221550
 Root      5 not converged, maximum delta is    0.000015342302831
 Root      6 not converged, maximum delta is    0.000049069127401
 Root      7 not converged, maximum delta is    0.000036733719215
 Root      8 not converged, maximum delta is    0.000011997774548
 Root      9 not converged, maximum delta is    0.000009768553338
 Root     10 not converged, maximum delta is    0.000131982195365
 Root     11 not converged, maximum delta is    0.000011916207960
 Root     12 not converged, maximum delta is    0.000019029811666
 Root     13 not converged, maximum delta is    0.000014163766968
 Root     14 not converged, maximum delta is    0.000013865333883
 Root     15 not converged, maximum delta is    0.000005022186185
 Excitation Energies [eV] at current iteration:
 Root      1 :     7.364697368337985   Change is   -0.000000906138071
 Root      2 :     7.593254763278266   Change is   -0.000001876053192
 Root      3 :     8.453424765648622   Change is   -0.000000049848242
 Root      4 :     9.156064129635540   Change is   -0.000000024535749
 Root      5 :     9.204605350935182   Change is   -0.000000160106792
 Root      6 :     9.337349363044600   Change is   -0.000001356472480
 Root      7 :     9.622284107865019   Change is   -0.000000849173478
 Root      8 :     9.798939301782994   Change is   -0.000000153975359
 Root      9 :     9.875054887991148   Change is   -0.000000044019816
 Root     10 :     9.973929987620009   Change is   -0.000006149778103
 Root     11 :    10.117262709272720   Change is   -0.000000074963527
 Root     12 :    10.289047171530950   Change is   -0.000000138872021
 Root     13 :    10.405308256178020   Change is   -0.000000061337524
 Root     14 :    10.826179124680340   Change is   -0.000000030793841
 Root     15 :    10.939396937116070   Change is   -0.000000008150889
 Iteration     5 Dimension   165 NMult   150 NNew     15
 CISAX will form    15 AO SS matrices at one time.
 NMat=    15 NSing=    15 JSym2X= 0.
 Root      1 has converged.
 Root      2 not converged, maximum delta is    0.000001985580775
 Root      3 has converged.
 Root      4 has converged.
 Root      5 has converged.
 Root      6 not converged, maximum delta is    0.000001733728606
 Root      7 not converged, maximum delta is    0.000001338694069
 Root      8 has converged.
 Root      9 has converged.
 Root     10 not converged, maximum delta is    0.000004318275426
 Root     11 has converged.
 Root     12 has converged.
 Root     13 has converged.
 Root     14 has converged.
 Root     15 has converged.
 Excitation Energies [eV] at current iteration:
 Root      1 :     7.364697367666959   Change is   -0.000000000671027
 Root      2 :     7.593254761674449   Change is   -0.000000001603817
 Root      3 :     8.453424765607044   Change is   -0.000000000041577
 Root      4 :     9.156064129613796   Change is   -0.000000000021744
 Root      5 :     9.204605350807713   Change is   -0.000000000127470
 Root      6 :     9.337349361895201   Change is   -0.000000001149399
 Root      7 :     9.622284107107925   Change is   -0.000000000757094
 Root      8 :     9.798939301645268   Change is   -0.000000000137726
 Root      9 :     9.875054887956686   Change is   -0.000000000034461
 Root     10 :     9.973929980217498   Change is   -0.000000007402509
 Root     11 :    10.117262709196480   Change is   -0.000000000076243
 Root     12 :    10.289047171369810   Change is   -0.000000000161138
 Root     13 :    10.405308256109830   Change is   -0.000000000068198
 Root     14 :    10.826179124630230   Change is   -0.000000000050109
 Root     15 :    10.939396937103000   Change is   -0.000000000013069
 Iteration     6 Dimension   169 NMult   165 NNew      4
 CISAX will form     4 AO SS matrices at one time.
 NMat=     4 NSing=     4 JSym2X= 0.
 Root      1 has converged.
 Root      2 has converged.
 Root      3 has converged.
 Root      4 has converged.
 Root      5 has converged.
 Root      6 has converged.
 Root      7 has converged.
 Root      8 has converged.
 Root      9 has converged.
 Root     10 has converged.
 Root     11 has converged.
 Root     12 has converged.
 Root     13 has converged.
 Root     14 has converged.
 Root     15 has converged.
 Excitation Energies [eV] at current iteration:
 Root      1 :     7.364697367666926   Change is   -0.000000000000033
 Root      2 :     7.593254761673810   Change is   -0.000000000000639
 Root      3 :     8.453424765607016   Change is   -0.000000000000027
 Root      4 :     9.156064129613787   Change is   -0.000000000000009
 Root      5 :     9.204605350807654   Change is   -0.000000000000059
 Root      6 :     9.337349361894395   Change is   -0.000000000000807
 Root      7 :     9.622284107107330   Change is   -0.000000000000595
 Root      8 :     9.798939301645195   Change is   -0.000000000000074
 Root      9 :     9.875054887956686   Change is    0.000000000000000
 Root     10 :     9.973929980212215   Change is   -0.000000000005284
 Root     11 :    10.117262709196450   Change is   -0.000000000000033
 Root     12 :    10.289047171369690   Change is   -0.000000000000125
 Root     13 :    10.405308256109800   Change is   -0.000000000000030
 Root     14 :    10.826179124630220   Change is   -0.000000000000009
 Root     15 :    10.939396937102960   Change is   -0.000000000000044
 Convergence achieved on expansion vectors.
 ***********************************************************************
 Excited states from <AA,BB:AA,BB> singles matrix:
 ***********************************************************************
 
 1PDM for each excited state written to RWF  633
 Ground to excited state transition densities written to RWF  633
 Ground to excited state transition electric dipole moments (Au):
       state          X           Y           Z        Dip. S.      Osc.
         1         0.3280     -0.1112      0.0192      0.1203      0.0217
         2         0.9768     -0.3194      0.0491      1.0585      0.1969
         3         0.0557      0.1254     -0.0177      0.0192      0.0040
         4         0.0418     -0.0450      0.1155      0.0171      0.0038
         5         0.1850     -0.0716     -0.1506      0.0620      0.0140
         6        -0.5274      0.1783      0.0576      0.3132      0.0717
         7        -0.3395      0.2752      0.0174      0.1913      0.0451
         8        -0.0832      0.1683     -0.0315      0.0362      0.0087
         9         0.0089      0.0979      0.0076      0.0097      0.0024
        10        -0.5513     -1.4197      0.0088      2.3196      0.5668
        11         0.1603      0.0362     -0.0011      0.0270      0.0067
        12        -0.0437     -0.1949     -0.0396      0.0415      0.0105
        13         0.0653      0.0814      0.0583      0.0143      0.0036
        14         0.0213      0.0403      0.0048      0.0021      0.0006
        15         0.0078      0.0208     -0.0398      0.0021      0.0006
 Ground to excited state transition velocity dipole moments (Au):
       state          X           Y           Z        Dip. S.      Osc.
         1         0.0085      0.0495      0.0011      0.0025      0.0062
         2        -0.0274      0.0001      0.0023      0.0008      0.0018
         3         0.0015      0.0039     -0.0134      0.0002      0.0004
         4        -0.0045     -0.0006     -0.0738      0.0055      0.0108
         5        -0.0177      0.0075      0.0423      0.0022      0.0043
         6         0.0525     -0.0242      0.0279      0.0041      0.0080
         7         0.0396     -0.0200     -0.0386      0.0035      0.0065
         8         0.0118     -0.0112      0.0093      0.0004      0.0007
         9        -0.0034     -0.0047      0.0168      0.0003      0.0006
        10         0.0261      0.0436     -0.0019      0.0026      0.0047
        11        -0.0241      0.0052     -0.0203      0.0010      0.0018
        12         0.0012      0.0058     -0.0158      0.0003      0.0005
        13        -0.0086      0.0044     -0.0246      0.0007      0.0012
        14        -0.0054     -0.0078      0.0046      0.0001      0.0002
        15         0.0000      0.0016     -0.0317      0.0010      0.0017
 Ground to excited state transition magnetic dipole moments (Au):
       state          X           Y           Z
         1        -0.0167     -0.0239      0.1227
         2        -0.0081      0.0200      0.4572
         3         0.1961      0.4639      0.0161
         4         0.8846     -0.3413     -0.0046
         5        -1.2542      0.2837     -0.1163
         6        -0.3279      0.0482      0.3227
         7        -0.2247      0.1028      0.2549
         8         0.1437     -0.1425      0.0648
         9        -0.2121      0.3441      0.0056
        10        -0.0593      0.0089     -0.0037
        11        -0.1446      0.0105      0.0086
        12         0.1896      0.2017     -0.0163
        13        -0.5111     -0.9973      0.0269
        14         0.1832      0.1699      0.0060
        15        -0.0992     -0.3240     -0.0067
 Ground to excited state transition velocity quadrupole moments (Au):
       state          XX          YY          ZZ          XY          XZ          YZ
         1         0.0506     -0.0160     -0.0235      0.0594      0.0071     -0.0048
         2         0.1230     -0.1828      0.0124      0.1915      0.0015     -0.0034
         3         0.0197     -0.0158     -0.0086     -0.0156     -0.0875      0.0470
         4        -0.0116      0.0231      0.0029     -0.0217     -0.0170      0.1699
         5        -0.0621      0.0685      0.0034     -0.0730     -0.1104     -0.1208
         6         0.1899     -0.1919      0.0015      0.2178     -0.0509      0.0039
         7         0.1549     -0.1578     -0.0046      0.1338      0.0392     -0.0875
         8         0.0838     -0.0821     -0.0036      0.0623     -0.1177     -0.0014
         9         0.0045      0.0136     -0.0063     -0.0400     -0.0835     -0.0674
        10        -0.2394      0.1789      0.0567      0.2278     -0.0273     -0.0272
        11        -0.0148      0.0227     -0.0044     -0.0508     -0.0630     -0.0919
        12        -0.0441      0.0261      0.0103      0.0248      0.0153      0.0556
        13         0.0017     -0.0021      0.0004     -0.0116      0.0658     -0.0796
        14        -0.0111     -0.0186     -0.0027     -0.0218     -0.0507      0.0256
        15         0.0096     -0.0003     -0.0002     -0.0092      0.0123     -0.0031
 <0|del|b> * <b|rxdel|0> + <0|del|b> * <b|delr+rdel|0>
 Rotatory Strengths (R) in cgs (10**-40 erg-esu-cm/Gauss)
       state          XX          YY          ZZ    R(velocity)    E-M Angle
         1        -1.7485     -0.1512     -1.2179     -1.0392      100.86
         2         1.8793      1.1669      0.1695      1.0719       84.21
         3         2.4684     -0.0591      1.9500      1.4531       74.26
         4         2.2477     -6.2834     -3.1260     -2.3872       92.79
         5        -5.2953     23.5586     22.3528     13.5387       71.12
         6        13.0524    -14.5343    -17.8982     -6.4601      108.46
         7       -16.2839    -17.0363     -8.2666    -13.8623      174.93
         8         1.4333      1.6759      4.5414      2.5502       12.05
         9        -2.5303      1.6707     -0.7197     -0.5264       96.47
        10         1.1155     -1.7580     -1.5853     -0.7426      112.20
        11         1.1815      4.2729      0.9470      2.1338       43.51
        12         0.8900      0.8848      1.3340      1.0363       69.17
        13        -4.6666      3.7992     -0.3691     -0.4121       91.29
        14        -1.5884     -0.8959     -1.5857     -1.3567      150.33
        15        -0.0392     -0.0681     -0.4432     -0.1835       91.67
 1/2[<0|r|b>*<b|rxdel|0> + (<0|rxdel|b>*<b|r|0>)*]
 Rotatory Strengths (R) in cgs (10**-40 erg-esu-cm/Gauss)
       state          XX          YY          ZZ     R(length)
         1         3.8834     -1.8770     -1.6624      0.1146
         2         5.6144      4.5143    -15.8779     -1.9164
         3        -7.7259    -41.1492      0.2019    -16.2244
         4       -26.1589    -10.8718      0.3741    -12.2188
         5       164.0984     14.3685    -12.3820     55.3616
         6      -122.3037     -6.0797    -13.1371    -47.1735
         7       -53.9572    -20.0082     -3.1393    -25.7016
         8         8.4522     16.9641      1.4456      8.9540
         9         1.3307    -23.8360     -0.0298     -7.5117
        10       -23.1091      8.9007      0.0228     -4.7285
        11        16.3884     -0.2689      0.0067      5.3754
        12         5.8598     27.7973     -0.4574     11.0666
        13        23.5932     57.3938     -1.1077     26.6264
        14        -2.7567     -4.8425     -0.0202     -2.5398
        15         0.5459      4.7599     -0.1873      1.7062
  1/2[<0|del|b>*<b|r|0> + (<0|r|b>*<b|del|0>)*] (Au)
       state          X           Y           Z        Dip. S.   Osc.(frdel)
         1         0.0028     -0.0055      0.0000      0.0027      0.0018
         2        -0.0268      0.0000      0.0001      0.0267      0.0178
         3         0.0001      0.0005      0.0002     -0.0008     -0.0005
         4        -0.0002      0.0000     -0.0085      0.0087      0.0058
         5        -0.0033     -0.0005     -0.0064      0.0102      0.0068
         6        -0.0277     -0.0043      0.0016      0.0304      0.0203
         7        -0.0134     -0.0055     -0.0007      0.0196      0.0131
         8        -0.0010     -0.0019     -0.0003      0.0032      0.0021
         9         0.0000     -0.0005      0.0001      0.0004      0.0002
        10        -0.0144     -0.0620      0.0000      0.0764      0.0509
        11        -0.0039      0.0002      0.0000      0.0037      0.0024
        12        -0.0001     -0.0011      0.0006      0.0006      0.0004
        13        -0.0006      0.0004     -0.0014      0.0016      0.0011
        14        -0.0001     -0.0003      0.0000      0.0004      0.0003
        15         0.0000      0.0000      0.0013     -0.0013     -0.0009

 Excitation energies and oscillator strengths:
 
 Excited State   1:      Singlet-A      7.3647 eV  168.35 nm  f=0.0217  <S**2>=0.000
      17 -> 19        -0.45971
      18 -> 19         0.24996
      18 -> 20         0.46531
 This state for optimization and/or second-order correction.
 Total Energy, E(CIS) =  -228.462434218    
 Copying the excited state density for this state as the 1-particle RhoCI density.
 
 Excited State   2:      Singlet-A      7.5933 eV  163.28 nm  f=0.1969  <S**2>=0.000
      17 -> 19         0.18876
      18 -> 19         0.63918
      18 -> 20        -0.17054
 
 Excited State   3:      Singlet-A      8.4534 eV  146.67 nm  f=0.0040  <S**2>=0.000
      18 -> 21         0.68618
 
 Excited State   4:      Singlet-A      9.1561 eV  135.41 nm  f=0.0038  <S**2>=0.000
      16 -> 19        -0.44393
      18 -> 22         0.51685
      18 -> 23        -0.12663
 
 Excited State   5:      Singlet-A      9.2046 eV  134.70 nm  f=0.0140  <S**2>=0.000
      16 -> 19         0.50906
      17 -> 20        -0.21276
      17 -> 21         0.18529
      18 -> 22         0.36956
 
 Excited State   6:      Singlet-A      9.3373 eV  132.78 nm  f=0.0717  <S**2>=0.000
      16 -> 19         0.15721
      17 -> 20         0.56508
      17 -> 21        -0.25847
      18 -> 22         0.24397
 
 Excited State   7:      Singlet-A      9.6223 eV  128.85 nm  f=0.0451  <S**2>=0.000
      17 -> 20         0.29653
      17 -> 21         0.52996
      18 -> 22        -0.13346
      18 -> 23        -0.25313
      18 -> 24         0.13534
 
 Excited State   8:      Singlet-A      9.7989 eV  126.53 nm  f=0.0087  <S**2>=0.000
      15 -> 19        -0.32622
      17 -> 21         0.27325
      18 -> 23         0.53714
 
 Excited State   9:      Singlet-A      9.8751 eV  125.55 nm  f=0.0024  <S**2>=0.000
      15 -> 19         0.60117
      16 -> 20        -0.10201
      17 -> 21         0.10184
      18 -> 23         0.28218
      18 -> 24        -0.15165
 
 Excited State  10:      Singlet-A      9.9739 eV  124.31 nm  f=0.5668  <S**2>=0.000
      17 -> 19         0.43842
      18 -> 20         0.44653
      18 -> 21         0.12508
 
 Excited State  11:      Singlet-A     10.1173 eV  122.55 nm  f=0.0067  <S**2>=0.000
      18 -> 23         0.16839
      18 -> 24         0.66027
 
 Excited State  12:      Singlet-A     10.2890 eV  120.50 nm  f=0.0105  <S**2>=0.000
      17 -> 22         0.67914
      18 -> 24         0.10035
 
 Excited State  13:      Singlet-A     10.4053 eV  119.15 nm  f=0.0036  <S**2>=0.000
      14 -> 19         0.25059
      15 -> 20        -0.11822
      16 -> 20         0.62634
 
 Excited State  14:      Singlet-A     10.8262 eV  114.52 nm  f=0.0006  <S**2>=0.000
      14 -> 19         0.59637
      15 -> 20         0.24210
      16 -> 20        -0.18915
      17 -> 24         0.19143
 
 Excited State  15:      Singlet-A     10.9394 eV  113.34 nm  f=0.0006  <S**2>=0.000
      14 -> 19         0.11191
      17 -> 23         0.63181
      17 -> 24        -0.23482
      17 -> 25        -0.10614
 SavETr:  write IOETrn=   770 NScale= 10 NData=  16 NLR=1 NState=   15 LETran=     280.
 The selected state is a singlet
 CISAX will form     1 AO SS matrices at one time.
 NMat=     1 NSing=     1 JSym2X= 0.
 CISAX will form     1 AO SS matrices at one time.
 NMat=     1 NSing=     1 JSym2X= 0.
 Leave Link  914 at Tue Dec 15 16:27:51 2015, MaxMem=    33554432 cpu:        25.8
 (Enter /home/Applications/g09/g09/l1002.exe)
 Minotr:  Closed shell wavefunction.
          Computing CIS/TD-HF/TD-KS derivatives.
          Using Z-Vector for PSCF gradient.
          Skipping F1 and S1 gradient terms here.
          IDoAtm=111111111
          Frozen-core window.
          Direct CPHF calculation.
          Differentiating once with respect to electric field.
                with respect to dipole field.
          Differentiating once with respect to nuclear coordinates.
          Requested convergence is 1.0D-10 RMS, and 1.0D-09 maximum.
          NewPWx=F KeepS1=T KeepF1=T KeepIn=T MapXYZ=F SortEE=F KeepMc=T.
          MDV=      33554290 using IRadAn=       0.
 Using stored XC quadrature information.
 Keep R1 ints in memory in canonical form, NReq=1898913.
 FoFCou: FMM=F IPFlag=           0 FMFlag=           0 FMFlg1=           0
         NFxFlg=           0 DoJE=F BraDBF=F KetDBF=F FulRan=T
         wScrn=  0.000000 ICntrl=     600 IOpCl=  0 I1Cent=           0 NGrid=           0
         NMat0=    1 NMatS0=   1431 NMatT0=    0 NMatD0=    1 NMtDS0=    0 NMtDT0=    0
 Symmetry not used in FoFCou.
          Solving linear equations separately, MaxMat=       0.
          There are     1 degrees of freedom in the 1st order CPHF.  IDoFFX=0 NUNeed=     1.
 LinEq1:  Iter=  0 NonCon=     1 RMS=3.17D-02 Max=4.93D-01 NDo=     1
 AX will form     1 AO Fock derivatives at one time.
 LinEq1:  Iter=  1 NonCon=     1 RMS=8.79D-03 Max=9.10D-02 NDo=     1
 LinEq1:  Iter=  2 NonCon=     1 RMS=5.98D-03 Max=7.21D-02 NDo=     1
 LinEq1:  Iter=  3 NonCon=     1 RMS=3.06D-03 Max=3.40D-02 NDo=     1
 LinEq1:  Iter=  4 NonCon=     1 RMS=2.13D-03 Max=1.68D-02 NDo=     1
 LinEq1:  Iter=  5 NonCon=     1 RMS=6.82D-04 Max=3.87D-03 NDo=     1
 LinEq1:  Iter=  6 NonCon=     1 RMS=2.75D-04 Max=1.63D-03 NDo=     1
 LinEq1:  Iter=  7 NonCon=     1 RMS=6.57D-05 Max=9.49D-04 NDo=     1
 LinEq1:  Iter=  8 NonCon=     1 RMS=4.14D-05 Max=5.03D-04 NDo=     1
 LinEq1:  Iter=  9 NonCon=     1 RMS=7.38D-06 Max=5.86D-05 NDo=     1
 LinEq1:  Iter= 10 NonCon=     1 RMS=9.16D-07 Max=6.20D-06 NDo=     1
 LinEq1:  Iter= 11 NonCon=     1 RMS=1.65D-07 Max=1.04D-06 NDo=     1
 LinEq1:  Iter= 12 NonCon=     1 RMS=1.45D-08 Max=7.41D-08 NDo=     1
 LinEq1:  Iter= 13 NonCon=     1 RMS=1.52D-09 Max=9.36D-09 NDo=     1
 LinEq1:  Iter= 14 NonCon=     1 RMS=1.63D-10 Max=9.13D-10 NDo=     1
 LinEq1:  Iter= 15 NonCon=     0 RMS=2.33D-11 Max=1.28D-10 NDo=     1
 Linear equations converged to 1.000D-10 1.000D-09 after    15 iterations.
 End of Minotr F.D. properties file   721 does not exist.
 End of Minotr F.D. properties file   722 does not exist.
 End of Minotr F.D. properties file   788 does not exist.
 Leave Link 1002 at Tue Dec 15 16:28:04 2015, MaxMem=    33554432 cpu:        13.8
 (Enter /home/Applications/g09/g09/l601.exe)
 Copying SCF densities to generalized density rwf, IOpCl= 0 IROHF=0.

 **********************************************************************

            Population analysis using the SCF density.

 **********************************************************************

 Orbital symmetries:
       Occupied  (A) (A) (A) (A) (A) (A) (A) (A) (A) (A) (A) (A)
                 (A) (A) (A) (A) (A) (A)
       Virtual   (A) (A) (A) (A) (A) (A) (A) (A) (A) (A) (A) (A)
                 (A) (A) (A) (A) (A) (A) (A) (A) (A) (A) (A) (A)
                 (A) (A) (A) (A) (A) (A) (A) (A) (A) (A) (A)
 The electronic state is 1-A.
 Alpha  occ. eigenvalues --  -19.11929 -10.18067 -10.17240 -10.12975 -10.12854
 Alpha  occ. eigenvalues --   -1.15233  -0.80749  -0.75538  -0.60988  -0.56196
 Alpha  occ. eigenvalues --   -0.54086  -0.46239  -0.43806  -0.42232  -0.38755
 Alpha  occ. eigenvalues --   -0.36420  -0.27749  -0.23709
 Alpha virt. eigenvalues --    0.03047   0.07686   0.11989   0.14414   0.16902
 Alpha virt. eigenvalues --    0.17314   0.21990   0.24100   0.36727   0.42397
 Alpha virt. eigenvalues --    0.46515   0.69276   0.69593   0.70039   0.75599
 Alpha virt. eigenvalues --    0.76606   0.78803   0.80686   0.82609   0.84261
 Alpha virt. eigenvalues --    0.93694   0.96608   0.97205   1.01519   1.18955
 Alpha virt. eigenvalues --    1.19930   1.30641   1.36934   1.50233   1.55847
 Alpha virt. eigenvalues --    1.63618   1.73447   1.93476   2.11487   3.22861
     Molecular Orbital Coefficients:
                           1         2         3         4         5
                           O         O         O         O         O
     Eigenvalues --   -19.11929 -10.18067 -10.17240 -10.12975 -10.12854
   1 1   C  1S          0.00018  -0.00019  -0.01196  -0.52809   0.83265
   2        2S          0.00072  -0.00017  -0.00573  -0.06163   0.09090
   3        2PX         0.00129   0.00010   0.00213  -0.00070   0.00039
   4        2PY         0.00026   0.00046   0.00233   0.00139  -0.00164
   5        2PZ         0.00008   0.00001   0.00004   0.00011  -0.00019
   6        3S         -0.00811  -0.01737   0.03716   0.08206  -0.06740
   7        3PX        -0.00299   0.00115  -0.00901   0.01731   0.00150
   8        3PY         0.01165   0.01081  -0.01670  -0.02529   0.01930
   9        3PZ        -0.00041   0.00023  -0.00039  -0.00104   0.00098
  10 2   C  1S         -0.00036  -0.02246   0.98512  -0.00583   0.01004
  11        2S         -0.00033  -0.00574   0.10698   0.00163  -0.00333
  12        2PX         0.00133  -0.00117   0.00236   0.00048  -0.00144
  13        2PY        -0.00218  -0.00026  -0.00105   0.00026  -0.00225
  14        2PZ         0.00001  -0.00001   0.00010   0.00007  -0.00002
  15        3S          0.02080   0.01927  -0.07499  -0.02797   0.03156
  16        3PX         0.01794   0.02182  -0.01230  -0.01384   0.01570
  17        3PY        -0.00505   0.00529  -0.01385  -0.00704   0.01217
  18        3PZ         0.00034   0.00032  -0.00051  -0.00041   0.00010
  19 3   O  1S          0.98285   0.00032   0.00033   0.00003   0.00011
  20        2S          0.10856   0.00213   0.00198   0.00011   0.00047
  21        2PX         0.00131   0.00055  -0.00008  -0.00003  -0.00005
  22        2PY         0.00426   0.00044   0.00063   0.00005  -0.00008
  23        2PZ         0.00001   0.00003  -0.00001   0.00003   0.00000
  24        3S         -0.06351  -0.00238  -0.00113  -0.00070  -0.00541
  25        3PX        -0.00404  -0.00218   0.00008  -0.00266  -0.00016
  26        3PY        -0.01418  -0.00354  -0.00454  -0.00011  -0.00288
  27        3PZ        -0.00004  -0.00015   0.00007  -0.00008   0.00000
  28 4   C  1S         -0.00033   0.98524   0.02124   0.00829   0.00565
  29        2S         -0.00002   0.10673  -0.00100  -0.00279  -0.00271
  30        2PX        -0.00278  -0.00309   0.00048   0.00012  -0.00032
  31        2PY        -0.00098   0.00089  -0.00087  -0.00164  -0.00220
  32        2PZ        -0.00003  -0.00015  -0.00002   0.00007  -0.00001
  33        3S          0.01604  -0.07473   0.01772   0.03943   0.01711
  34        3PX        -0.01290   0.00409  -0.01102  -0.00712  -0.00213
  35        3PY         0.00139  -0.02024   0.01582   0.02070   0.01220
  36        3PZ        -0.00018   0.00076  -0.00018  -0.00054   0.00016
  37 5   C  1S          0.00012  -0.01036  -0.00063   0.83295   0.52764
  38        2S          0.00051  -0.00561   0.00000   0.09457   0.05599
  39        2PX        -0.00085  -0.00032   0.00023  -0.00190  -0.00027
  40        2PY         0.00101   0.00294   0.00064  -0.00128  -0.00051
  41        2PZ        -0.00006  -0.00004  -0.00001   0.00019   0.00016
  42        3S         -0.00185   0.03779  -0.01677  -0.10194  -0.02724
  43        3PX         0.00581  -0.00314   0.00622   0.03191  -0.00459
  44        3PY         0.00284  -0.01946   0.00954   0.01857   0.00871
  45        3PZ         0.00040   0.00041  -0.00027  -0.00129  -0.00065
  46 6   H  1S         -0.00087  -0.00115  -0.00050  -0.00283  -0.00173
  47        2S         -0.00228   0.00164  -0.00179   0.00139   0.00604
  48 7   H  1S         -0.00015  -0.00253   0.00128  -0.00017  -0.00005
  49        2S          0.00193   0.00660   0.00624   0.00339   0.00292
  50 8   H  1S          0.00060   0.00165  -0.00343   0.00016  -0.00045
  51        2S          0.00518   0.00843   0.00997  -0.00250   0.00448
  52 9   H  1S         -0.00119  -0.00046  -0.00091   0.00107  -0.00286
  53        2S         -0.00406  -0.00130   0.00138  -0.00024   0.00517
                           6         7         8         9        10
                           O         O         O         O         O
     Eigenvalues --    -1.15233  -0.80749  -0.75538  -0.60988  -0.56196
   1 1   C  1S         -0.02651   0.14012  -0.07295   0.10441   0.05535
   2        2S          0.02524  -0.14914   0.07976  -0.10723  -0.05376
   3        2PX        -0.00123  -0.03832  -0.07515   0.10132  -0.15597
   4        2PY        -0.03360   0.07745  -0.05843   0.01034  -0.06673
   5        2PZ        -0.00087   0.00493  -0.00254   0.00545   0.00380
   6        3S          0.05676  -0.28373   0.12946  -0.34382  -0.19338
   7        3PX         0.01483  -0.01003   0.02087   0.02671  -0.06824
   8        3PY        -0.05813   0.04395   0.00622   0.03236  -0.00796
   9        3PZ         0.00101   0.00382  -0.00154   0.00427   0.00276
  10 2   C  1S         -0.07921   0.05115  -0.15252  -0.00536  -0.10237
  11        2S          0.08712  -0.06127   0.16568   0.00269   0.11194
  12        2PX         0.07551  -0.04659   0.02599  -0.01757  -0.17855
  13        2PY        -0.06026  -0.12263  -0.00881  -0.23117   0.06029
  14        2PZ         0.00079  -0.00097   0.00197  -0.00142   0.00093
  15        3S          0.04265  -0.07040   0.37455   0.05382   0.33793
  16        3PX        -0.05707  -0.02302   0.03421   0.00609  -0.09684
  17        3PY         0.00479  -0.02600   0.03494  -0.07129   0.03951
  18        3PZ        -0.00087  -0.00100   0.00192  -0.00033   0.00043
  19 3   O  1S         -0.21048  -0.08914   0.00738  -0.00481   0.04191
  20        2S          0.18999   0.08594  -0.00680   0.00495  -0.04280
  21        2PX         0.03158  -0.01598  -0.22018  -0.26447   0.02074
  22        2PY         0.11510  -0.02239   0.06969   0.07273  -0.03670
  23        2PZ         0.00018   0.00013  -0.00030  -0.00252  -0.00141
  24        3S          0.67661   0.32761  -0.02881   0.01865  -0.18600
  25        3PX         0.04073  -0.00861  -0.18250  -0.23048   0.01678
  26        3PY         0.14575  -0.00418   0.05574   0.06393  -0.03641
  27        3PZ         0.00033   0.00008  -0.00078  -0.00209  -0.00114
  28 4   C  1S         -0.07584   0.06442   0.14130   0.01029  -0.10272
  29        2S          0.08253  -0.07532  -0.15264  -0.00738   0.11334
  30        2PX        -0.09081  -0.02706   0.04129   0.12299   0.11917
  31        2PY        -0.00637  -0.13524   0.00044   0.19297  -0.03321
  32        2PZ        -0.00102   0.00170   0.00332  -0.00077  -0.00488
  33        3S          0.05847  -0.10196  -0.34733  -0.07896   0.32653
  34        3PX         0.02929   0.00432   0.01280   0.04747   0.07317
  35        3PY        -0.01032  -0.03990  -0.04069   0.04039  -0.02287
  36        3PZ        -0.00011   0.00128   0.00264   0.00024  -0.00348
  37 5   C  1S         -0.02421   0.14610   0.06429  -0.10847   0.03408
  38        2S          0.02418  -0.15667  -0.07062   0.11051  -0.03290
  39        2PX        -0.01765   0.07440  -0.02626   0.09319   0.10487
  40        2PY        -0.02629   0.05649   0.08225  -0.05876  -0.13991
  41        2PZ         0.00086  -0.00594  -0.00270   0.00695  -0.00302
  42        3S          0.02844  -0.29350  -0.11755   0.36775  -0.10862
  43        3PX        -0.02958   0.03347   0.01257   0.01057   0.04912
  44        3PY        -0.01663   0.02854  -0.01363  -0.04860  -0.04788
  45        3PZ        -0.00089  -0.00437  -0.00160   0.00550  -0.00159
  46 6   H  1S          0.00616  -0.05181  -0.03136   0.10145  -0.02062
  47        2S          0.01122  -0.01338  -0.00738   0.05797  -0.01575
  48 7   H  1S          0.01098  -0.01256  -0.06766  -0.03029   0.12823
  49        2S         -0.01223  -0.00460  -0.02870  -0.02428   0.07131
  50 8   H  1S          0.01210  -0.01659   0.08788   0.01873   0.17917
  51        2S         -0.02978  -0.00676   0.03093   0.01498   0.09178
  52 9   H  1S          0.00722  -0.04873   0.02929  -0.08161  -0.05628
  53        2S          0.02040  -0.01421   0.00524  -0.04566  -0.03912
                          11        12        13        14        15
                           O         O         O         O         O
     Eigenvalues --    -0.54086  -0.46239  -0.43806  -0.42232  -0.38755
   1 1   C  1S         -0.05303   0.00222  -0.04770   0.00143   0.01868
   2        2S          0.04957  -0.00326   0.05000   0.00309  -0.02181
   3        2PX         0.01968  -0.00481  -0.02149  -0.14336  -0.20429
   4        2PY         0.20518  -0.01853   0.09414  -0.18176   0.24392
   5        2PZ        -0.00445   0.10683   0.00391   0.00000  -0.00315
   6        3S          0.22516   0.00286   0.16944  -0.03321  -0.10032
   7        3PX        -0.01008   0.00585  -0.01625  -0.04126  -0.11934
   8        3PY         0.11895  -0.02452   0.07689  -0.09788   0.18523
   9        3PZ        -0.00608   0.07538   0.00237  -0.00034  -0.00160
  10 2   C  1S          0.01488  -0.00269   0.02434  -0.02957   0.00112
  11        2S         -0.01987   0.00353  -0.02419   0.03891  -0.00009
  12        2PX        -0.17214  -0.00512   0.17965   0.23999   0.00705
  13        2PY        -0.03065   0.01423  -0.09472   0.13575  -0.06038
  14        2PZ        -0.00327   0.19460   0.01816  -0.00620  -0.00063
  15        3S         -0.01505   0.00200  -0.08284   0.10339   0.00698
  16        3PX        -0.12735  -0.01200   0.11773   0.16763   0.02534
  17        3PY        -0.06073   0.00720  -0.05542   0.10198   0.04936
  18        3PZ        -0.00079   0.17471   0.01783  -0.00811   0.00052
  19 3   O  1S         -0.05697  -0.00034   0.00424   0.00254   0.02463
  20        2S          0.05630   0.00009  -0.00290  -0.00402  -0.02946
  21        2PX        -0.03745   0.01717  -0.23703   0.00450   0.08920
  22        2PY        -0.19778  -0.00342   0.04506   0.06089   0.27730
  23        2PZ        -0.00088   0.38493   0.03503  -0.02617   0.00430
  24        3S          0.21880   0.00283  -0.02782   0.00165  -0.05345
  25        3PX        -0.03641   0.01560  -0.22892   0.01190   0.09408
  26        3PY        -0.17986  -0.00264   0.03885   0.05993   0.29333
  27        3PZ        -0.00091   0.38491   0.03583  -0.02674   0.00456
  28 4   C  1S          0.01946   0.00346  -0.04892   0.02851  -0.02532
  29        2S         -0.02293  -0.00396   0.04943  -0.03662   0.03302
  30        2PX         0.08173  -0.01477   0.24493   0.07728  -0.09527
  31        2PY        -0.12668  -0.00465  -0.04440  -0.17855   0.10401
  32        2PZ         0.00164   0.18876   0.01183  -0.00836   0.00101
  33        3S         -0.05187  -0.00641   0.18312  -0.09015   0.11307
  34        3PX         0.04567  -0.01498   0.15836   0.06779  -0.03434
  35        3PY        -0.13969   0.00517  -0.05405  -0.10478   0.17065
  36        3PZ        -0.00023   0.17124   0.01286  -0.01005   0.00125
  37 5   C  1S         -0.05206  -0.00256   0.05146   0.00083   0.02711
  38        2S          0.04729   0.00342  -0.05346  -0.00606  -0.02476
  39        2PX         0.09591   0.01696  -0.05284   0.23444   0.22287
  40        2PY         0.17066   0.01702  -0.09348   0.17946  -0.08617
  41        2PZ         0.00385   0.10342   0.00109   0.00069  -0.00045
  42        3S          0.23730   0.00006  -0.17588   0.00953  -0.17104
  43        3PX         0.07148   0.02698  -0.04263   0.17878   0.13978
  44        3PY         0.06556   0.01614  -0.06446   0.09593   0.00084
  45        3PZ         0.00608   0.07121   0.00077   0.00098  -0.00236
  46 6   H  1S          0.12846   0.02059  -0.12004   0.19767   0.07193
  47        2S          0.07611   0.00871  -0.09404   0.17724   0.07100
  48 7   H  1S          0.05242  -0.01014   0.17859   0.08246  -0.07825
  49        2S          0.02080  -0.00415   0.15093   0.07785  -0.07766
  50 8   H  1S          0.07330   0.00527  -0.14696  -0.13703  -0.00553
  51        2S          0.03007   0.00021  -0.11498  -0.11957   0.00247
  52 9   H  1S          0.13661  -0.01538   0.11351  -0.08972   0.18926
  53        2S          0.07908  -0.00583   0.08666  -0.07971   0.19440
                          16        17        18        19        20
                           O         O         O         V         V
     Eigenvalues --    -0.36420  -0.27749  -0.23709   0.03047   0.07686
   1 1   C  1S          0.01666   0.00593  -0.00290   0.00547  -0.01129
   2        2S         -0.01779  -0.00725   0.00306  -0.00555   0.00434
   3        2PX         0.22044  -0.00379  -0.00020  -0.00666  -0.01404
   4        2PY         0.05923  -0.00740   0.00440  -0.00678   0.03065
   5        2PZ        -0.00101  -0.27738   0.21421  -0.16589   0.33464
   6        3S         -0.10403  -0.01615   0.00992  -0.02534   0.11827
   7        3PX         0.18334   0.00525   0.00195  -0.00826  -0.01097
   8        3PY         0.02315  -0.00748   0.00789  -0.03407   0.08348
   9        3PZ         0.00239  -0.29069   0.22183  -0.29475   0.65610
  10 2   C  1S         -0.02377  -0.00184   0.00175  -0.00038  -0.00252
  11        2S          0.02788   0.00218  -0.00241   0.00184  -0.00178
  12        2PX        -0.05744   0.00341  -0.00499  -0.00032  -0.00991
  13        2PY        -0.19412   0.00540  -0.00558  -0.00045  -0.00234
  14        2PZ        -0.00389  -0.05939   0.32778   0.31116  -0.23200
  15        3S          0.08453   0.00639  -0.00224  -0.01582   0.06270
  16        3PX        -0.02681   0.00076  -0.00224  -0.01025  -0.01002
  17        3PY        -0.03247   0.00474  -0.00052  -0.01173   0.01656
  18        3PZ        -0.00246  -0.02228   0.34370   0.48335  -0.44655
  19 3   O  1S          0.06850  -0.00020  -0.00004   0.00077  -0.00196
  20        2S         -0.06639   0.00021   0.00053  -0.00098   0.00146
  21        2PX         0.08130   0.00025   0.00310  -0.00055   0.00253
  22        2PY         0.30277  -0.00068   0.00460  -0.00001   0.01377
  23        2PZ         0.00168   0.30284  -0.02255  -0.29209   0.00749
  24        3S         -0.27210   0.00095  -0.00088  -0.00355   0.01591
  25        3PX         0.09094  -0.00061   0.00252   0.00084   0.00269
  26        3PY         0.32658  -0.00051   0.00422   0.00053   0.02125
  27        3PZ         0.00191   0.34562  -0.02770  -0.41292   0.01411
  28 4   C  1S         -0.01500   0.00273   0.00323  -0.00470  -0.00712
  29        2S          0.01473  -0.00315  -0.00405   0.00195   0.00161
  30        2PX        -0.04126  -0.00101  -0.00433   0.00519   0.02138
  31        2PY        -0.23877  -0.00523  -0.00355  -0.00547  -0.01986
  32        2PZ         0.00396  -0.09612  -0.32012   0.32841   0.21023
  33        3S          0.06577  -0.00841  -0.00591   0.05657   0.09666
  34        3PX         0.03158  -0.00237  -0.00506   0.01504   0.04184
  35        3PY        -0.07702  -0.00331   0.00386   0.00022  -0.02643
  36        3PZ         0.00274  -0.05821  -0.33905   0.50454   0.40852
  37 5   C  1S          0.00812  -0.00707  -0.00396  -0.00543  -0.01234
  38        2S         -0.00917   0.00856   0.00447   0.00444   0.00462
  39        2PX        -0.11078   0.00276   0.00228   0.00015   0.03011
  40        2PY         0.22724   0.00625   0.00170   0.01354   0.02442
  41        2PZ         0.00181  -0.29742  -0.18459  -0.18008  -0.32718
  42        3S         -0.07444   0.02027   0.01156   0.03165   0.13388
  43        3PX        -0.10840   0.01049   0.00421   0.01258   0.07693
  44        3PY         0.15945   0.00334   0.00921   0.03685   0.05491
  45        3PZ        -0.00188  -0.31117  -0.19021  -0.31974  -0.63912
  46 6   H  1S          0.01278   0.00077  -0.00243  -0.00987  -0.03119
  47        2S          0.03634   0.00180  -0.00419  -0.03855  -0.16850
  48 7   H  1S          0.13240   0.00003   0.00153  -0.00812  -0.01664
  49        2S          0.13976   0.00021   0.00229  -0.03222  -0.11090
  50 8   H  1S          0.09934  -0.00051   0.00136   0.00001  -0.00844
  51        2S          0.10062  -0.00178   0.00228  -0.00465  -0.05404
  52 9   H  1S         -0.02005  -0.00134  -0.00238   0.00614  -0.02843
  53        2S         -0.00379  -0.00269  -0.00276   0.03050  -0.14781
                          21        22        23        24        25
                           V         V         V         V         V
     Eigenvalues --     0.11989   0.14414   0.16902   0.17314   0.21990
   1 1   C  1S          0.04655  -0.01777  -0.04553  -0.11012   0.06079
   2        2S         -0.02809   0.01151   0.04723   0.08483  -0.01628
   3        2PX         0.03078  -0.09421   0.10067  -0.01177  -0.20661
   4        2PY        -0.14063   0.12053  -0.07378   0.17921  -0.02904
   5        2PZ         0.05920  -0.01613  -0.00229  -0.01843   0.00508
   6        3S         -0.51648   0.19307   0.17209   1.04473  -0.99228
   7        3PX         0.00923  -0.27537   0.17044  -0.20354  -1.06665
   8        3PY        -0.43616   0.40814   0.07684   0.79142  -0.00162
   9        3PZ         0.14355  -0.04750  -0.00424  -0.04332   0.03600
  10 2   C  1S          0.02892   0.06351   0.09630   0.03577   0.08642
  11        2S         -0.01824  -0.04845  -0.06822  -0.05011  -0.06315
  12        2PX         0.08132  -0.07151   0.24492  -0.09096  -0.00252
  13        2PY        -0.00992   0.11625   0.06317  -0.05164   0.11752
  14        2PZ        -0.03060   0.00674  -0.00021   0.00708  -0.00410
  15        3S         -0.46093  -0.48663  -1.12428  -0.06637  -1.08269
  16        3PX         0.18748  -0.03196   1.02395   0.01547   0.07089
  17        3PY        -0.10967   0.37948   0.17659  -0.14270   0.25294
  18        3PZ        -0.07631   0.02350   0.00533   0.02879  -0.01974
  19 3   O  1S          0.01760  -0.07725  -0.05012   0.00299   0.00527
  20        2S         -0.00967   0.05621   0.03667  -0.00198  -0.00360
  21        2PX        -0.02087   0.01438   0.04122  -0.05474  -0.29248
  22        2PY        -0.07917   0.13373   0.04947   0.02388   0.06910
  23        2PZ        -0.00482  -0.00482   0.00110  -0.00621   0.00484
  24        3S         -0.16929   0.63877   0.41298  -0.02313  -0.04847
  25        3PX        -0.03469   0.00173   0.11266  -0.04457  -0.59104
  26        3PY        -0.15534   0.21353   0.07169   0.02935   0.14166
  27        3PZ        -0.00747  -0.00888   0.00274  -0.01304   0.00722
  28 4   C  1S          0.05849   0.10355   0.01498  -0.03128  -0.09894
  29        2S         -0.04021  -0.07089  -0.01085   0.04162   0.06888
  30        2PX        -0.17802  -0.05964   0.21856  -0.05958  -0.10184
  31        2PY         0.12367   0.18249  -0.04411   0.03068  -0.07296
  32        2PZ         0.04275   0.00854  -0.00249   0.00852  -0.00776
  33        3S         -0.67638  -0.98825  -0.09802   0.00152   1.13538
  34        3PX        -0.42922  -0.30863   0.64636   0.08431  -0.17704
  35        3PY         0.28692   0.57806  -0.15058  -0.03086  -0.17391
  36        3PZ         0.10280   0.01138  -0.00398   0.03554  -0.02692
  37 5   C  1S          0.04181  -0.07124   0.03555   0.09704  -0.04049
  38        2S         -0.01848   0.05888  -0.03305  -0.07751   0.00104
  39        2PX        -0.11514   0.02415   0.07321  -0.11775  -0.16522
  40        2PY        -0.13577   0.02369  -0.00126  -0.11401   0.14451
  41        2PZ        -0.06529   0.01409  -0.00316  -0.02384   0.00323
  42        3S         -0.56591   0.61192  -0.22033  -0.91914   0.71571
  43        3PX        -0.32201   0.17907   0.12885  -0.65425  -0.96090
  44        3PY        -0.27145   0.15272  -0.14772  -0.57623   0.61561
  45        3PZ        -0.16042   0.03964  -0.00232  -0.05726   0.02513
  46 6   H  1S          0.08896  -0.04934  -0.01529   0.07800   0.03063
  47        2S          0.90348  -0.61304  -0.00073   1.39480   0.21699
  48 7   H  1S          0.08223   0.10414  -0.03111  -0.01319   0.03420
  49        2S          0.97053   1.24124  -0.54162  -0.07181  -0.46566
  50 8   H  1S          0.03815   0.02475   0.10030   0.00257  -0.04146
  51        2S          0.48533   0.26449   1.81997  -0.00447   0.56956
  52 9   H  1S          0.08530  -0.06474  -0.00726  -0.06654  -0.05290
  53        2S          0.85652  -0.69497  -0.05596  -1.39405   0.06850
                          26        27        28        29        30
                           V         V         V         V         V
     Eigenvalues --     0.24100   0.36727   0.42397   0.46515   0.69276
   1 1   C  1S         -0.05933  -0.05492   0.01605  -0.12776  -0.06547
   2        2S          0.01176   0.02017   0.02092   0.02594   0.04992
   3        2PX        -0.13150   0.07001   0.25482   0.04224   0.12059
   4        2PY         0.05672  -0.14094   0.09205  -0.21923  -0.08762
   5        2PZ        -0.01396   0.00879  -0.00586   0.01197   0.19137
   6        3S          1.20680   0.94943  -0.88339   3.24139   0.50986
   7        3PX        -0.53401  -0.63579   1.58700   0.73879  -0.20564
   8        3PY        -0.03189  -1.16760   1.06092  -2.31932  -0.67086
   9        3PZ        -0.06063   0.00650  -0.00697  -0.05572  -0.10301
  10 2   C  1S          0.02015   0.07207  -0.02660   0.11310   0.03312
  11        2S         -0.01046   0.00459   0.00811  -0.02866  -0.02189
  12        2PX         0.17418  -0.19504  -0.01148  -0.23725  -0.04759
  13        2PY        -0.21495  -0.14478   0.18055   0.21058  -0.24698
  14        2PZ         0.00308  -0.00045   0.00317  -0.00405   0.27845
  15        3S         -0.70933  -1.48033   1.18226  -2.25443  -0.72459
  16        3PX         0.45464  -1.12339   0.34505  -1.85973  -0.49584
  17        3PY        -0.99095  -0.47264   1.80415  -0.88427  -0.06952
  18        3PZ         0.01104  -0.02944   0.03836  -0.03894  -0.26439
  19 3   O  1S          0.10696  -0.05106   0.00801  -0.01583  -0.01379
  20        2S         -0.05154   0.02203  -0.00179   0.00552   0.04164
  21        2PX        -0.02195   0.02121  -0.27174  -0.19258   0.13237
  22        2PY        -0.07822   0.16196   0.05022   0.07236   0.06618
  23        2PZ        -0.00094  -0.00046  -0.00895  -0.00293   0.02487
  24        3S         -1.13769   0.66928  -0.11871   0.22479  -0.08017
  25        3PX        -0.07428   0.05132  -0.72049  -0.33531  -0.07231
  26        3PY        -0.25945   0.50157   0.13564   0.18463   0.07732
  27        3PZ        -0.00163  -0.00112  -0.01587   0.00380   0.06634
  28 4   C  1S          0.00073   0.08706   0.00067  -0.08902   0.00449
  29        2S          0.00687  -0.00316  -0.00131   0.03762   0.06172
  30        2PX        -0.22187   0.05467  -0.12173  -0.26915   0.44773
  31        2PY        -0.10127  -0.27323  -0.09957  -0.05285   0.38884
  32        2PZ        -0.00134  -0.00068   0.00410   0.00224   0.27820
  33        3S         -0.35358  -1.89444  -0.63309   1.98448   0.66177
[...]
     1  C    5.253157   0.487357  -0.071500  -0.149291   0.434764  -0.017542
     2  C    0.487357   5.051387   0.267761  -0.162993  -0.134337   0.003492
     3  O   -0.071500   0.267761   8.132381   0.307912  -0.086393   0.001634
     4  C   -0.149291  -0.162993   0.307912   5.107636   0.445134  -0.030283
     5  C    0.434764  -0.134337  -0.086393   0.445134   5.268861   0.380249
     6  H   -0.017542   0.003492   0.001634  -0.030283   0.380249   0.471821
     7  H    0.003194   0.004595  -0.030450   0.376051  -0.034228  -0.000429
     8  H   -0.046316   0.388719  -0.027832   0.004305   0.003194  -0.000021
     9  H    0.374001  -0.022099   0.001974   0.005545  -0.030890  -0.000898
               7          8          9
     1  C    0.003194  -0.046316   0.374001
     2  C    0.004595   0.388719  -0.022099
     3  O   -0.030450  -0.027832   0.001974
     4  C    0.376051   0.004305   0.005545
     5  C   -0.034228   0.003194  -0.030890
     6  H   -0.000429  -0.000021  -0.000898
     7  H    0.481107  -0.000053  -0.000034
     8  H   -0.000053   0.458247  -0.000640
     9  H   -0.000034  -0.000640   0.488098
 Mulliken charges:
               1
     1  C   -0.267824
     2  C    0.116117
     3  O   -0.495486
     4  C    0.095983
     5  C   -0.246355
     6  H    0.191978
     7  H    0.200247
     8  H    0.220397
     9  H    0.184942
 Sum of Mulliken charges =   0.00000
 Mulliken charges with hydrogens summed into heavy atoms:
               1
     1  C   -0.082882
     2  C    0.336514
     3  O   -0.495486
     4  C    0.296230
     5  C   -0.054376
 Electronic spatial extent (au):  <R**2>=            289.6700
 Charge=              0.0000 electrons
 Dipole moment (field-independent basis, Debye):
    X=              0.2278    Y=              0.6482    Z=             -0.0187  Tot=              0.6873
 Quadrupole moment (field-independent basis, Debye-Ang):
   XX=            -24.2819   YY=            -27.7267   ZZ=            -31.8555
   XY=             -0.9910   XZ=              0.1365   YZ=             -0.0012
 Traceless Quadrupole moment (field-independent basis, Debye-Ang):
   XX=              3.6728   YY=              0.2280   ZZ=             -3.9008
   XY=             -0.9910   XZ=              0.1365   YZ=             -0.0012
 Octapole moment (field-independent basis, Debye-Ang**2):
  XXX=             -3.1888  YYY=              0.4842  ZZZ=             -0.0153  XYY=              2.9810
  XXY=             -2.1098  XXZ=              0.1245  XZZ=             -1.2905  YZZ=             -3.3951
  YYZ=             -0.2637  XYZ=              0.3476
 Hexadecapole moment (field-independent basis, Debye-Ang**3):
 XXXX=           -153.7140 YYYY=           -152.7549 ZZZZ=            -30.9643 XXXY=              5.2767
 XXXZ=              0.5596 YYYX=             -5.6748 YYYZ=             -0.4411 ZZZX=              0.1495
 ZZZY=             -0.0163 XXYY=            -49.4529 XXZZ=            -39.0414 YYZZ=            -35.0633
 XXYZ=              0.4363 YYXZ=              0.3535 ZZXY=              1.2392
 N-N= 1.616266241639D+02 E-N=-8.557035672024D+02  KE= 2.268864950759D+02
 Orbital energies and kinetic energies (alpha):
                                 1                 2
   1         O               -19.119295         28.828231
   2         O               -10.180667         15.801415
   3         O               -10.172404         15.797471
   4         O               -10.129750         15.805554
   5         O               -10.128543         15.808450
   6         O                -1.152329          2.538344
   7         O                -0.807486          1.791795
   8         O                -0.755383          1.864087
   9         O                -0.609881          1.741998
  10         O                -0.561955          1.362805
  11         O                -0.540865          1.334800
  12         O                -0.462391          1.615407
  13         O                -0.438055          1.449855
  14         O                -0.422319          1.322064
  15         O                -0.387553          1.645674
  16         O                -0.364199          1.979949
  17         O                -0.277494          1.522990
  18         O                -0.237092          1.232357
  19         V                 0.030473          1.844511
  20         V                 0.076861          1.484137
  21         V                 0.119894          1.124406
  22         V                 0.144136          1.619625
  23         V                 0.169022          1.355367
  24         V                 0.173140          1.316837
  25         V                 0.219898          2.081192
  26         V                 0.240999          1.793915
  27         V                 0.367270          1.950156
  28         V                 0.423968          1.863073
  29         V                 0.465152          2.695110
  30         V                 0.692760          2.635011
  31         V                 0.695935          2.569961
  32         V                 0.700388          2.626610
  33         V                 0.755989          2.639329
  34         V                 0.766058          2.495079
  35         V                 0.788026          2.605589
  36         V                 0.806860          2.769301
  37         V                 0.826092          2.618723
  38         V                 0.842612          2.528080
  39         V                 0.936937          2.880407
  40         V                 0.966077          3.311790
  41         V                 0.972048          2.917507
  42         V                 1.015191          3.198451
  43         V                 1.189548          2.751679
  44         V                 1.199303          2.853334
  45         V                 1.306407          2.502165
  46         V                 1.369338          2.882435
  47         V                 1.502331          4.957535
  48         V                 1.558469          3.339872
  49         V                 1.636183          3.816324
  50         V                 1.734468          4.315934
  51         V                 1.934759          3.923221
  52         V                 2.114871          4.331384
  53         V                 3.228611          6.855878
 Total kinetic energy from orbitals= 2.268864950759D+02
 No NMR shielding tensors so no spin-rotation constants.
 Leave Link  601 at Tue Dec 15 16:28:05 2015, MaxMem=    33554432 cpu:         0.1
 (Enter /home/Applications/g09/g09/l701.exe)
 Compute integral first derivatives.
 ... and contract with generalized density number  6.
 Leave Link  701 at Tue Dec 15 16:28:05 2015, MaxMem=    33554432 cpu:         0.1
 (Enter /home/Applications/g09/g09/l702.exe)
 L702 exits ... SP integral derivatives will be done elsewhere.
 Leave Link  702 at Tue Dec 15 16:28:05 2015, MaxMem=    33554432 cpu:         0.0
 (Enter /home/Applications/g09/g09/l703.exe)
 Compute integral first derivatives, UseDBF=F ICtDFT=           0.
 Integral derivatives from FoFJK, PRISM(SPDF).
 Calling FoFJK, ICntrl=  10005127 FMM=F ISym2X=0 I1Cent= 0 IOpClX= 0 NMat=1 NMatS=1 NMatT=0.
 FoFJK:  IHMeth= 1 ICntrl=10005127 DoSepK=F KAlg= 0 I1Cent=   0 FoldK=F
 IRaf=         0 NMat=   1 IRICut=       1 DoRegI=T DoRafI=F ISym2E= 0.
 FoFCou: FMM=F IPFlag=           0 FMFlag=      100000 FMFlg1=         800
         NFxFlg=           0 DoJE=F BraDBF=F KetDBF=F FulRan=T
         wScrn=  0.000000 ICntrl=10005127 IOpCl=  0 I1Cent=           0 NGrid=           0
         NMat0=    1 NMatS0=      1 NMatT0=    0 NMatD0=    1 NMtDS0=    0 NMtDT0=    0
 Symmetry not used in FoFCou.
 Leave Link  703 at Tue Dec 15 16:28:07 2015, MaxMem=    33554432 cpu:         1.8
 (Enter /home/Applications/g09/g09/l716.exe)
 Dipole        =-4.33431523D-01 4.85874527D-01 1.53126200D-03
 ***** Axes restored to original set *****
 -------------------------------------------------------------------
 Center     Atomic                   Forces (Hartrees/Bohr)
 Number     Number              X              Y              Z
 -------------------------------------------------------------------
      1        6           0.137114625    0.006336417    0.003908895
      2        6          -0.055269230   -0.084275698   -0.002547195
      3        8          -0.079298632   -0.035477715   -0.000936161
      4        6          -0.079140376    0.166681319   -0.003757336
      5        6           0.102668552    0.008032808    0.007409819
      6        1          -0.013028011   -0.020921308   -0.003667603
      7        1           0.029210173   -0.039843113    0.001121408
      8        1          -0.011084494   -0.007129213    0.000257598
      9        1          -0.031172608    0.006596504   -0.001789425
 -------------------------------------------------------------------
 Cartesian Forces:  Max     0.166681319 RMS     0.056287138
 Z-matrix is all fixed cartesians, so copy forces.
 Force constants in Cartesian coordinates: 
                1             2             3             4             5 
      1  0.930603D+00
      2  0.154847D-02  0.699579D+00
      3  0.112881D-01  0.249156D-02  0.199974D+00
      4 -0.552382D+00 -0.988073D-01  0.381768D-02  0.993384D+00
      5 -0.748360D-01 -0.212639D+00  0.142474D-02 -0.155289D-01  0.976987D+00
      6  0.746492D-02  0.108717D-02 -0.108563D+00 -0.400888D-03 -0.118107D-02
      7 -0.757608D-02  0.313525D-01 -0.214958D-03 -0.308456D+00  0.194513D+00
      8 -0.528347D-02  0.219014D-01 -0.235978D-03  0.241588D+00 -0.437853D+00
      9  0.666569D-03 -0.146494D-02  0.771190D-02 -0.281705D-02  0.311529D-02
     10  0.904968D-02 -0.513344D-03  0.488865D-03  0.249526D-01  0.174305D-01
     11  0.341224D-01 -0.195100D-02  0.208299D-02 -0.203409D-01 -0.142150D-01
     12  0.196441D-02 -0.270248D-03 -0.132007D-02  0.298041D-03  0.309026D-03
     13 -0.155556D+00 -0.223734D-03 -0.611106D-03  0.829085D-02 -0.344179D-01
     14 -0.254664D-01 -0.353672D+00 -0.144598D-01 -0.449767D-03  0.186580D-02
     15 -0.662176D-03 -0.134721D-01 -0.703454D-01 -0.127339D-03  0.790106D-03
     16  0.171469D-01 -0.914932D-03 -0.809509D-03  0.489161D-05 -0.111616D-04
     17 -0.210457D-01  0.108173D-02  0.216383D-02 -0.194888D-05  0.444693D-05
     18 -0.268386D-02 -0.349346D-03  0.141027D-01  0.476619D-04 -0.108754D-03
     19  0.133086D-04  0.104898D-04 -0.318422D-03  0.000000D+00  0.000000D+00
     20  0.155603D-04  0.122645D-04 -0.372296D-03  0.000000D+00  0.000000D+00
     21 -0.277372D-03 -0.218624D-03  0.663642D-02 -0.433351D-04  0.231527D-05
     22  0.673766D-02 -0.279221D-01 -0.219630D-03 -0.161918D+00 -0.103135D+00
     23 -0.304190D-02  0.125996D-01 -0.124800D-03 -0.100676D+00 -0.338103D+00
     24 -0.355698D-03  0.233889D-02  0.293666D-01 -0.121584D-02 -0.335555D-02
     25 -0.248037D+00  0.954700D-01 -0.134210D-01 -0.387513D-02  0.159858D-01
     26  0.939871D-01 -0.166911D+00  0.702976D-02 -0.578335D-02  0.239534D-01
     27 -0.174049D-01  0.985759D-02 -0.775638D-01  0.441065D-03 -0.996115D-03
                6             7             8             9            10 
      6  0.204516D+00
      7 -0.199204D-02  0.604951D+00
      8  0.240042D-02 -0.823514D-02  0.790504D+00
      9 -0.526139D-01  0.434738D-02 -0.433760D-03  0.653226D-01
     10 -0.155275D-04 -0.324330D+00 -0.235193D+00 -0.473141D-03  0.979379D+00
     11  0.127115D-03 -0.188666D+00 -0.381927D+00  0.223998D-03  0.279830D-01
     12 -0.864944D-04 -0.228930D-02 -0.193778D-02 -0.526605D-01  0.146653D-01
     13 -0.199952D-02 -0.776814D-02  0.633841D-02 -0.113425D-02 -0.542119D+00
     14 -0.828268D-04 -0.290617D-01  0.237077D-01 -0.211487D-02  0.109582D+00
     15 -0.799992D-03  0.112033D-03 -0.245740D-03  0.903532D-02 -0.162457D-01
     16  0.309070D-03  0.165435D-05  0.000000D+00 -0.579422D-04 -0.499430D-02
     17 -0.123138D-03 -0.192703D-04  0.112273D-04  0.674923D-03  0.594367D-02
     18  0.301146D-02 -0.206149D-03  0.120106D-03  0.722016D-02 -0.144249D-02
     19  0.818899D-04  0.194128D-01 -0.158197D-01 -0.773727D-03 -0.141948D+00
     20 -0.997646D-04  0.108547D-01 -0.884489D-02 -0.536442D-03  0.747642D-01
     21  0.497159D-02 -0.693314D-04  0.329535D-04  0.354883D-02  0.318122D-02
     22 -0.108171D-02  0.237655D-01  0.166077D-01  0.363393D-03  0.000000D+00
     23 -0.184637D-02 -0.107412D-01 -0.750638D-02 -0.198904D-03  0.000000D+00
     24 -0.786538D-01  0.275048D-03  0.221994D-03  0.454746D-02 -0.548751D-04
     25 -0.236620D-02  0.000000D+00 -0.119555D-05 -0.121236D-03  0.100667D-04
     26 -0.281542D-03  0.347544D-05  0.724509D-05  0.734696D-03  0.310033D-05
     27  0.282178D-01  0.373147D-04  0.777882D-04  0.788820D-02 -0.103687D-03
               11            12            13            14            15 
     11  0.820474D+00
     12  0.235138D-02  0.198973D+00
     13  0.844714D-01 -0.188095D-01  0.912415D+00
     14 -0.214172D+00  0.444038D-02  0.276289D-01  0.729069D+00
     15  0.476957D-02 -0.105764D+00  0.429641D-02 -0.518375D-03  0.192835D+00
     16 -0.184599D-01  0.191463D-02 -0.236385D+00 -0.105514D+00  0.115814D-01
     17  0.222151D-01 -0.285392D-03 -0.109802D+00 -0.198888D+00  0.717041D-02
     18 -0.239141D-02  0.243572D-01  0.160098D-01  0.107951D-01 -0.743304D-01
     19  0.808820D-01  0.257487D-02  0.642036D-02  0.241063D-01  0.578119D-03
     20 -0.230426D+00 -0.452023D-02  0.359592D-02  0.133951D-01 -0.537113D-03
     21 -0.708485D-02 -0.722753D-01 -0.226789D-03  0.278086D-02  0.293868D-01
     22  0.000000D+00 -0.776157D-04  0.108969D-05 -0.248644D-05  0.688506D-04
     23  0.000000D+00 -0.129574D-04 -0.131981D-05  0.301151D-05 -0.833902D-04
     24  0.293182D-05  0.629551D-02  0.108450D-03 -0.247460D-03  0.685229D-02
     25  0.793454D-05 -0.240857D-03  0.147011D-01 -0.822929D-03  0.398352D-03
     26  0.244367D-05 -0.741787D-04  0.224101D-01 -0.130800D-02  0.212660D-02
     27 -0.817261D-04  0.248083D-02  0.236645D-02 -0.592962D-03  0.131305D-01
               16            17            18            19            20 
     16  0.224191D+00
     17  0.124893D+00  0.175525D+00
     18 -0.126159D-01 -0.877610D-02  0.401526D-01
     19 -0.406348D-05  0.473323D-04  0.506349D-03  0.116106D+00
     20 -0.475098D-05  0.553405D-04  0.592018D-03 -0.892265D-01  0.225808D+00
     21  0.846893D-04 -0.986480D-03 -0.105531D-01 -0.264908D-02  0.547383D-02
     22  0.000000D+00  0.000000D+00  0.000000D+00  0.000000D+00  0.000000D+00
     23  0.000000D+00  0.000000D+00  0.000000D+00  0.000000D+00  0.000000D+00
     24  0.000000D+00  0.000000D+00  0.000000D+00  0.000000D+00  0.000000D+00
     25  0.394643D-04 -0.157231D-04  0.384524D-03  0.000000D+00  0.000000D+00
     26  0.121542D-04 -0.484238D-05  0.118425D-03  0.000000D+00  0.000000D+00
     27 -0.406484D-03  0.161948D-03 -0.396062D-02  0.000000D+00  0.000000D+00
               21            22            23            24            25 
     21  0.382847D-01
     22  0.000000D+00  0.131412D+00
     23  0.000000D+00  0.114463D+00  0.332994D+00
     24  0.000000D+00  0.106381D-02  0.212460D-02  0.432456D-01
     25  0.000000D+00  0.179965D-05 -0.217970D-05  0.179109D-03  0.237160D+00
     26  0.000000D+00 -0.109060D-04  0.132091D-04 -0.108541D-02 -0.110622D+00
     27  0.000000D+00 -0.117095D-03  0.141822D-03 -0.116537D-01  0.151873D-01
               26            27 
     26  0.144248D+00
     27 -0.856834D-02  0.414607D-01
 Leave Link  716 at Tue Dec 15 16:28:07 2015, MaxMem=    33554432 cpu:         0.0
 (Enter /home/Applications/g09/g09/l103.exe)

 GradGradGradGradGradGradGradGradGradGradGradGradGradGradGradGradGradGrad
 Berny optimization.
 Search for a local minimum.
 Step number   1 out of a maximum of    2
 All quantities printed in internal units (Hartrees-Bohrs-Radians)
 Second derivative matrix not updated -- first step.
 ITU=  0
     Eigenvalues ---    0.01743   0.03097   0.06543   0.06854   0.07622
     Eigenvalues ---    0.08521   0.12554   0.12595   0.15447   0.22279
     Eigenvalues ---    0.25449   0.31605   0.38262   0.38344   0.59657
     Eigenvalues ---    0.78097   1.04853   1.28183   1.48561   1.61351
     Eigenvalues ---    1.72025
 Quadratic step=4.228D-01 exceeds max=3.000D-01 adjusted using Lamda=-8.913D-02.
 Angle between NR and scaled steps=  23.68 degrees.
 Angle between quadratic step and forces=  30.48 degrees.
 Linear search not attempted -- first point.
 TrRot= -0.002205  0.007234  0.000653 -2.925719  0.001513  2.930180
 Variable       Old X    -DE/DX   Delta X   Delta X   Delta X     New X
                                 (Linear)    (Quad)   (Total)
    X1        1.73232   0.13711   0.00000   0.11732   0.12165   1.85397
    Y1       -1.44536   0.00634   0.00000  -0.00376   0.01176  -1.43361
    Z1       -0.06934   0.00391   0.00000   0.01208   0.01501  -0.05433
    X2       -0.72812  -0.05527   0.00000  -0.02530  -0.01787  -0.74599
    Y2       -2.03921  -0.08428   0.00000  -0.09739  -0.09347  -2.13268
    Z2       -0.05184  -0.00255   0.00000  -0.01029  -0.01143  -0.06327
    X3       -2.16529  -0.07930   0.00000  -0.08590  -0.08791  -2.25320
    Y3        0.01767  -0.03548   0.00000  -0.03405  -0.03684  -0.01917
    Z3       -0.06533  -0.00094   0.00000  -0.00210  -0.00479  -0.07011
    X4       -0.56238  -0.07914   0.00000  -0.07084  -0.08250  -0.64488
    Y4        1.98401   0.16668   0.00000   0.15249   0.15689   2.14091
    Z4       -0.05227  -0.00376   0.00000   0.00009   0.00048  -0.05179
    X5        1.88504   0.10267   0.00000   0.07425   0.06582   1.95086
    Y5        1.33024   0.00803   0.00000   0.04887   0.06482   1.39506
    Z5        0.02848   0.00741   0.00000   0.00886   0.01285   0.04133
    X6        3.49932  -0.01303   0.00000   0.05135   0.03761   3.53693
    Y6        2.65966  -0.02092   0.00000  -0.04451  -0.02142   2.63824
    Z6       -0.08283  -0.00367   0.00000  -0.03334  -0.02660  -0.10943
    X7       -1.63437   0.02921   0.00000   0.04306   0.02338  -1.61098
    Y7        3.90154  -0.03984   0.00000   0.01338   0.01347   3.91501
    Z7        0.00386   0.00112   0.00000   0.01345   0.01299   0.01685
    X8       -1.55325  -0.01108   0.00000  -0.06781  -0.05228  -1.60552
    Y8       -3.86521  -0.00713   0.00000  -0.08417  -0.08410  -3.94931
    Z8       -0.06577   0.00026   0.00000  -0.00587  -0.00887  -0.07464
    X9        3.49774  -0.03117   0.00000  -0.01738  -0.00790   3.48983
    Y9       -2.61788   0.00660   0.00000  -0.03386  -0.01110  -2.62899
    Z9        0.06700  -0.00179   0.00000   0.00539   0.01035   0.07735
         Item               Value     Threshold  Converged?
 Maximum Force            0.166681     0.000450     NO 
 RMS     Force            0.056287     0.000300     NO 
 Maximum Displacement     0.156893     0.001800     NO 
 RMS     Displacement     0.056841     0.001200     NO 
 Predicted change in Energy=-4.184468D-02
 GradGradGradGradGradGradGradGradGradGradGradGradGradGradGradGradGradGrad

 Leave Link  103 at Tue Dec 15 16:28:07 2015, MaxMem=    33554432 cpu:         0.0
 (Enter /home/Applications/g09/g09/l9999.exe)
 1\1\GINC-DUSTIN-DESKTOP\Force\RB3LYP-FC\3-21G\C4H4O1\DUSTIN\15-Dec-201
 5\0\\#P B3LYP/3-21G CIS(Singlets,NStates=15) pop(full) force\\FuranDFT
 \\0,1\C,0.916703,-0.764854,-0.036692\C,-0.385303,-1.079104,-0.027434\O
 ,-1.145823,0.009348,-0.03457\C,-0.297599,1.049894,-0.027661\C,0.997519
 ,0.703933,0.015072\H,1.851758,1.407431,-0.043834\H,-0.86487,2.064606,0
 .002045\H,-0.821943,-2.04538,-0.034806\H,1.850922,-1.385324,0.035456\\
 Version=ES64L-G09RevD.01\State=1-A\HF=-228.7330819\RMSD=4.035e-09\RMSF
 =5.629e-02\Dipole=0.3151231,-0.5697673,-0.0013998\PG=C01 [X(C4H4O1)]\\
 @


 IT IS BY LOGIC THAT WE PROVE, BUT BY INTUITION THAT WE DISCOVER.
     -- J.H.POINCARE (1854-1912)
 Job cpu time:       0 days  0 hours  0 minutes 47.9 seconds.
 File lengths (MBytes):  RWF=     14 Int=      0 D2E=      0 Chk=      3 Scr=      1
 Normal termination of Gaussian 09 at Tue Dec 15 16:28:07 2015.
