 Entering Gaussian System, Link 0=g09
 Input=FuranAM1_28P10.com
 Output=FuranAM1_28P10.log
 Initial command:
 /home/Applications/g09/g09/l1.exe "/home/Applications/g09/scratch/Gau-9404.inp" -scrdir="/home/Applications/g09/scratch/"
 Entering Link 1 = /home/Applications/g09/g09/l1.exe PID=      9406.
  
 Copyright (c) 1988,1990,1992,1993,1995,1998,2003,2009,2013,
            Gaussian, Inc.  All Rights Reserved.
  
 This is part of the Gaussian(R) 09 program.  It is based on
 the Gaussian(R) 03 system (copyright 2003, Gaussian, Inc.),
 the Gaussian(R) 98 system (copyright 1998, Gaussian, Inc.),
 the Gaussian(R) 94 system (copyright 1995, Gaussian, Inc.),
 the Gaussian 92(TM) system (copyright 1992, Gaussian, Inc.),
 the Gaussian 90(TM) system (copyright 1990, Gaussian, Inc.),
 the Gaussian 88(TM) system (copyright 1988, Gaussian, Inc.),
 the Gaussian 86(TM) system (copyright 1986, Carnegie Mellon
 University), and the Gaussian 82(TM) system (copyright 1983,
 Carnegie Mellon University). Gaussian is a federally registered
 trademark of Gaussian, Inc.
  
 This software contains proprietary and confidential information,
 including trade secrets, belonging to Gaussian, Inc.
  
 This software is provided under written license and may be
 used, copied, transmitted, or stored only in accord with that
 written license.
  
 The following legend is applicable only to US Government
 contracts under FAR:
  
                    RESTRICTED RIGHTS LEGEND
  
 Use, reproduction and disclosure by the US Government is
 subject to restrictions as set forth in subparagraphs (a)
 and (c) of the Commercial Computer Software - Restricted
 Rights clause in FAR 52.227-19.
  
 Gaussian, Inc.
 340 Quinnipiac St., Bldg. 40, Wallingford CT 06492
  
  
 ---------------------------------------------------------------
 Warning -- This program may not be used in any manner that
 competes with the business of Gaussian, Inc. or will provide
 assistance to any competitor of Gaussian, Inc.  The licensee
 of this program is prohibited from giving any competitor of
 Gaussian, Inc. access to this program.  By using this program,
 the user acknowledges that Gaussian, Inc. is engaged in the
 business of creating and licensing software in the field of
 computational chemistry and represents and warrants to the
 licensee that it is not a competitor of Gaussian, Inc. and that
 it will not use this program in any manner prohibited above.
 ---------------------------------------------------------------
  

 Cite this work as:
 Gaussian 09, Revision D.01,
 M. J. Frisch, G. W. Trucks, H. B. Schlegel, G. E. Scuseria, 
 M. A. Robb, J. R. Cheeseman, G. Scalmani, V. Barone, B. Mennucci, 
 G. A. Petersson, H. Nakatsuji, M. Caricato, X. Li, H. P. Hratchian, 
 A. F. Izmaylov, J. Bloino, G. Zheng, J. L. Sonnenberg, M. Hada, 
 M. Ehara, K. Toyota, R. Fukuda, J. Hasegawa, M. Ishida, T. Nakajima, 
 Y. Honda, O. Kitao, H. Nakai, T. Vreven, J. A. Montgomery, Jr., 
 J. E. Peralta, F. Ogliaro, M. Bearpark, J. J. Heyd, E. Brothers, 
 K. N. Kudin, V. N. Staroverov, T. Keith, R. Kobayashi, J. Normand, 
 K. Raghavachari, A. Rendell, J. C. Burant, S. S. Iyengar, J. Tomasi, 
 M. Cossi, N. Rega, J. M. Millam, M. Klene, J. E. Knox, J. B. Cross, 
 V. Bakken, C. Adamo, J. Jaramillo, R. Gomperts, R. E. Stratmann, 
 O. Yazyev, A. J. Austin, R. Cammi, C. Pomelli, J. W. Ochterski, 
 R. L. Martin, K. Morokuma, V. G. Zakrzewski, G. A. Voth, 
 P. Salvador, J. J. Dannenberg, S. Dapprich, A. D. Daniels, 
 O. Farkas, J. B. Foresman, J. V. Ortiz, J. Cioslowski, 
 and D. J. Fox, Gaussian, Inc., Wallingford CT, 2013.
 
 ******************************************
 Gaussian 09:  ES64L-G09RevD.01 24-Apr-2013
                15-Dec-2015 
 ******************************************
 ------------------------------------------------------------
 #P AM1(Input,print) CIS(Singlets,NStates=15) pop(full) force
 ------------------------------------------------------------
 1/10=7,30=1,38=1/1,3;
 2/12=2,17=6,18=5,40=1/2;
 3/5=2,16=1,25=1,41=700000,71=1,135=100,136=1/1,2,8,3;
 4/35=1/1;
 5/5=2,35=1,38=5/2;
 8/6=1,10=1,108=15/1;
 9/15=2,41=15,42=1,48=1,49=10/14;
 10/5=4/2;
 6/7=3,18=1/1;
 7/12=6,13=5,29=1/1,2,3,16;
 1/10=7,30=1/3;
 99//99;
 Leave Link    1 at Tue Dec 15 17:07:36 2015, MaxMem=           0 cpu:         0.0
 (Enter /home/Applications/g09/g09/l101.exe)
 -----------------
 AM1-Reparam Input
 -----------------
 Symbolic Z-matrix:
 Charge =  0 Multiplicity = 1
 6                     0.94293  -0.71765  -0.01879 
 6                    -0.39417  -1.10252   0.04663 
 8                    -1.20692  -0.0141    0.00718 
 6                    -0.32051   1.05306  -0.03528 
 6                     0.96794   0.72055   0.03368 
 1                     1.79042   1.4028    0.02851 
 1                    -0.80044   2.03977  -0.01417 
 1                    -0.80755  -2.0966   -0.00043 
 1                     1.83817  -1.35987  -0.01311 
 
 NAtoms=      9 NQM=        9 NQMF=       0 NMMI=      0 NMMIF=      0
                NMic=       0 NMicF=      0.
                    Isotopes and Nuclear Properties:
 (Nuclear quadrupole moments (NQMom) in fm**2, nuclear magnetic moments (NMagM)
  in nuclear magnetons)

  Atom         1           2           3           4           5           6           7           8           9
 IAtWgt=          12          12          16          12          12           1           1           1           1
 AtmWgt=  12.0000000  12.0000000  15.9949146  12.0000000  12.0000000   1.0078250   1.0078250   1.0078250   1.0078250
 NucSpn=           0           0           0           0           0           1           1           1           1
 AtZEff=   0.0000000   0.0000000   0.0000000   0.0000000   0.0000000   0.0000000   0.0000000   0.0000000   0.0000000
 NQMom=    0.0000000   0.0000000   0.0000000   0.0000000   0.0000000   0.0000000   0.0000000   0.0000000   0.0000000
 NMagM=    0.0000000   0.0000000   0.0000000   0.0000000   0.0000000   2.7928460   2.7928460   2.7928460   2.7928460
 AtZNuc=   6.0000000   6.0000000   8.0000000   6.0000000   6.0000000   1.0000000   1.0000000   1.0000000   1.0000000
 Leave Link  101 at Tue Dec 15 17:07:36 2015, MaxMem=    33554432 cpu:         0.0
 (Enter /home/Applications/g09/g09/l103.exe)

 GradGradGradGradGradGradGradGradGradGradGradGradGradGradGradGradGradGrad
 Berny optimization.
 Initialization pass.
 Trust Radius=3.00D-01 FncErr=1.00D-07 GrdErr=1.00D-07
 Number of steps in this run=      2 maximum allowed number of steps=      2.
 GradGradGradGradGradGradGradGradGradGradGradGradGradGradGradGradGradGrad

 Leave Link  103 at Tue Dec 15 17:07:36 2015, MaxMem=    33554432 cpu:         0.0
 (Enter /home/Applications/g09/g09/l202.exe)
                          Input orientation:                          
 ---------------------------------------------------------------------
 Center     Atomic      Atomic             Coordinates (Angstroms)
 Number     Number       Type             X           Y           Z
 ---------------------------------------------------------------------
      1          6           0        0.942933   -0.717648   -0.018785
      2          6           0       -0.394170   -1.102515    0.046626
      3          8           0       -1.206924   -0.014102    0.007182
      4          6           0       -0.320508    1.053065   -0.035282
      5          6           0        0.967938    0.720553    0.033679
      6          1           0        1.790418    1.402801    0.028512
      7          1           0       -0.800439    2.039772   -0.014174
      8          1           0       -0.807545   -2.096595   -0.000425
      9          1           0        1.838171   -1.359869   -0.013112
 ---------------------------------------------------------------------
                    Distance matrix (angstroms):
                    1          2          3          4          5
     1  C    0.000000
     2  C    1.392927   0.000000
     3  O    2.262197   1.358958   0.000000
     4  C    2.175311   2.158393   1.387942   0.000000
     5  C    1.439375   2.275760   2.295745   1.332446   0.000000
     6  H    2.284025   3.324058   3.315438   2.140653   1.068626
     7  H    3.262320   3.169025   2.093821   1.097438   2.206759
     8  H    2.228454   1.077631   2.120457   3.187284   3.330139
     9  H    1.101785   2.247920   3.329280   3.237690   2.255582
                    6          7          8          9
     6  H    0.000000
     7  H    2.668350   0.000000
     8  H    4.358443   4.136396   0.000000
     9  H    2.763396   4.303466   2.746405   0.000000
 Stoichiometry    C4H4O
 Framework group  C1[X(C4H4O)]
 Deg. of freedom    21
 Full point group                 C1      NOp   1
 Largest Abelian subgroup         C1      NOp   1
 Largest concise Abelian subgroup C1      NOp   1
                         Standard orientation:                         
 ---------------------------------------------------------------------
 Center     Atomic      Atomic             Coordinates (Angstroms)
 Number     Number       Type             X           Y           Z
 ---------------------------------------------------------------------
      1          6           0       -0.019172    1.188053   -0.031530
      2          6           0        1.098895    0.359700    0.031743
      3          8           0        0.727362   -0.947149    0.002160
      4          6           0       -0.659023   -0.891027   -0.032035
      5          6           0       -1.176731    0.335006    0.033046
      6          1           0       -2.218232    0.574251    0.032953
      7          1           0       -1.151457   -1.871327   -0.002203
      8          1           0        2.139430    0.634543   -0.023351
      9          1           0       -0.052447    2.289335   -0.032020
 ---------------------------------------------------------------------
 Rotational constants (GHZ):      9.7006762      8.8812455      4.6408617
 Leave Link  202 at Tue Dec 15 17:07:36 2015, MaxMem=    33554432 cpu:         0.0
 (Enter /home/Applications/g09/g09/l301.exe)

 Semi-emprical parameters in input format:
 Method=8 CoreType=1 PeptideFC=0.0106250000 RIJScale=0.5404210000
 ****
 H       
 PQN=1 NValence=1 F0ss=0.4721550000 ZetaOverlap=1.0856700000 U=-0.3858490000
 Beta=-0.2268830000 CoreKO=1.0354420000 KON=0,0,0,1.0458670000 KON=1,0,1,1.0589200000
 KON=0,1,1,1.1438880000 KON=2,1,1,1.0589200000 EISol=-0.4188110042 EHeat=0.0830298228
 Alpha=1.4046640000
 GCore=0.0085280000,1.5127750000,2.2676710000
 GCore=0.0003530000,1.4368830000,3.4779940000
 GCore=-0.0013010000,0.5600570000,3.5861320000
 ****
 C       
 PQN=2,2 NValence=4 F0ss=0.4494440000 F0sp=0.4261420000 F0pp=0.3497590000 F2pp=0.1878900000
 G1sp=0.2701540000
 ZetaOverlap=1.8086650000,1.3781170000
 U=-1.6741410000,-1.4557970000
 Beta=-0.5453250000,-0.2836780000 DDN=0,1,0.7474020000 DDN=1,1,0.7964360000
 CoreKO=1.1124280000 KON=0,0,0,1.1124280000 KON=1,0,1,0.8159680000 KON=0,1,1,1.1124280000
 KON=2,1,1,0.8516400000 EISol=-4.4398989268 EHeat=0.2723305520 Alpha=1.3653470000
 DipHyp=1.4947180026
 GCore=0.0007890000,1.3361580000,2.6678360000
 GCore=0.0031890000,1.4001430000,3.2045450000
 GCore=-0.0015090000,1.3827320000,3.8739390000
 GCore=-0.0001030000,1.2700780000,4.6088130000
 ****
 O       
 PQN=2,2 NValence=6 F0ss=0.6666250000 F0sp=0.5321300000 F0pp=0.4958710000 F2pp=0.2358080000
 G1sp=0.4343770000
 ZetaOverlap=2.7336680000,2.5240390000
 U=-3.5951870000,-1.8323600000
 Beta=-1.1573400000,-1.2481890000 DDN=0,1,0.4953610000 DDN=1,1,0.5211070000
 CoreKO=0.8515990000 KON=0,0,0,0.8822960000 KON=1,0,1,0.5019540000 KON=0,1,1,0.8671530000
 KON=2,1,1,0.5515580000 EISol=-11.6164441184 EHeat=0.0949133088 Alpha=2.4031680000
 DipHyp=0.9906650029
 GCore=0.0204720000,1.2640290000,1.6023330000
 GCore=0.0052790000,1.9602000000,2.5761670000
 ****
 
 Standard basis: VSTO-6G (5D, 7F)
 Ernie: Thresh=  0.10000D-02 Tol=  0.10000D-05 Strict=F.
  NNHCO=     0 NNPyr=     0 NCTC=     0               EPep=         0.000000000
    EC=        68.625720876  ECS=         2.009149735   EG=         0.385982739
   EHC=         0.000000000  EAt=       -31.051283842  AtH=         1.516354808
 EPDDG=         0.000000000  ECC=        71.020853350 EAtT=        32.567638650
 There are    24 symmetry adapted cartesian basis functions of A   symmetry.
 There are    24 symmetry adapted basis functions of A   symmetry.
    24 basis functions,   144 primitive gaussians,    24 cartesian basis functions
    13 alpha electrons       13 beta electrons
       nuclear repulsion energy       103.5884920004 Hartrees.
 IExCor=    0 DFT=F Ex=HF Corr=None ExCW=0 ScaHFX=  1.000000
 ScaDFX=  1.000000  1.000000  1.000000  1.000000 ScalE2=  1.000000  1.000000
 IRadAn=      0 IRanWt=     -1 IRanGd=            0 ICorTp=0 IEmpDi=  4
 Integral buffers will be    131072 words long.
 Regular integral format.
 Two-electron integral symmetry is turned off.
 Leave Link  301 at Tue Dec 15 17:07:36 2015, MaxMem=    33554432 cpu:         0.0
 (Enter /home/Applications/g09/g09/l302.exe)
 Do NDO integrals.
 NPDir=0 NMtPBC=     1 NCelOv=     1 NCel=       1 NClECP=     1 NCelD=      1
         NCelK=      1 NCelE2=     1 NClLst=     1 CellRange=     0.0.
 One-electron integrals computed using PRISM.
 NBasis=    24 RedAO= F EigKep=  0.00D+00  NBF=    24
 NBsUse=    24 1.00D-04 EigRej=  0.00D+00 NBFU=    24
 Leave Link  302 at Tue Dec 15 17:07:36 2015, MaxMem=    33554432 cpu:         0.0
 (Enter /home/Applications/g09/g09/l308.exe)
 Leave Link  308 at Tue Dec 15 17:07:36 2015, MaxMem=    33554432 cpu:         0.0
 (Enter /home/Applications/g09/g09/l303.exe)
 DipDrv:  MaxL=1.
 Leave Link  303 at Tue Dec 15 17:07:36 2015, MaxMem=    33554432 cpu:         0.0
 (Enter /home/Applications/g09/g09/l401.exe)
 Simple Huckel Guess.
 JPrj=0 DoOrth=F DoCkMO=F.
 Leave Link  401 at Tue Dec 15 17:07:36 2015, MaxMem=    33554432 cpu:         0.0
 (Enter /home/Applications/g09/g09/l502.exe)
 Closed shell SCF:
 Using DIIS extrapolation, IDIIS=  1040.
 Overlap will be assumed to be unity.
 Two-electron integral symmetry not used.
 Keep J ints in memory in canonical form, NReq=888082.
 IVT=       79475 IEndB=       79475 NGot=    33554432 MDV=    33473473
 LenX=    33473473 LenY=    33472456
 Requested convergence on RMS density matrix=1.00D-08 within 128 cycles.
 Requested convergence on MAX density matrix=1.00D-06.
 Requested convergence on             energy=1.00D-06.
 No special actions if energy rises.
 FoFCou: FMM=F IPFlag=           0 FMFlag=           0 FMFlg1=           0
         NFxFlg=           0 DoJE=F BraDBF=F KetDBF=F FulRan=T
         wScrn=  0.000000 ICntrl=     600 IOpCl=  2 I1Cent=           0 NGrid=           0
         NMat0=    1 NMatS0=     54 NMatT0=    0 NMatD0=    1 NMtDS0=    0 NMtDT0=    0
 Symmetry not used in FoFCou.

 Cycle   1  Pass 1  IDiag  1:
 E=  5.72264005849416    
 DIIS: error= 1.92D-01 at cycle   1 NSaved=   1.
 NSaved= 1 IEnMin= 1 EnMin=  5.72264005849416     IErMin= 1 ErrMin= 1.92D-01
 ErrMax= 1.92D-01  0.00D+00 EMaxC= 1.00D-01 BMatC= 6.76D-01 BMatP= 6.76D-01
 IDIUse=3 WtCom= 0.00D+00 WtEn= 1.00D+00
 Coeff-Com:  0.100D+01
 Coeff-En:   0.100D+01
 Coeff:      0.100D+01
 GapD=    2.000 DampG=2.000 DampE=0.250 DampFc=0.5000 IDamp=-1.
 Damping current iteration by 5.00D-01
 RMSDP=7.18D-02 MaxDP=7.68D-01              OVMax= 0.00D+00

 Cycle   2  Pass 1  IDiag  1:
 E=  4.31582623177664     Delta-E=       -1.406813826718 Rises=F Damp=T
 DIIS: error= 1.09D-01 at cycle   2 NSaved=   2.
 NSaved= 2 IEnMin= 2 EnMin=  4.31582623177664     IErMin= 2 ErrMin= 1.09D-01
 ErrMax= 1.09D-01  0.00D+00 EMaxC= 1.00D-01 BMatC= 2.16D-01 BMatP= 6.76D-01
 IDIUse=3 WtCom= 0.00D+00 WtEn= 1.00D+00
 Coeff-Com: -0.112D+01 0.212D+01
 Coeff-En:   0.000D+00 0.100D+01
 Coeff:      0.000D+00 0.100D+01
 RMSDP=3.88D-02 MaxDP=3.89D-01 DE=-1.41D+00 OVMax= 0.00D+00

 Cycle   3  Pass 1  IDiag  1:
 E=  2.66429067784381     Delta-E=       -1.651535553933 Rises=F Damp=F
 DIIS: error= 2.12D-02 at cycle   3 NSaved=   3.
 NSaved= 3 IEnMin= 3 EnMin=  2.66429067784381     IErMin= 3 ErrMin= 2.12D-02
 ErrMax= 2.12D-02  0.00D+00 EMaxC= 1.00D-01 BMatC= 1.54D-02 BMatP= 2.16D-01
 IDIUse=3 WtCom= 7.88D-01 WtEn= 2.12D-01
 Coeff-Com:  0.237D+00-0.567D+00 0.133D+01
 Coeff-En:   0.000D+00 0.000D+00 0.100D+01
 Coeff:      0.187D+00-0.447D+00 0.126D+01
 RMSDP=1.08D-02 MaxDP=5.51D-02 DE=-1.65D+00 OVMax= 0.00D+00

 Cycle   4  Pass 1  IDiag  1:
 E=  2.60941769261599     Delta-E=       -0.054872985228 Rises=F Damp=F
 DIIS: error= 5.68D-03 at cycle   4 NSaved=   4.
 NSaved= 4 IEnMin= 4 EnMin=  2.60941769261599     IErMin= 4 ErrMin= 5.68D-03
 ErrMax= 5.68D-03  0.00D+00 EMaxC= 1.00D-01 BMatC= 1.26D-03 BMatP= 1.54D-02
 IDIUse=3 WtCom= 9.43D-01 WtEn= 5.68D-02
 Coeff-Com: -0.183D-01 0.264D-01-0.323D+00 0.131D+01
 Coeff-En:   0.000D+00 0.000D+00 0.000D+00 0.100D+01
 Coeff:     -0.173D-01 0.249D-01-0.305D+00 0.130D+01
 RMSDP=4.08D-03 MaxDP=2.22D-02 DE=-5.49D-02 OVMax= 0.00D+00

 Cycle   5  Pass 1  IDiag  3:
 E=  2.60400974608233     Delta-E=       -0.005407946534 Rises=F Damp=F
 DIIS: error= 1.24D-03 at cycle   5 NSaved=   5.
 NSaved= 5 IEnMin= 5 EnMin=  2.60400974608233     IErMin= 5 ErrMin= 1.24D-03
 ErrMax= 1.24D-03  0.00D+00 EMaxC= 1.00D-01 BMatC= 4.86D-05 BMatP= 1.26D-03
 IDIUse=3 WtCom= 9.88D-01 WtEn= 1.24D-02
 Coeff-Com:  0.126D-01-0.207D-01 0.123D+00-0.580D+00 0.147D+01
 Coeff-En:   0.000D+00 0.000D+00 0.000D+00 0.000D+00 0.100D+01
 Coeff:      0.125D-01-0.204D-01 0.121D+00-0.573D+00 0.146D+01
 Gap=     0.385 Goal=   None    Shift=    0.000
 RMSDP=9.46D-04 MaxDP=5.15D-03 DE=-5.41D-03 OVMax= 9.91D-03

 Cycle   6  Pass 1  IDiag  3:
 E=  2.60376870284433     Delta-E=       -0.000241043238 Rises=F Damp=F
 DIIS: error= 1.93D-04 at cycle   6 NSaved=   6.
 NSaved= 6 IEnMin= 6 EnMin=  2.60376870284433     IErMin= 6 ErrMin= 1.93D-04
 ErrMax= 1.93D-04  0.00D+00 EMaxC= 1.00D-01 BMatC= 1.31D-06 BMatP= 4.86D-05
 IDIUse=3 WtCom= 9.98D-01 WtEn= 1.93D-03
 Coeff-Com: -0.205D-02 0.410D-02-0.316D-01 0.152D+00-0.487D+00 0.136D+01
 Coeff-En:   0.000D+00 0.000D+00 0.000D+00 0.000D+00 0.000D+00 0.100D+01
 Coeff:     -0.205D-02 0.409D-02-0.315D-01 0.152D+00-0.486D+00 0.136D+01
 Gap=     0.386 Goal=   None    Shift=    0.000
 RMSDP=1.51D-04 MaxDP=8.79D-04 DE=-2.41D-04 OVMax= 1.19D-03

 Cycle   7  Pass 1  IDiag  3:
 E=  2.60376245207264     Delta-E=       -0.000006250772 Rises=F Damp=F
 DIIS: error= 4.61D-05 at cycle   7 NSaved=   7.
 NSaved= 7 IEnMin= 7 EnMin=  2.60376245207264     IErMin= 7 ErrMin= 4.61D-05
 ErrMax= 4.61D-05  0.00D+00 EMaxC= 1.00D-01 BMatC= 4.82D-08 BMatP= 1.31D-06
 IDIUse=1 WtCom= 1.00D+00 WtEn= 0.00D+00
 Coeff-Com:  0.169D-03-0.455D-03 0.734D-02-0.389D-01 0.144D+00-0.550D+00
 Coeff-Com:  0.144D+01
 Coeff:      0.169D-03-0.455D-03 0.734D-02-0.389D-01 0.144D+00-0.550D+00
 Coeff:      0.144D+01
 Gap=     0.386 Goal=   None    Shift=    0.000
 RMSDP=2.89D-05 MaxDP=1.88D-04 DE=-6.25D-06 OVMax= 1.65D-04

 Cycle   8  Pass 1  IDiag  3:
 E=  2.60376222803576     Delta-E=       -0.000000224037 Rises=F Damp=F
 DIIS: error= 8.11D-06 at cycle   8 NSaved=   8.
 NSaved= 8 IEnMin= 8 EnMin=  2.60376222803576     IErMin= 8 ErrMin= 8.11D-06
 ErrMax= 8.11D-06  0.00D+00 EMaxC= 1.00D-01 BMatC= 1.33D-09 BMatP= 4.82D-08
 IDIUse=1 WtCom= 1.00D+00 WtEn= 0.00D+00
 Coeff-Com: -0.676D-05 0.283D-04-0.119D-02 0.774D-02-0.350D-01 0.161D+00
 Coeff-Com: -0.529D+00 0.140D+01
 Coeff:     -0.676D-05 0.283D-04-0.119D-02 0.774D-02-0.350D-01 0.161D+00
 Coeff:     -0.529D+00 0.140D+01
 Gap=     0.386 Goal=   None    Shift=    0.000
 RMSDP=4.81D-06 MaxDP=3.39D-05 DE=-2.24D-07 OVMax= 3.11D-05

 Cycle   9  Pass 1  IDiag  3:
 E=  2.60376222193912     Delta-E=       -0.000000006097 Rises=F Damp=F
 DIIS: error= 1.01D-06 at cycle   9 NSaved=   9.
 NSaved= 9 IEnMin= 9 EnMin=  2.60376222193912     IErMin= 9 ErrMin= 1.01D-06
 ErrMax= 1.01D-06  0.00D+00 EMaxC= 1.00D-01 BMatC= 3.87D-11 BMatP= 1.33D-09
 IDIUse=1 WtCom= 1.00D+00 WtEn= 0.00D+00
 Coeff-Com:  0.332D-05-0.519D-05 0.754D-04-0.936D-03 0.622D-02-0.354D-01
 Coeff-Com:  0.129D+00-0.443D+00 0.134D+01
 Coeff:      0.332D-05-0.519D-05 0.754D-04-0.936D-03 0.622D-02-0.354D-01
 Coeff:      0.129D+00-0.443D+00 0.134D+01
 Gap=     0.386 Goal=   None    Shift=    0.000
 RMSDP=8.72D-07 MaxDP=5.90D-06 DE=-6.10D-09 OVMax= 7.68D-06

 Cycle  10  Pass 1  IDiag  3:
 E=  2.60376222173858     Delta-E=       -0.000000000201 Rises=F Damp=F
 DIIS: error= 2.79D-07 at cycle  10 NSaved=  10.
 NSaved=10 IEnMin=10 EnMin=  2.60376222173858     IErMin=10 ErrMin= 2.79D-07
 ErrMax= 2.79D-07  0.00D+00 EMaxC= 1.00D-01 BMatC= 2.02D-12 BMatP= 3.87D-11
 IDIUse=1 WtCom= 1.00D+00 WtEn= 0.00D+00
 Coeff-Com: -0.107D-05 0.165D-05-0.331D-04 0.435D-03-0.295D-02 0.169D-01
 Coeff-Com: -0.615D-01 0.210D+00-0.736D+00 0.157D+01
 Coeff:     -0.107D-05 0.165D-05-0.331D-04 0.435D-03-0.295D-02 0.169D-01
 Coeff:     -0.615D-01 0.210D+00-0.736D+00 0.157D+01
 Gap=     0.386 Goal=   None    Shift=    0.000
 RMSDP=2.52D-07 MaxDP=1.99D-06 DE=-2.01D-10 OVMax= 2.50D-06

 Cycle  11  Pass 1  IDiag  3:
 E=  2.60376222172499     Delta-E=       -0.000000000014 Rises=F Damp=F
 DIIS: error= 6.77D-08 at cycle  11 NSaved=  11.
 NSaved=11 IEnMin=11 EnMin=  2.60376222172499     IErMin=11 ErrMin= 6.77D-08
 ErrMax= 6.77D-08  0.00D+00 EMaxC= 1.00D-01 BMatC= 9.52D-14 BMatP= 2.02D-12
 IDIUse=1 WtCom= 1.00D+00 WtEn= 0.00D+00
 Coeff-Com: -0.605D-07 0.165D-06 0.128D-04-0.167D-03 0.112D-02-0.643D-02
 Coeff-Com:  0.234D-01-0.799D-01 0.285D+00-0.746D+00 0.152D+01
 Coeff:     -0.605D-07 0.165D-06 0.128D-04-0.167D-03 0.112D-02-0.643D-02
 Coeff:      0.234D-01-0.799D-01 0.285D+00-0.746D+00 0.152D+01
 Gap=     0.386 Goal=   None    Shift=    0.000
 RMSDP=5.69D-08 MaxDP=4.51D-07 DE=-1.36D-11 OVMax= 5.43D-07

 Cycle  12  Pass 1  IDiag  3:
 E=  2.60376222172428     Delta-E=       -0.000000000001 Rises=F Damp=F
 DIIS: error= 9.05D-09 at cycle  12 NSaved=  12.
 NSaved=12 IEnMin=12 EnMin=  2.60376222172428     IErMin=12 ErrMin= 9.05D-09
 ErrMax= 9.05D-09  0.00D+00 EMaxC= 1.00D-01 BMatC= 2.65D-15 BMatP= 9.52D-14
 IDIUse=1 WtCom= 1.00D+00 WtEn= 0.00D+00
 Coeff-Com:  0.444D-07-0.885D-07-0.254D-05 0.338D-04-0.227D-03 0.132D-02
 Coeff-Com: -0.482D-02 0.166D-01-0.600D-01 0.171D+00-0.464D+00 0.134D+01
 Coeff:      0.444D-07-0.885D-07-0.254D-05 0.338D-04-0.227D-03 0.132D-02
 Coeff:     -0.482D-02 0.166D-01-0.600D-01 0.171D+00-0.464D+00 0.134D+01
 Gap=     0.386 Goal=   None    Shift=    0.000
 RMSDP=7.13D-09 MaxDP=4.87D-08 DE=-7.11D-13 OVMax= 5.10D-08

 Cycle  13  Pass 2  IDiag  1:
 SCF Done:  E(RAM1) =   2.60376222172     A.U. after   13 cycles
            NFock= 12  Conv=0.71D-08     -V/T= 1.1819
 KE=-1.431109809363D+01 PE=-1.690656040640D+02 EE= 8.239197237894D+01
 Leave Link  502 at Tue Dec 15 17:07:36 2015, MaxMem=    33554432 cpu:         0.0
 (Enter /home/Applications/g09/g09/l801.exe)
 Range of M.O.s used for correlation:     1    24
 NBasis=    24 NAE=    13 NBE=    13 NFC=     0 NFV=     0
 NROrb=     24 NOA=    13 NOB=    13 NVA=    11 NVB=    11
 Leave Link  801 at Tue Dec 15 17:07:36 2015, MaxMem=    33554432 cpu:         0.0
 (Enter /home/Applications/g09/g09/l914.exe)
 RHF ground state
 MDV=    33554432 DFT=F DoStab=F Mixed=F DoRPA=F DoScal=F NonHer=F
 Making orbital integer symmetry assigments:
 Orbital symmetries:
       Occupied  (A) (A) (A) (A) (A) (A) (A) (A) (A) (A) (A) (A)
                 (A)
       Virtual   (A) (A) (A) (A) (A) (A) (A) (A) (A) (A) (A)
    60 initial guesses have been made.
 Convergence on wavefunction:    0.000001000000000
 Davidson Disk Diagonalization:  ConvIn= 1.00D-06 SkipCon=T Conv= 1.00D-06.
 Max sub-space:   240 roots to seek:    60 dimension of matrix:          286
 Iteration     1 Dimension    60 NMult     0 NNew     60
 CISAX will form    60 AO SS matrices at one time.
 NMat=    60 NSing=    60 JSym2X= 0.
 FoFJK:  IHMeth= 8 ICntrl=       0 DoSepK=F KAlg= 0 I1Cent=   0 FoldK=F
 IRaf=         1 NMat= 120 IRICut=       1 DoRegI=T DoRafI=F ISym2E= 0.
 FoFCou: FMM=F IPFlag=           0 FMFlag=      100000 FMFlg1=           0
         NFxFlg=           0 DoJE=F BraDBF=F KetDBF=F FulRan=T
         wScrn=  0.000000 ICntrl=       0 IOpCl=  0 I1Cent=           0 NGrid=           0
         NMat0=  120 NMatS0=     60 NMatT0=    0 NMatD0=  120 NMtDS0=    0 NMtDT0=    0
 Symmetry not used in FoFCou.
 New state      5 was old state      6
 New state      6 was old state      7
 New state      7 was old state      5
 New state     12 was old state     19
 New state     13 was old state     12
 New state     15 was old state     13
 Excitation Energies [eV] at current iteration:
 Root      1 :     5.116298101705613
 Root      2 :     6.118204962250612
 Root      3 :     6.454619861657770
 Root      4 :     6.511357278266241
 Root      5 :     7.508692732576170
 Root      6 :     7.811856684582974
 Root      7 :     8.440959470310144
 Root      8 :     9.134163192890185
 Root      9 :     9.353921447324041
 Root     10 :     9.379116567586149
 Root     11 :     9.831035239268113
 Root     12 :     9.980059374341490
 Root     13 :    10.119267741491230
 Root     14 :    10.181238779808030
 Root     15 :    10.394851911923790
 Root     16 :    10.598375584228710
 Root     17 :    10.798826622307870
 Root     18 :    10.917103422457010
 Root     19 :    11.320758388683080
 Root     20 :    11.434466365827550
 Root     21 :    11.974574934257410
 Root     22 :    12.046244719431810
 Root     23 :    12.276102794747810
 Root     24 :    12.668752419946080
 Root     25 :    12.814215509239060
 Root     26 :    12.867263459660580
 Root     27 :    13.168155417014380
 Root     28 :    13.282546855150570
 Root     29 :    13.477847921561810
 Root     30 :    13.572428754063350
 Root     31 :    13.628605167146560
 Root     32 :    13.794767441327840
 Root     33 :    13.946013857703280
 Root     34 :    14.111479356346550
 Root     35 :    14.522511837845260
 Root     36 :    14.531975372948650
 Root     37 :    14.888248925764790
 Root     38 :    14.937056971906830
 Root     39 :    15.346516934589410
 Root     40 :    15.407168298354360
 Root     41 :    15.651255972196840
 Root     42 :    15.689741380742120
 Root     43 :    15.811931180083480
 Root     44 :    15.890930981065100
 Root     45 :    16.201978917627750
 Root     46 :    16.510280283200800
 Root     47 :    16.541955863676750
 Root     48 :    16.545356335602850
 Root     49 :    16.680701676502560
 Root     50 :    16.694170882714620
 Root     51 :    16.736616463820340
 Root     52 :    17.207684920616440
 Root     53 :    17.287494266745010
 Root     54 :    17.667892922715120
 Root     55 :    17.691143209290330
 Root     56 :    17.922021528834060
 Root     57 :    18.140755465310330
 Root     58 :    18.345790646950860
 Root     59 :    18.557919224574000
 Root     60 :    18.981512214937630
 Iteration     2 Dimension   120 NMult    60 NNew     60
 CISAX will form    60 AO SS matrices at one time.
 NMat=    60 NSing=    60 JSym2X= 0.
 Root      1 not converged, maximum delta is    0.020697688512095
 Root      2 not converged, maximum delta is    0.028041799756103
 Root      3 not converged, maximum delta is    0.066691145460041
 Root      4 not converged, maximum delta is    0.064975528012334
 Root      5 not converged, maximum delta is    0.017382507595989
 Root      6 not converged, maximum delta is    0.007820362932600
 Root      7 not converged, maximum delta is    0.010855483024849
 Root      8 not converged, maximum delta is    0.126991483522630
 Root      9 not converged, maximum delta is    0.129756939063472
 Root     10 not converged, maximum delta is    0.026532887473474
 Root     11 not converged, maximum delta is    0.186245954579891
 Root     12 not converged, maximum delta is    0.280698840071311
 Root     13 not converged, maximum delta is    0.099324440964971
 Root     14 not converged, maximum delta is    0.031347045713258
 Root     15 not converged, maximum delta is    0.066855834743480
 Excitation Energies [eV] at current iteration:
 Root      1 :     5.041791486061082   Change is   -0.074506615644532
 Root      2 :     6.092881610031612   Change is   -0.025323352219000
 Root      3 :     6.440167444266090   Change is   -0.014452417391680
 Root      4 :     6.499938254420051   Change is   -0.011419023846191
 Root      5 :     7.494963156654658   Change is   -0.013729575921512
 Root      6 :     7.808598200622381   Change is   -0.003258483960593
 Root      7 :     8.424291145295438   Change is   -0.016668325014706
 Root      8 :     9.122356729608324   Change is   -0.011806463281860
 Root      9 :     9.187149371220515   Change is   -0.166772076103525
 Root     10 :     9.360225091604162   Change is   -0.018891475981987
 Root     11 :     9.725645271028819   Change is   -0.105389968239294
 Root     12 :     9.838971164549029   Change is   -0.141088209792461
 Root     13 :    10.083331796035220   Change is   -0.035935945456005
 Root     14 :    10.150356514300350   Change is   -0.030882265507681
 Root     15 :    10.238010240438050   Change is   -0.156841671485740
 Root     16 :    10.584234947882030   Change is   -0.014140636346680
 Root     17 :    10.724738606552820   Change is   -0.192364815904192
 Root     18 :    10.756249732242450   Change is   -0.042576890065417
 Root     19 :    11.037514321580690   Change is   -0.283244067102389
 Root     20 :    11.414958837841110   Change is   -0.019507527986441
 Root     21 :    11.784322803467830   Change is   -0.261921915963975
 Root     22 :    11.932067803142870   Change is   -0.042507131114544
 Root     23 :    12.069061635642090   Change is   -0.207041159105722
 Root     24 :    12.354801252311300   Change is   -0.313951167634782
 Root     25 :    12.578066046899800   Change is   -0.236149462339259
 Root     26 :    12.806523153079970   Change is   -0.060740306580612
 Root     27 :    13.098122556466090   Change is   -0.070032860548288
 Root     28 :    13.159728429351290   Change is   -0.122818425799276
 Root     29 :    13.318229463237090   Change is   -0.159618458324720
 Root     30 :    13.419018098511540   Change is   -0.153410655551814
 Root     31 :    13.468006594537600   Change is   -0.160598572608964
 Root     32 :    13.668655169856030   Change is   -0.126112271471812
 Root     33 :    13.762458483893690   Change is   -0.183555373809590
 Root     34 :    13.896414095968570   Change is   -0.215065260377984
 Root     35 :    14.415065764922080   Change is   -0.107446072923180
 Root     36 :    14.519825124855920   Change is   -0.012150248092732
 Root     37 :    14.593388588490350   Change is   -0.343668383416481
 Root     38 :    14.804752654398740   Change is   -0.083496271366050
 Root     39 :    15.019637895800590   Change is   -0.387530402553765
 Root     40 :    15.178869924818100   Change is   -0.167647009771313
 Root     41 :    15.400660200966670   Change is   -0.289081179775451
 Root     42 :    15.453570475661930   Change is   -0.358360704421555
 Root     43 :    15.586123290478450   Change is   -0.065132681718387
 Root     44 :    15.797728678840010   Change is   -0.093202302225097
 Root     45 :    15.876693686260140   Change is   -0.325285231367611
 Root     46 :    16.238413094499430   Change is   -0.303542769177329
 Root     47 :    16.384043511814660   Change is   -0.310127370899961
 Root     48 :    16.406796563597430   Change is   -0.329819900222908
 Root     49 :    16.428856871503590   Change is   -0.116499464099250
 Root     50 :    16.506367250465140   Change is   -0.003913032735665
 Root     51 :    16.537350369628600   Change is   -0.143351306873961
 Root     52 :    16.870220997132800   Change is   -0.337463923483636
 Root     53 :    16.913229575693320   Change is   -0.374264691051693
 Root     54 :    17.509195373621720   Change is   -0.158697549093401
 Root     55 :    17.564492663092250   Change is   -0.126650546198077
 Root     56 :    17.690659126116630   Change is   -0.450096339193697
 Root     57 :    17.730308412166740   Change is   -0.191713116667317
 Root     58 :    18.055210105784540   Change is   -0.290580541166320
 Root     59 :    18.213164529000710   Change is   -0.344754695573292
 Root     60 :    18.357077229141620
 Iteration     3 Dimension   135 NMult   120 NNew     15
 CISAX will form    15 AO SS matrices at one time.
 NMat=    15 NSing=    15 JSym2X= 0.
 Root      1 not converged, maximum delta is    0.001102622279878
 Root      2 not converged, maximum delta is    0.000034000332905
 Root      3 not converged, maximum delta is    0.000057535202193
 Root      4 not converged, maximum delta is    0.000079711140513
 Root      5 not converged, maximum delta is    0.000105386557458
 Root      6 not converged, maximum delta is    0.000054299185356
 Root      7 not converged, maximum delta is    0.000435742132019
 Root      8 not converged, maximum delta is    0.001321795985671
 Root      9 not converged, maximum delta is    0.001481200202367
 Root     10 not converged, maximum delta is    0.000124198491665
 Root     11 not converged, maximum delta is    0.000861729146939
 Root     12 not converged, maximum delta is    0.001275822923086
 Root     13 not converged, maximum delta is    0.000717073947221
 Root     14 not converged, maximum delta is    0.000260611282174
 Root     15 not converged, maximum delta is    0.001359211905777
 Excitation Energies [eV] at current iteration:
 Root      1 :     5.041538437700292   Change is   -0.000253048360790
 Root      2 :     6.092881354177871   Change is   -0.000000255853741
 Root      3 :     6.440166904667433   Change is   -0.000000539598657
 Root      4 :     6.499936447843740   Change is   -0.000001806576310
 Root      5 :     7.494960398869278   Change is   -0.000002757785380
 Root      6 :     7.808597225838684   Change is   -0.000000974783698
 Root      7 :     8.424250997915308   Change is   -0.000040147380129
 Root      8 :     9.122285486645538   Change is   -0.000071242962786
 Root      9 :     9.186684759254204   Change is   -0.000464611966311
 Root     10 :     9.360220386633253   Change is   -0.000004704970909
 Root     11 :     9.725473911039851   Change is   -0.000171359988969
 Root     12 :     9.838416431943131   Change is   -0.000554732605898
 Root     13 :    10.083246385670990   Change is   -0.000085410364240
 Root     14 :    10.150326188750470   Change is   -0.000030325549879
 Root     15 :    10.237461306397410   Change is   -0.000548934040643
 Iteration     4 Dimension   143 NMult   135 NNew      8
 CISAX will form     8 AO SS matrices at one time.
 NMat=     8 NSing=     8 JSym2X= 0.
 Root      1 not converged, maximum delta is    0.000046681155650
 Root      2 not converged, maximum delta is    0.000001110277867
 Root      3 not converged, maximum delta is    0.000001440810632
 Root      4 not converged, maximum delta is    0.000003862035767
 Root      5 not converged, maximum delta is    0.000005572038016
 Root      6 not converged, maximum delta is    0.000002008443510
 Root      7 not converged, maximum delta is    0.000012926260709
 Root      8 not converged, maximum delta is    0.000033988940190
 Root      9 not converged, maximum delta is    0.000082814825070
 Root     10 not converged, maximum delta is    0.000005805991384
 Root     11 not converged, maximum delta is    0.000031942161548
 Root     12 not converged, maximum delta is    0.000076170173660
 Root     13 not converged, maximum delta is    0.000030970439326
 Root     14 not converged, maximum delta is    0.000012402285415
 Root     15 not converged, maximum delta is    0.000085563691043
 Excitation Energies [eV] at current iteration:
 Root      1 :     5.041537370410945   Change is   -0.000001067289347
 Root      2 :     6.092881353744529   Change is   -0.000000000433342
 Root      3 :     6.440166904179312   Change is   -0.000000000488120
 Root      4 :     6.499936444673193   Change is   -0.000000003170547
 Root      5 :     7.494960383181047   Change is   -0.000000015688232
 Root      6 :     7.808597224894219   Change is   -0.000000000944465
 Root      7 :     8.424250939788704   Change is   -0.000000058126605
 Root      8 :     9.122285194149729   Change is   -0.000000292495809
 Root      9 :     9.186683171714931   Change is   -0.000001587539274
 Root     10 :     9.360220375978065   Change is   -0.000000010655189
 Root     11 :     9.725473809724729   Change is   -0.000000101315121
 Root     12 :     9.838415605447384   Change is   -0.000000826495746
 Root     13 :    10.083246226528940   Change is   -0.000000159142048
 Root     14 :    10.150326163803100   Change is   -0.000000024947372
 Root     15 :    10.237459343442970   Change is   -0.000001962954441
 Convergence achieved on expansion vectors.
 ***********************************************************************
 Excited states from <AA,BB:AA,BB> singles matrix:
 ***********************************************************************
 
 1PDM for each excited state written to RWF  633
 Ground to excited state transition densities written to RWF  633
 Ground to excited state transition electric dipole moments (Au):
       state          X           Y           Z        Dip. S.      Osc.
         1         1.3060      1.0585     -0.0830      2.8329      0.3499
         2        -0.0311      0.0035      0.0209      0.0014      0.0002
         3        -0.0275     -0.0039      0.1363      0.0194      0.0031
         4        -0.0962     -0.0384     -0.0573      0.0140      0.0022
         5        -0.0793     -0.1022      0.1630      0.0433      0.0080
         6        -0.0181     -0.0265     -0.0143      0.0012      0.0002
         7        -0.5756      0.5355      0.0149      0.6183      0.1276
         8        -0.2552     -0.2253     -0.1397      0.1354      0.0303
         9        -0.3942     -0.3087      0.1050      0.2617      0.0589
        10        -0.0088     -0.0494      0.0193      0.0029      0.0007
        11         0.6845      0.5866     -0.0063      0.8126      0.1936
        12        -0.2966     -0.5454      0.0037      0.3854      0.0929
        13         0.1026      0.1497     -0.0902      0.0411      0.0101
        14         0.0041      0.1122      0.0232      0.0131      0.0033
        15         0.2949      0.0595     -0.0280      0.0913      0.0229
 Ground to excited state transition velocity dipole moments (Au):
       state          X           Y           Z        Dip. S.      Osc.
         1        -0.1484     -0.1282      0.0132      0.0386      0.1390
         2        -0.0048      0.0138     -0.0611      0.0039      0.0118
         3         0.0100     -0.0029     -0.1471      0.0217      0.0612
         4         0.0146      0.0029      0.0987      0.0100      0.0278
         5         0.0063      0.0181     -0.0123      0.0005      0.0013
         6         0.0005      0.0126      0.0091      0.0002      0.0006
         7         0.1798     -0.1781     -0.0053      0.0641      0.1380
         8         0.0525      0.0503     -0.0420      0.0071      0.0140
         9         0.0856      0.0927     -0.0072      0.0160      0.0315
        10        -0.0039      0.0127     -0.0183      0.0005      0.0010
        11        -0.0895     -0.0709      0.0121      0.0132      0.0246
        12         0.0579      0.0694     -0.0069      0.0082      0.0152
        13        -0.0186     -0.0334     -0.1655      0.0289      0.0519
        14        -0.0071     -0.0077      0.0218      0.0006      0.0010
        15        -0.0418      0.0354     -0.0396      0.0046      0.0081
 Ground to excited state transition magnetic dipole moments (Au):
       state          X           Y           Z
         1        -0.0134      0.0083      0.5875
         2         0.1269     -0.2392     -0.0135
         3        -0.5686      0.2227     -0.0248
         4        -0.4549      0.5782     -0.0259
         5        -0.5910     -0.6657     -0.0515
         6         0.4686     -0.5313     -0.0132
         7         0.0450     -0.1106     -0.0076
         8         0.4128      0.3602     -0.1218
         9        -0.1809     -0.1566     -0.1836
        10        -0.1584      0.3296     -0.0269
        11         0.0153      0.0427      0.2480
        12         0.0179     -0.0210     -0.0691
        13         0.0742     -0.0108      0.0294
        14         0.2186     -0.2497     -0.0087
        15         0.0124      0.0210      0.0178
 Ground to excited state transition velocity quadrupole moments (Au):
       state          XX          YY          ZZ          XY          XZ          YZ
         1         0.2810     -0.2893     -0.0015     -0.0604     -0.0201      0.0455
         2        -0.0035     -0.0058      0.0182     -0.0193      0.1873      0.1030
         3         0.0183     -0.0269     -0.0099      0.0023      0.1361      0.0062
         4        -0.0363      0.0358     -0.0089      0.0201      0.1065      0.2006
         5        -0.0187      0.0236      0.0046     -0.0065     -0.1443      0.0524
         6         0.0145      0.0302     -0.0181      0.0010      0.3800      0.3650
         7        -0.0189     -0.0604      0.0122      0.2630      0.0021      0.0019
         8        -0.1288      0.0020     -0.0090     -0.0129     -0.2547      0.1941
         9        -0.2245     -0.0550     -0.0339     -0.0472      0.0988     -0.0825
        10         0.0471      0.0850      0.0022     -0.0136     -0.1141     -0.0336
        11         0.0854     -0.3900     -0.0728     -0.1138      0.0027      0.0305
        12        -0.4653     -0.1888     -0.1132     -0.1452      0.0499      0.0468
        13         0.0735      0.0490      0.0108      0.0374     -0.0600      0.1689
        14         0.1143      0.0565      0.0700      0.0567      0.2903      0.2253
        15         0.0026     -0.2842      0.0146     -0.1553     -0.0855      0.0065
 <0|del|b> * <b|rxdel|0> + <0|del|b> * <b|delr+rdel|0>
 Rotatory Strengths (R) in cgs (10**-40 erg-esu-cm/Gauss)
       state          XX          YY          ZZ    R(velocity)    E-M Angle
         1         6.2943      7.1912     19.5472     11.0109       85.70
         2        -6.1490     -2.3151     -1.3156     -3.2599      100.47
         3         4.5843     -2.4766    -10.1820     -2.6914       91.72
         4         1.1915    -12.2141    -11.1880     -7.4035       95.86
         5       -11.2116     -3.6123    -24.0112    -12.9450      138.07
         6       -14.2709      0.3618     -2.2810     -5.3967      126.61
         7        21.3686     11.2618     30.9090     21.1798       23.26
         8        38.6086     38.4379     17.7201     31.5888       17.63
         9       -23.0622    -22.5841    -14.4363    -20.0275      138.81
        10         6.5512      1.0264      3.3164      3.6314       50.28
        11        -1.1978      0.2779     -1.8401     -0.9200       92.76
        12        -3.3728      3.1521      0.3298      0.0364       90.00
        13       -12.1172     -3.0431      3.9398     -3.7402      115.46
        14         4.9368     -4.3477     -0.2509      0.1127       88.73
        15         8.6660     -7.1830     -2.3781     -0.2984      103.48
 1/2[<0|r|b>*<b|rxdel|0> + (<0|rxdel|b>*<b|r|0>)*]
 Rotatory Strengths (R) in cgs (10**-40 erg-esu-cm/Gauss)
       state          XX          YY          ZZ     R(length)
         1        12.3805     -6.2485     34.4765     13.5362
         2         2.7957      0.5932      0.1986      1.1959
         3       -11.0559      0.6109      2.3948     -2.6834
         4       -30.9588     15.7211     -1.0489     -5.4288
         5       -33.1391    -48.1291      5.9404    -25.1093
         6         6.0082     -9.9454     -0.1337     -1.3570
         7        18.3020     41.8779      0.0801     20.0867
         8        74.4969     57.4036    -12.0274     39.9577
         9       -50.4243    -34.1939     13.6367    -23.6605
        10        -0.9880     11.5224      0.3666      3.6337
        11        -7.4116    -17.7169      1.0989     -8.0099
        12         3.7609     -8.0998      0.1830     -1.3853
        13        -5.3842      1.1428      1.8723     -0.7897
        14        -0.6396     19.8165      0.1428      6.4399
        15        -2.5773     -0.8858      0.3528     -1.0368
  1/2[<0|del|b>*<b|r|0> + (<0|r|b>*<b|del|0>)*] (Au)
       state          X           Y           Z        Dip. S.   Osc.(frdel)
         1        -0.1938     -0.1357     -0.0011      0.3306      0.2204
         2         0.0001      0.0000     -0.0013      0.0011      0.0007
         3        -0.0003      0.0000     -0.0200      0.0203      0.0135
         4        -0.0014     -0.0001     -0.0057      0.0072      0.0048
         5        -0.0005     -0.0019     -0.0020      0.0044      0.0029
         6         0.0000     -0.0003     -0.0001      0.0005      0.0003
         7        -0.1035     -0.0954     -0.0001      0.1989      0.1326
         8        -0.0134     -0.0113      0.0059      0.0189      0.0126
         9        -0.0337     -0.0286     -0.0008      0.0631      0.0421
        10         0.0000     -0.0006     -0.0004      0.0009      0.0006
        11        -0.0613     -0.0416     -0.0001      0.1029      0.0686
        12        -0.0172     -0.0379      0.0000      0.0551      0.0367
        13        -0.0019     -0.0050      0.0149     -0.0080     -0.0053
        14         0.0000     -0.0009      0.0005      0.0004      0.0003
        15        -0.0123      0.0021      0.0011      0.0091      0.0061

 Excitation energies and oscillator strengths:
 
 Excited State   1:      Singlet-A      5.0415 eV  245.93 nm  f=0.3499  <S**2>=0.000
      13 -> 14         0.69841
 This state for optimization and/or second-order correction.
 Total Energy, E(CIS) =   2.78903531905    
 Copying the excited state density for this state as the 1-particle RhoCI density.
 
 Excited State   2:      Singlet-A      6.0929 eV  203.49 nm  f=0.0002  <S**2>=0.000
      13 -> 15         0.66619
      13 -> 17        -0.13368
      13 -> 19         0.12954
 
 Excited State   3:      Singlet-A      6.4402 eV  192.52 nm  f=0.0031  <S**2>=0.000
      12 -> 14         0.41006
      13 -> 16         0.54351
 
 Excited State   4:      Singlet-A      6.4999 eV  190.75 nm  f=0.0022  <S**2>=0.000
      12 -> 14         0.56327
      13 -> 16        -0.39891
 
 Excited State   5:      Singlet-A      7.4950 eV  165.42 nm  f=0.0080  <S**2>=0.000
      10 -> 14         0.66078
      11 -> 14        -0.22389
 
 Excited State   6:      Singlet-A      7.8086 eV  158.78 nm  f=0.0002  <S**2>=0.000
      13 -> 15         0.11714
      13 -> 17         0.67019
      13 -> 21        -0.12198
 
 Excited State   7:      Singlet-A      8.4243 eV  147.18 nm  f=0.1276  <S**2>=0.000
      10 -> 14         0.21898
      11 -> 14         0.65845
 
 Excited State   8:      Singlet-A      9.1223 eV  135.91 nm  f=0.0303  <S**2>=0.000
       7 -> 16        -0.10114
      11 -> 15         0.25146
      11 -> 16        -0.12410
      12 -> 15         0.26348
      13 -> 18         0.55575
 
 Excited State   9:      Singlet-A      9.1867 eV  134.96 nm  f=0.0589  <S**2>=0.000
       8 -> 15         0.11943
       9 -> 16         0.11377
      10 -> 16         0.16936
      10 -> 18        -0.14199
      11 -> 15        -0.14562
      12 -> 15         0.49027
      12 -> 17        -0.25336
      13 -> 18        -0.24388
 
 Excited State  10:      Singlet-A      9.3602 eV  132.46 nm  f=0.0007  <S**2>=0.000
      11 -> 16        -0.26759
      12 -> 16        -0.11698
      13 -> 19         0.61065
 
 Excited State  11:      Singlet-A      9.7255 eV  127.48 nm  f=0.1936  <S**2>=0.000
      10 -> 16         0.30605
      10 -> 18        -0.13695
      11 -> 16        -0.12992
      12 -> 15        -0.18312
      12 -> 16         0.45885
      12 -> 17        -0.21557
      12 -> 18        -0.11846
      12 -> 19        -0.13351
 
 Excited State  12:      Singlet-A      9.8384 eV  126.02 nm  f=0.0929  <S**2>=0.000
       9 -> 15         0.11772
      10 -> 15        -0.32077
      10 -> 16        -0.14980
      10 -> 18         0.11782
      11 -> 15         0.12815
      12 -> 15         0.25370
      12 -> 16         0.36912
      12 -> 17         0.26819
      13 -> 19         0.11442
 
 Excited State  13:      Singlet-A     10.0832 eV  122.96 nm  f=0.0101  <S**2>=0.000
      11 -> 15         0.55713
      11 -> 16        -0.12435
      13 -> 16        -0.12713
      13 -> 18        -0.30423
 
 Excited State  14:      Singlet-A     10.1503 eV  122.15 nm  f=0.0033  <S**2>=0.000
       7 -> 15        -0.10788
      10 -> 15         0.19071
      10 -> 16         0.14519
      11 -> 15         0.13025
      11 -> 16         0.53511
      13 -> 15        -0.13712
      13 -> 19         0.26164
 
 Excited State  15:      Singlet-A     10.2375 eV  121.11 nm  f=0.0229  <S**2>=0.000
       8 -> 15         0.19568
       8 -> 16         0.12424
       9 -> 15         0.15374
      10 -> 15         0.45316
      10 -> 19         0.17447
      11 -> 16        -0.13688
      12 -> 16         0.18038
      12 -> 17         0.25725
 SavETr:  write IOETrn=   770 NScale= 10 NData=  16 NLR=1 NState=   15 LETran=     280.
 The selected state is a singlet
 CISAX will form     1 AO SS matrices at one time.
 NMat=     1 NSing=     1 JSym2X= 0.
 Leave Link  914 at Tue Dec 15 17:07:36 2015, MaxMem=    33554432 cpu:         0.1
 (Enter /home/Applications/g09/g09/l1002.exe)
 Minotr:  Closed shell wavefunction.
          Computing CIS/TD-HF/TD-KS derivatives.
          Using Z-Vector for PSCF gradient.
          Skipping F1 and S1 gradient terms here.
          IDoAtm=111111111
          Direct CPHF calculation.
          Differentiating once with respect to electric field.
                with respect to dipole field.
          Differentiating once with respect to nuclear coordinates.
          Electric field/nuclear overlap derivatives assumed to be zero.
          Requested convergence is 1.0D-10 RMS, and 1.0D-09 maximum.
          NewPWx=T KeepS1=F KeepF1=F KeepIn=T MapXYZ=F SortEE=F KeepMc=T.
          MDV=      33495423 using IRadAn=       0.
 Keep J ints in memory in canonical form, NReq=871704.
 FoFCou: FMM=F IPFlag=           0 FMFlag=           0 FMFlg1=           0
         NFxFlg=           0 DoJE=F BraDBF=F KetDBF=F FulRan=T
         wScrn=  0.000000 ICntrl=     600 IOpCl=  2 I1Cent=           0 NGrid=           0
         NMat0=    1 NMatS0=     54 NMatT0=    0 NMatD0=    1 NMtDS0=    0 NMtDT0=    0
 Symmetry not used in FoFCou.
          Solving linear equations separately, MaxMat=       0.
          There are     1 degrees of freedom in the 1st order CPHF.  IDoFFX=0 NUNeed=     1.
 LinEq1:  Iter=  0 NonCon=     1 RMS=7.25D-03 Max=5.13D-02 NDo=     1
 AX will form     1 AO Fock derivatives at one time.
 LinEq1:  Iter=  1 NonCon=     1 RMS=6.76D-04 Max=2.34D-03 NDo=     1
 LinEq1:  Iter=  2 NonCon=     1 RMS=9.88D-05 Max=8.88D-04 NDo=     1
 LinEq1:  Iter=  3 NonCon=     1 RMS=1.13D-05 Max=3.38D-05 NDo=     1
 LinEq1:  Iter=  4 NonCon=     1 RMS=1.90D-06 Max=8.67D-06 NDo=     1
 LinEq1:  Iter=  5 NonCon=     1 RMS=2.05D-07 Max=8.79D-07 NDo=     1
 LinEq1:  Iter=  6 NonCon=     1 RMS=2.88D-08 Max=1.45D-07 NDo=     1
 LinEq1:  Iter=  7 NonCon=     1 RMS=3.55D-09 Max=1.49D-08 NDo=     1
 LinEq1:  Iter=  8 NonCon=     1 RMS=3.47D-10 Max=1.10D-09 NDo=     1
 LinEq1:  Iter=  9 NonCon=     0 RMS=3.29D-11 Max=1.26D-10 NDo=     1
 Linear equations converged to 1.000D-10 1.000D-09 after     9 iterations.
 End of Minotr F.D. properties file   721 does not exist.
 End of Minotr F.D. properties file   722 does not exist.
 End of Minotr F.D. properties file   788 does not exist.
 Leave Link 1002 at Tue Dec 15 17:07:36 2015, MaxMem=    33554432 cpu:         0.0
 (Enter /home/Applications/g09/g09/l601.exe)
 Copying SCF densities to generalized density rwf, IOpCl= 0 IROHF=0.

 **********************************************************************

            Population analysis using the SCF density.

 **********************************************************************

 Orbital symmetries:
       Occupied  (A) (A) (A) (A) (A) (A) (A) (A) (A) (A) (A) (A)
                 (A)
       Virtual   (A) (A) (A) (A) (A) (A) (A) (A) (A) (A) (A)
 The electronic state is 1-A.
 Alpha  occ. eigenvalues --   -1.83535  -1.11689  -0.86233  -0.78509  -0.74176
 Alpha  occ. eigenvalues --   -0.66507  -0.62216  -0.54287  -0.53771  -0.44413
 Alpha  occ. eigenvalues --   -0.43885  -0.41414  -0.29003
 Alpha virt. eigenvalues --    0.09578   0.16970   0.18094   0.26033   0.28547
 Alpha virt. eigenvalues --    0.30166   0.36292   0.41028   0.47938   0.56071
 Alpha virt. eigenvalues --    0.59255
     Molecular Orbital Coefficients:
                           1         2         3         4         5
                           O         O         O         O         O
     Eigenvalues --    -1.83535  -1.11689  -0.86233  -0.78509  -0.74176
   1 1   C  1S          0.06942   0.43898   0.26081   0.19912   0.20458
   2        1PX         0.02052  -0.07118   0.26111   0.16117  -0.34412
   3        1PY        -0.10531  -0.22142   0.02013   0.10599   0.20301
   4        1PZ         0.00210   0.01287   0.00162   0.00484   0.00772
   5 2   C  1S          0.22185   0.22542   0.48640  -0.14626  -0.38081
   6        1PX        -0.10475  -0.30064   0.05181  -0.19921  -0.15055
   7        1PY        -0.24487   0.11937   0.03580   0.49467   0.12918
   8        1PZ        -0.00755  -0.00907  -0.02833  -0.00219   0.02192
   9 3   O  1S          0.85510  -0.26337  -0.02650  -0.03206   0.26535
  10        1PX        -0.02434  -0.09393   0.13990  -0.23595   0.06137
  11        1PY         0.03723   0.12184   0.12726  -0.14098  -0.12968
  12        1PZ        -0.00006  -0.00001  -0.00333  -0.00951   0.00101
  13 4   C  1S          0.21357   0.27831  -0.46907   0.18805  -0.34030
  14        1PX         0.25414  -0.04289   0.08791   0.47041  -0.00944
  15        1PY         0.02376   0.34073   0.10229  -0.32095   0.15536
  16        1PZ         0.00794   0.01146  -0.02597  -0.00049  -0.01342
  17 5   C  1S          0.06583   0.46707  -0.23976  -0.23614   0.17006
  18        1PX         0.09432   0.22636   0.11578   0.20282  -0.06429
  19        1PY        -0.04484  -0.02085   0.25818   0.07115   0.39788
  20        1PZ        -0.00189  -0.01397   0.00112   0.00532  -0.00317
  21 6   H  1S          0.00304   0.14316  -0.14962  -0.20422   0.16117
  22 7   H  1S          0.04738   0.04034  -0.29942   0.10093  -0.24472
  23 8   H  1S          0.04418   0.02634   0.27868  -0.07802  -0.25320
  24 9   H  1S          0.00313   0.12693   0.13932   0.14509   0.20262
                           6         7         8         9        10
                           O         O         O         O         O
     Eigenvalues --    -0.66507  -0.62216  -0.54287  -0.53771  -0.44413
   1 1   C  1S          0.19702   0.00436  -0.13976  -0.12606   0.09424
   2        1PX         0.09005   0.01868   0.31710  -0.24393  -0.21907
   3        1PY         0.23782   0.01577  -0.14628  -0.00020   0.29947
   4        1PZ        -0.01045   0.38540  -0.00391   0.00471   0.02539
   5 2   C  1S          0.12721   0.03222  -0.15823  -0.05922  -0.12093
   6        1PX         0.33665  -0.00665  -0.04886   0.58519   0.22290
   7        1PY         0.37559   0.00871   0.51371   0.11207  -0.13899
   8        1PZ        -0.02901   0.56370  -0.00868   0.01851   0.20246
   9 3   O  1S          0.20136   0.00432   0.23478  -0.07683   0.03964
  10        1PX         0.09097   0.00476   0.01574  -0.12078   0.06875
  11        1PY        -0.14929  -0.00087  -0.10765  -0.05294  -0.01384
  12        1PZ        -0.00639   0.19486  -0.00193  -0.00265   0.01401
  13 4   C  1S          0.10369  -0.02163  -0.09378   0.13839   0.08278
  14        1PX        -0.35927  -0.01943  -0.18568   0.51675  -0.24129
  15        1PY        -0.21917  -0.01891   0.45808   0.26767   0.15841
  16        1PZ        -0.00613   0.57977   0.01640   0.02342  -0.15387
  17 5   C  1S          0.16817   0.00426  -0.03318   0.15898  -0.09217
  18        1PX        -0.22523   0.00447   0.01213   0.01845   0.52872
  19        1PY        -0.00034   0.00145  -0.38695   0.05435  -0.21559
  20        1PZ        -0.00866   0.39538   0.00166   0.00526  -0.09246
  21 6   H  1S          0.22493   0.00135  -0.09006   0.09213  -0.44118
  22 7   H  1S          0.27359   0.00591  -0.23364  -0.21874   0.05569
  23 8   H  1S          0.31855   0.00832  -0.02402   0.30730   0.01720
  24 9   H  1S          0.24480   0.01057  -0.18031  -0.06846   0.25798
                          11        12        13        14        15
                           O         O         O         V         V
     Eigenvalues --    -0.43885  -0.41414  -0.29003   0.09578   0.16970
   1 1   C  1S         -0.02756  -0.02225  -0.01792   0.01964  -0.03381
   2        1PX         0.02811   0.27181  -0.00597   0.00440   0.25412
   3        1PY        -0.17835   0.53087   0.03642  -0.02339   0.05459
   4        1PZ         0.18538   0.00108   0.61419  -0.66140  -0.00108
   5 2   C  1S          0.05023   0.04556  -0.01506  -0.00420   0.00291
   6        1PX        -0.03429  -0.13649   0.00818   0.00812   0.19504
   7        1PY         0.08853  -0.19499  -0.01234  -0.00131   0.00421
   8        1PZ         0.65754   0.12257  -0.34680   0.19613   0.00017
   9 3   O  1S          0.01085  -0.09357  -0.00005   0.00105   0.00447
  10        1PX        -0.00504  -0.07649   0.00424   0.00388   0.02037
  11        1PY        -0.01633   0.10311   0.00353  -0.00376   0.04807
  12        1PZ         0.01301   0.00519  -0.15208  -0.00511  -0.00094
  13 4   C  1S         -0.02447   0.13272   0.01625  -0.00487  -0.07008
  14        1PX         0.02466   0.21722  -0.00582  -0.00019   0.09857
  15        1PY        -0.07641   0.24660   0.01754  -0.00276   0.46898
  16        1PZ        -0.62504  -0.09882  -0.40116  -0.21891   0.00588
  17 5   C  1S          0.02851  -0.04575   0.01499   0.01935  -0.06569
  18        1PX        -0.08827  -0.36335   0.02533   0.02235  -0.00530
  19        1PY         0.09866  -0.29312  -0.02219  -0.00768   0.36651
  20        1PZ        -0.20946  -0.03721   0.56035   0.68849   0.00268
  21 6   H  1S          0.09319   0.17442  -0.01072   0.00502  -0.04381
  22 7   H  1S          0.01444  -0.14067   0.00156   0.00524   0.65788
  23 8   H  1S          0.02164  -0.10362  -0.00335  -0.00155  -0.27661
  24 9   H  1S         -0.13603   0.35644   0.01401   0.00561  -0.07728
                          16        17        18        19        20
                           V         V         V         V         V
     Eigenvalues --     0.18094   0.26033   0.28547   0.30166   0.36292
   1 1   C  1S         -0.15645   0.04638  -0.08354  -0.09763   0.49185
   2        1PX        -0.31693  -0.27328   0.14431   0.41090   0.21657
   3        1PY         0.22093  -0.48033  -0.24911  -0.19954   0.06017
   4        1PZ        -0.01604   0.01550   0.01335   0.00314   0.01520
   5 2   C  1S         -0.04822   0.04333  -0.33396  -0.36428  -0.29540
   6        1PX        -0.46714   0.07670  -0.06544  -0.02041   0.05506
   7        1PY         0.07848   0.05429  -0.14343  -0.20135  -0.23840
   8        1PZ         0.00369  -0.00027   0.00321   0.00749   0.00632
   9 3   O  1S          0.01233  -0.00074  -0.01572  -0.00118  -0.03486
  10        1PX        -0.06926   0.00393   0.00732  -0.04993   0.09508
  11        1PY         0.06452   0.00712  -0.01569  -0.03525  -0.13903
  12        1PZ         0.00203  -0.00528   0.00207   0.00214   0.00017
  13 4   C  1S         -0.03919  -0.11817  -0.32537   0.34282  -0.25809
  14        1PX         0.00020   0.09601   0.12578  -0.18075   0.19336
  15        1PY         0.21022   0.06215  -0.00374   0.04607  -0.09254
  16        1PZ        -0.00251   0.00084  -0.00166   0.00535  -0.00472
  17 5   C  1S         -0.11669  -0.08356  -0.10273   0.09303   0.34219
  18        1PX        -0.17573  -0.45818   0.32920  -0.09109  -0.17717
  19        1PY         0.07185  -0.19492  -0.20655   0.44013  -0.24045
  20        1PZ         0.01526   0.01058  -0.01703   0.00352  -0.01079
  21 6   H  1S         -0.17787  -0.35905   0.47782  -0.24734  -0.27632
  22 7   H  1S          0.25106   0.14480   0.23751  -0.21479   0.10996
  23 8   H  1S          0.61189  -0.09066   0.29867   0.26711   0.14082
  24 9   H  1S         -0.15957   0.49117   0.33986   0.25034  -0.32140
                          21        22        23        24
                           V         V         V         V
     Eigenvalues --     0.41028   0.47938   0.56071   0.59255
   1 1   C  1S         -0.52602  -0.00424   0.07021  -0.00112
   2        1PX         0.11690  -0.00046   0.02650  -0.00897
   3        1PY         0.12192  -0.00117   0.02765  -0.00053
   4        1PZ        -0.01721   0.01249   0.00115  -0.00033
   5 2   C  1S          0.17487   0.00224  -0.15977  -0.19984
   6        1PX        -0.10709   0.00460   0.15559  -0.01422
   7        1PY         0.10778   0.00282   0.08049   0.18715
   8        1PZ        -0.00247  -0.17971   0.00501   0.00127
   9 3   O  1S         -0.00538  -0.00004   0.11637   0.00779
  10        1PX         0.03596  -0.02731  -0.57206   0.72918
  11        1PY        -0.00169  -0.01766   0.72668   0.57216
  12        1PZ        -0.00778   0.96811  -0.00316   0.03134
  13 4   C  1S         -0.26392  -0.00231  -0.17155   0.17811
  14        1PX         0.13090   0.00461  -0.13579   0.16447
  15        1PY        -0.16582   0.00222  -0.10921  -0.07527
  16        1PZ        -0.00431  -0.16983  -0.00527   0.00183
  17 5   C  1S          0.63426   0.00576   0.07130   0.00644
  18        1PX         0.14101  -0.00168  -0.02563  -0.00448
  19        1PY         0.00686  -0.00094  -0.01831  -0.00990
  20        1PZ        -0.02177   0.01634  -0.00140  -0.00059
  21 6   H  1S         -0.24249  -0.00305  -0.03498   0.00227
  22 7   H  1S          0.06703   0.00121  -0.00422  -0.00113
  23 8   H  1S         -0.04224  -0.00267  -0.00891   0.00502
  24 9   H  1S          0.19323   0.00232  -0.03568  -0.00386
     Density Matrix:
                           1         2         3         4         5
   1 1   C  1S          0.86353
   2        1PX        -0.04627   1.01853
   3        1PY         0.10290   0.02981   1.19164
   4        1PZ        -0.01082  -0.00437   0.00139   1.12235
   5 2   C  1S          0.35089   0.47937  -0.24782   0.01795   1.13648
   6        1PX        -0.34401  -0.32502   0.22931  -0.01017   0.00265
   7        1PY         0.29361   0.36131  -0.13670   0.01503  -0.31769
   8        1PZ        -0.01555  -0.00927   0.01101   0.26363   0.01715
   9 3   O  1S          0.01363   0.02097  -0.01582   0.00286   0.01147
  10        1PX        -0.00330  -0.01943   0.02819   0.00378   0.11377
  11        1PY         0.04750   0.08624  -0.07146   0.00093   0.34855
  12        1PZ         0.00240  -0.00007   0.00013  -0.03102   0.01356
  13 4   C  1S          0.00743  -0.05581  -0.00899   0.00168  -0.00452
  14        1PX        -0.04947   0.01054   0.02441  -0.00629   0.03423
  15        1PY         0.03197  -0.02460  -0.01045  -0.00076  -0.01846
  16        1PZ         0.00831  -0.00290  -0.00615  -0.28541  -0.00087
  17 5   C  1S          0.28774  -0.43338  -0.23445   0.03759   0.00136
  18        1PX         0.34970  -0.33442  -0.24487   0.04025   0.01252
  19        1PY         0.36337  -0.44594  -0.15837   0.00934   0.05006
  20        1PZ        -0.03718   0.01990   0.03498   0.91051  -0.00200
  21 6   H  1S          0.02762  -0.04315  -0.02765   0.00099   0.06451
  22 7   H  1S          0.07009  -0.05125  -0.04014   0.00587   0.04974
  23 8   H  1S          0.10157   0.12262  -0.07809   0.00449   0.55970
  24 9   H  1S          0.52921  -0.00142   0.81382  -0.00729   0.08152
                           6         7         8         9        10
   6        1PX         1.38831
   7        1PY         0.06597   1.63960
   8        1PZ        -0.00013   0.00718   1.85817
   9 3   O  1S         -0.02553  -0.04398  -0.00117   1.96946
  10        1PX         0.12184  -0.15082  -0.00727   0.13042   0.24436
  11        1PY        -0.15774  -0.42698  -0.01172  -0.19033   0.02626
  12        1PZ        -0.00520  -0.01321   0.34981   0.00028   0.00467
  13 4   C  1S          0.01070  -0.04093   0.00151   0.00832  -0.35069
  14        1PX         0.00973  -0.02374   0.00279   0.04672  -0.46578
  15        1PY         0.01187   0.01114   0.00117   0.00907   0.02866
  16        1PZ         0.00164   0.00116   0.02486   0.00124  -0.01511
  17 5   C  1S         -0.00443   0.04850  -0.00733   0.01428  -0.04037
  18        1PX         0.00475   0.02613  -0.00586   0.00899  -0.03394
  19        1PY        -0.02151   0.01530  -0.00007  -0.02305   0.08226
  20        1PZ        -0.00487  -0.00533  -0.26420  -0.00301   0.00095
  21 6   H  1S         -0.05219   0.03008   0.00134   0.00491  -0.02528
  22 7   H  1S         -0.01851  -0.03994  -0.00294   0.00449  -0.04697
  23 8   H  1S          0.72190   0.18518  -0.01266   0.00863   0.07764
  24 9   H  1S         -0.05192  -0.01703  -0.00045   0.00466   0.00932
                          11        12        13        14        15
  11        1PY         0.23380
  12        1PZ         0.00301   0.12329
  13 4   C  1S          0.00017  -0.01319   1.11751
  14        1PX         0.04385  -0.01668   0.30605   1.66508
  15        1PY         0.14864  -0.00235  -0.08309  -0.01260   1.35241
  16        1PZ        -0.00333   0.32640  -0.01401   0.00344  -0.00870
  17 5   C  1S          0.01255  -0.00167   0.36508  -0.19268   0.40202
  18        1PX         0.02732   0.00074   0.12986  -0.00051   0.15449
  19        1PY        -0.04617  -0.00025  -0.54856   0.26569  -0.43961
  20        1PZ         0.00273  -0.02481  -0.01996   0.01278  -0.01657
  21 6   H  1S          0.00034  -0.00215   0.09217   0.02817   0.04805
  22 7   H  1S         -0.06709   0.00044   0.53909  -0.35586  -0.67753
  23 8   H  1S          0.02324  -0.00227   0.04451   0.04567   0.00195
  24 9   H  1S          0.01703   0.00190   0.06756  -0.00874   0.05423
                          16        17        18        19        20
  16        1PZ         1.84618
  17 5   C  1S          0.01885   0.86192
  18        1PX         0.01053  -0.08845   1.18009
  19        1PY        -0.01506   0.06692  -0.02113   1.05556
  20        1PZ         0.30661   0.00989  -0.00155  -0.00451   1.04894
  21 6   H  1S          0.00054   0.53843  -0.78318   0.20209   0.00784
  22 7   H  1S          0.00065   0.09810   0.05199  -0.12281  -0.00663
  23 8   H  1S          0.00388   0.06148   0.04253   0.03581  -0.00358
  24 9   H  1S         -0.00075   0.03768   0.04453   0.03257  -0.00173
                          21        22        23        24
  21 6   H  1S          0.82325
  22 7   H  1S          0.01065   0.72804
  23 8   H  1S          0.03173   0.03048   0.71714
  24 9   H  1S          0.00180   0.03007   0.01112   0.81435
    Full Mulliken population analysis:
                           1         2         3         4         5
   1 1   C  1S          0.86353
   2        1PX         0.00000   1.01853
   3        1PY         0.00000   0.00000   1.19164
   4        1PZ         0.00000   0.00000   0.00000   1.12235
   5 2   C  1S          0.00000   0.00000   0.00000   0.00000   1.13648
   6        1PX         0.00000   0.00000   0.00000   0.00000   0.00000
   7        1PY         0.00000   0.00000   0.00000   0.00000   0.00000
   8        1PZ         0.00000   0.00000   0.00000   0.00000   0.00000
   9 3   O  1S          0.00000   0.00000   0.00000   0.00000   0.00000
  10        1PX         0.00000   0.00000   0.00000   0.00000   0.00000
  11        1PY         0.00000   0.00000   0.00000   0.00000   0.00000
  12        1PZ         0.00000   0.00000   0.00000   0.00000   0.00000
  13 4   C  1S          0.00000   0.00000   0.00000   0.00000   0.00000
  14        1PX         0.00000   0.00000   0.00000   0.00000   0.00000
  15        1PY         0.00000   0.00000   0.00000   0.00000   0.00000
  16        1PZ         0.00000   0.00000   0.00000   0.00000   0.00000
  17 5   C  1S          0.00000   0.00000   0.00000   0.00000   0.00000
  18        1PX         0.00000   0.00000   0.00000   0.00000   0.00000
  19        1PY         0.00000   0.00000   0.00000   0.00000   0.00000
  20        1PZ         0.00000   0.00000   0.00000   0.00000   0.00000
  21 6   H  1S          0.00000   0.00000   0.00000   0.00000   0.00000
  22 7   H  1S          0.00000   0.00000   0.00000   0.00000   0.00000
  23 8   H  1S          0.00000   0.00000   0.00000   0.00000   0.00000
  24 9   H  1S          0.00000   0.00000   0.00000   0.00000   0.00000
                           6         7         8         9        10
   6        1PX         1.38831
   7        1PY         0.00000   1.63960
   8        1PZ         0.00000   0.00000   1.85817
   9 3   O  1S          0.00000   0.00000   0.00000   1.96946
  10        1PX         0.00000   0.00000   0.00000   0.00000   0.24436
  11        1PY         0.00000   0.00000   0.00000   0.00000   0.00000
  12        1PZ         0.00000   0.00000   0.00000   0.00000   0.00000
  13 4   C  1S          0.00000   0.00000   0.00000   0.00000   0.00000
  14        1PX         0.00000   0.00000   0.00000   0.00000   0.00000
  15        1PY         0.00000   0.00000   0.00000   0.00000   0.00000
  16        1PZ         0.00000   0.00000   0.00000   0.00000   0.00000
  17 5   C  1S          0.00000   0.00000   0.00000   0.00000   0.00000
  18        1PX         0.00000   0.00000   0.00000   0.00000   0.00000
  19        1PY         0.00000   0.00000   0.00000   0.00000   0.00000
  20        1PZ         0.00000   0.00000   0.00000   0.00000   0.00000
  21 6   H  1S          0.00000   0.00000   0.00000   0.00000   0.00000
  22 7   H  1S          0.00000   0.00000   0.00000   0.00000   0.00000
  23 8   H  1S          0.00000   0.00000   0.00000   0.00000   0.00000
  24 9   H  1S          0.00000   0.00000   0.00000   0.00000   0.00000
                          11        12        13        14        15
  11        1PY         0.23380
  12        1PZ         0.00000   0.12329
  13 4   C  1S          0.00000   0.00000   1.11751
  14        1PX         0.00000   0.00000   0.00000   1.66508
  15        1PY         0.00000   0.00000   0.00000   0.00000   1.35241
  16        1PZ         0.00000   0.00000   0.00000   0.00000   0.00000
  17 5   C  1S          0.00000   0.00000   0.00000   0.00000   0.00000
  18        1PX         0.00000   0.00000   0.00000   0.00000   0.00000
  19        1PY         0.00000   0.00000   0.00000   0.00000   0.00000
  20        1PZ         0.00000   0.00000   0.00000   0.00000   0.00000
  21 6   H  1S          0.00000   0.00000   0.00000   0.00000   0.00000
  22 7   H  1S          0.00000   0.00000   0.00000   0.00000   0.00000
  23 8   H  1S          0.00000   0.00000   0.00000   0.00000   0.00000
  24 9   H  1S          0.00000   0.00000   0.00000   0.00000   0.00000
                          16        17        18        19        20
  16        1PZ         1.84618
  17 5   C  1S          0.00000   0.86192
  18        1PX         0.00000   0.00000   1.18009
  19        1PY         0.00000   0.00000   0.00000   1.05556
  20        1PZ         0.00000   0.00000   0.00000   0.00000   1.04894
  21 6   H  1S          0.00000   0.00000   0.00000   0.00000   0.00000
  22 7   H  1S          0.00000   0.00000   0.00000   0.00000   0.00000
  23 8   H  1S          0.00000   0.00000   0.00000   0.00000   0.00000
  24 9   H  1S          0.00000   0.00000   0.00000   0.00000   0.00000
                          21        22        23        24
  21 6   H  1S          0.82325
  22 7   H  1S          0.00000   0.72804
  23 8   H  1S          0.00000   0.00000   0.71714
  24 9   H  1S          0.00000   0.00000   0.00000   0.81435
     Gross orbital populations:
                           1
   1 1   C  1S          0.86353
   2        1PX         1.01853
   3        1PY         1.19164
   4        1PZ         1.12235
   5 2   C  1S          1.13648
   6        1PX         1.38831
   7        1PY         1.63960
   8        1PZ         1.85817
   9 3   O  1S          1.96946
  10        1PX         0.24436
  11        1PY         0.23380
  12        1PZ         0.12329
  13 4   C  1S          1.11751
  14        1PX         1.66508
  15        1PY         1.35241
  16        1PZ         1.84618
  17 5   C  1S          0.86192
  18        1PX         1.18009
  19        1PY         1.05556
  20        1PZ         1.04894
  21 6   H  1S          0.82325
  22 7   H  1S          0.72804
  23 8   H  1S          0.71714
  24 9   H  1S          0.81435
          Condensed to atoms (all electrons):
               1          2          3          4          5          6
     1  C    4.196055   0.000000   0.000000   0.000000   0.000000   0.000000
     2  C    0.000000   6.022562   0.000000   0.000000   0.000000   0.000000
     3  O    0.000000   0.000000   2.570910   0.000000   0.000000   0.000000
     4  C    0.000000   0.000000   0.000000   5.981179   0.000000   0.000000
     5  C    0.000000   0.000000   0.000000   0.000000   4.146508   0.000000
     6  H    0.000000   0.000000   0.000000   0.000000   0.000000   0.823245
     7  H    0.000000   0.000000   0.000000   0.000000   0.000000   0.000000
     8  H    0.000000   0.000000   0.000000   0.000000   0.000000   0.000000
     9  H    0.000000   0.000000   0.000000   0.000000   0.000000   0.000000
               7          8          9
     1  C    0.000000   0.000000   0.000000
     2  C    0.000000   0.000000   0.000000
     3  O    0.000000   0.000000   0.000000
     4  C    0.000000   0.000000   0.000000
     5  C    0.000000   0.000000   0.000000
     6  H    0.000000   0.000000   0.000000
     7  H    0.728042   0.000000   0.000000
     8  H    0.000000   0.717144   0.000000
     9  H    0.000000   0.000000   0.814355
 Mulliken charges:
               1
     1  C   -0.196055
     2  C   -2.022562
     3  O    3.429090
     4  C   -1.981179
     5  C   -0.146508
     6  H    0.176755
     7  H    0.271958
     8  H    0.282856
     9  H    0.185645
 Sum of Mulliken charges =   0.00000
 Mulliken charges with hydrogens summed into heavy atoms:
               1
     1  C   -0.010409
     2  C   -1.739706
     3  O    3.429090
     4  C   -1.709221
     5  C    0.030246
 Charge=              0.0000 electrons
 Dipole moment (field-independent basis, Debye):
    X=              6.9051    Y=             -9.6668    Z=             -0.0058  Tot=             11.8797
 N-N= 1.035884920004D+02 E-N=-1.690656041152D+02  KE=-1.431109809363D+01
 Orbital energies and kinetic energies (alpha):
                                 1                 2
   1         O                -1.835353         -1.230253
   2         O                -1.116893         -0.973507
   3         O                -0.862327         -0.800646
   4         O                -0.785094         -0.516467
   5         O                -0.741764         -0.615284
   6         O                -0.665067         -0.541758
   7         O                -0.622157         -0.493675
   8         O                -0.542865         -0.320761
   9         O                -0.537714         -0.348517
  10         O                -0.444129         -0.400947
  11         O                -0.438849         -0.320878
  12         O                -0.414139         -0.332671
  13         O                -0.290027         -0.260185
  14         V                 0.095777         -0.176261
  15         V                 0.169698         -0.177628
  16         V                 0.180940         -0.167071
  17         V                 0.260329         -0.143294
  18         V                 0.285467         -0.143220
  19         V                 0.301665         -0.085942
  20         V                 0.362917         -0.051682
  21         V                 0.410279         -0.038320
  22         V                 0.479377          0.688739
  23         V                 0.560709          0.706442
  24         V                 0.592554          0.759297
 Total kinetic energy from orbitals=-1.431109809363D+01
 Leave Link  601 at Tue Dec 15 17:07:36 2015, MaxMem=    33554432 cpu:         0.0
 (Enter /home/Applications/g09/g09/l701.exe)
 Compute integral first derivatives.
 ... and contract with generalized density number  6.
 Leave Link  701 at Tue Dec 15 17:07:36 2015, MaxMem=    33554432 cpu:         0.0
 (Enter /home/Applications/g09/g09/l702.exe)
 L702 exits ... SP integral derivatives will be done elsewhere.
 Leave Link  702 at Tue Dec 15 17:07:36 2015, MaxMem=    33554432 cpu:         0.0
 (Enter /home/Applications/g09/g09/l703.exe)
 Compute integral first derivatives, UseDBF=F ICtDFT=           0.
 Integral derivatives from FoFJK, PRISM(SPDF).
 Calling FoFJK, ICntrl=  10005127 FMM=F ISym2X=0 I1Cent= 0 IOpClX= 0 NMat=1 NMatS=1 NMatT=0.
 FoFJK:  IHMeth= 8 ICntrl=10005127 DoSepK=F KAlg= 0 I1Cent=   0 FoldK=F
 IRaf=         0 NMat=   1 IRICut=       1 DoRegI=T DoRafI=F ISym2E= 0.
 FoFCou: FMM=F IPFlag=           0 FMFlag=      100000 FMFlg1=         800
         NFxFlg=           0 DoJE=F BraDBF=F KetDBF=F FulRan=T
         wScrn=  0.000000 ICntrl=10005127 IOpCl=  0 I1Cent=           0 NGrid=           0
         NMat0=    1 NMatS0=      1 NMatT0=    0 NMatD0=    1 NMtDS0=    0 NMtDT0=    0
 Symmetry not used in FoFCou.
 Leave Link  703 at Tue Dec 15 17:07:36 2015, MaxMem=    33554432 cpu:         0.0
 (Enter /home/Applications/g09/g09/l716.exe)
 Dipole        = 2.96089907D+00-4.14681870D+00-1.84123335D-02
 ***** Axes restored to original set *****
 -------------------------------------------------------------------
 Center     Atomic                   Forces (Hartrees/Bohr)
 Number     Number              X              Y              Z
 -------------------------------------------------------------------
      1        6           0.026593593    0.009239957    0.010691779
      2        6          -0.126485460   -0.024809675   -0.004030918
      3        8           0.175554910   -0.002195410    0.001208820
      4        6          -0.215187833    0.065494338   -0.001526571
      5        6           0.055743314   -0.052193234   -0.003881434
      6        1           0.053850405    0.037583584    0.004399824
      7        1           0.003325220    0.047198941   -0.003246207
      8        1          -0.001370577   -0.055600289    0.002010348
      9        1           0.027976429   -0.024718212   -0.005625643
 -------------------------------------------------------------------
 Cartesian Forces:  Max     0.215187833 RMS     0.065520970
 Z-matrix is all fixed cartesians, so copy forces.
 Force constants in Cartesian coordinates: 
                1             2             3             4             5 
      1  0.839756D+00
      2 -0.271150D-01  0.748843D+00
      3 -0.176982D-01  0.712497D-02  0.183843D+00
      4 -0.444513D+00 -0.882302D-01  0.218843D-01  0.857134D+00
      5 -0.664583D-01 -0.199820D+00  0.574262D-02 -0.125066D-01  0.891382D+00
      6  0.206831D-01  0.491414D-02 -0.876164D-01 -0.543916D-02 -0.450110D-02
      7 -0.825714D-02  0.283908D-01 -0.132401D-02 -0.291420D+00  0.170721D+00
      8 -0.609459D-02  0.211353D-01 -0.104082D-02  0.215000D+00 -0.376662D+00
      9  0.148004D-02 -0.206931D-02  0.633703D-02 -0.122150D-01  0.145904D-01
     10  0.896890D-02 -0.179285D-03  0.618848D-03  0.228997D-01  0.170471D-01
     11  0.351738D-01 -0.735569D-03  0.304268D-02 -0.189550D-01 -0.141282D-01
     12  0.193014D-02 -0.379517D-03  0.618077D-04  0.117786D-02  0.109421D-02
     13 -0.164189D+00  0.604237D-02  0.986857D-04  0.951507D-02 -0.334040D-01
     14 -0.173777D-01 -0.395895D+00 -0.154695D-01 -0.142423D-03  0.468472D-03
     15  0.155984D-03 -0.150680D-01 -0.795629D-01 -0.651790D-03  0.272404D-02
     16  0.185383D-01 -0.309343D-03 -0.355533D-03  0.895953D-05 -0.562866D-05
     17 -0.223646D-01  0.368268D-03  0.563866D-03 -0.897096D-05  0.563584D-05
     18 -0.209506D-02 -0.615053D-03  0.178590D-01  0.241652D-03 -0.151813D-03
     19  0.299314D-04  0.169060D-04 -0.477712D-03  0.000000D+00  0.689938D-05
     20  0.240419D-04  0.135795D-04 -0.383714D-03  0.000000D+00  0.000000D+00
     21 -0.443305D-03 -0.250390D-03  0.707526D-02  0.881773D-05  0.148514D-03
     22  0.749304D-02 -0.263093D-01 -0.163009D-02 -0.148926D+00 -0.916708D-01
     23 -0.312488D-02  0.107946D-01 -0.363561D-03 -0.886222D-01 -0.323903D+00
     24  0.190067D-03  0.307918D-02  0.220027D-01 -0.682980D-02 -0.168694D-01
     25 -0.257827D+00  0.107693D+00 -0.111635D-02 -0.469926D-02  0.162709D-01
     26  0.107337D+00 -0.184704D+00  0.783416D-03 -0.653453D-02  0.226566D-01
     27 -0.420278D-02  0.326396D-02 -0.699991D-01  0.182310D-02 -0.277748D-02
                6             7             8             9            10 
      6  0.168325D+00
      7 -0.701729D-02  0.551255D+00
      8  0.112003D-01 -0.216253D-01  0.669375D+00
      9 -0.428962D-01  0.487715D-03 -0.224893D-01  0.528590D-01
     10 -0.941942D-03 -0.287045D+00 -0.193282D+00  0.108313D-01  0.974945D+00
     11  0.101121D-02 -0.149873D+00 -0.321825D+00  0.134459D-01 -0.274450D-01
     12 -0.233359D-02  0.609451D-02  0.106712D-01 -0.475001D-01  0.157914D-01
     13 -0.195608D-02 -0.734619D-02  0.603289D-02 -0.149339D-02 -0.562655D+00
     14 -0.319230D-03 -0.280859D-01  0.232368D-01 -0.246559D-02  0.106708D+00
     15  0.336180D-03  0.157833D-02 -0.115219D-02  0.804080D-02 -0.282609D-01
     16  0.150029D-03  0.106799D-04 -0.208020D-04 -0.299841D-03 -0.500113D-02
     17 -0.150220D-03 -0.149315D-04  0.290833D-04  0.419208D-03  0.601238D-02
     18  0.404649D-02 -0.271535D-03  0.528891D-03  0.762345D-02 -0.220474D-02
     19  0.181940D-03  0.202946D-01 -0.168996D-01 -0.106630D-02 -0.152119D+00
     20  0.471424D-05  0.988971D-02 -0.823947D-02 -0.623950D-03  0.911303D-01
     21  0.391639D-02 -0.864498D-03  0.913947D-03  0.492249D-02  0.438804D-02
     22 -0.533554D-02  0.225019D-01  0.168788D-01  0.209265D-02  0.000000D+00
     23 -0.118916D-01 -0.941117D-02 -0.706789D-02 -0.111105D-02  0.000000D+00
     24 -0.647029D-01  0.114175D-02  0.103699D-02  0.508850D-02  0.112128D-04
     25 -0.325035D-03  0.579302D-05  0.109528D-04  0.182863D-03  0.748492D-05
     26 -0.268253D-03  0.962142D-05  0.181910D-04  0.303710D-03  0.837439D-05
     27  0.209248D-01  0.175029D-03  0.330925D-03  0.552497D-02 -0.233135D-03
               11            12            13            14            15 
     11  0.823184D+00
     12 -0.141371D-01  0.195038D+00
     13  0.857943D-01 -0.275922D-01  0.968449D+00
     14 -0.216340D+00  0.729402D-02  0.382919D-01  0.798674D+00
     15  0.826976D-02 -0.106667D+00  0.245631D-01  0.517449D-02  0.211118D+00
     16 -0.193412D-01  0.181254D-03 -0.267032D+00 -0.125617D+00  0.151298D-02
     17  0.232922D-01 -0.243228D-04 -0.128969D+00 -0.222580D+00  0.370361D-03
     18 -0.322549D-02  0.256403D-01  0.478431D-02  0.340070D-02 -0.843053D-01
     19  0.946557D-01  0.289456D-02  0.681916D-02  0.265296D-01  0.511878D-03
     20 -0.293449D+00 -0.429806D-02  0.333227D-02  0.128349D-01 -0.372643D-03
     21 -0.846415D-02 -0.729412D-01 -0.722399D-03  0.322723D-02  0.290580D-01
     22 -0.135757D-04 -0.357998D-03  0.221168D-04 -0.138945D-04  0.370350D-03
     23 -0.329339D-05 -0.868484D-04 -0.239310D-04  0.150342D-04 -0.400729D-03
     24  0.188854D-03  0.498017D-02  0.311296D-03 -0.195566D-03  0.521271D-02
     25  0.422768D-05 -0.119461D-03  0.164176D-01 -0.293470D-03  0.220060D-03
     26  0.473007D-05 -0.133657D-03  0.229034D-01 -0.414800D-03  0.454885D-03
     27 -0.131681D-03  0.372090D-02  0.200669D-02 -0.646605D-03  0.167690D-01
               16            17            18            19            20 
     16  0.253499D+00
     17  0.145310D+00  0.198859D+00
     18 -0.141779D-02 -0.771240D-03  0.465248D-01
     19 -0.303633D-04  0.424509D-04  0.771985D-03  0.125006D+00
     20 -0.243888D-04  0.340979D-04  0.620084D-03 -0.104352D+00  0.288806D+00
     21  0.449702D-03 -0.628728D-03 -0.114336D-01 -0.281635D-02  0.505357D-02
     22  0.000000D+00  0.000000D+00  0.000000D+00  0.000000D+00  0.000000D+00
     23  0.000000D+00  0.000000D+00  0.000000D+00  0.000000D+00  0.000000D+00
     24  0.000000D+00  0.000000D+00  0.000000D+00  0.000000D+00  0.000000D+00
     25  0.708868D-05 -0.709773D-05  0.191192D-03  0.000000D+00  0.000000D+00
     26  0.793106D-05 -0.794118D-05  0.213912D-03  0.000000D+00  0.000000D+00
     27 -0.220794D-03  0.221075D-03 -0.595513D-02  0.000000D+00  0.000000D+00
               21            22            23            24            25 
     21  0.394027D-01
     22  0.000000D+00  0.118929D+00
     23  0.000000D+00  0.101161D+00  0.320129D+00
     24  0.000000D+00  0.545006D-02  0.132160D-01  0.357151D-01
     25  0.000000D+00 -0.195084D-04  0.211087D-04 -0.274583D-03  0.246108D+00
     26  0.000000D+00 -0.324008D-04  0.350586D-04 -0.456044D-03 -0.123700D+00
     27  0.000000D+00 -0.589423D-03  0.637772D-03 -0.829619D-02  0.124131D-02
               26            27 
     26  0.162413D+00
     27 -0.897969D-03  0.373107D-01
 Leave Link  716 at Tue Dec 15 17:07:36 2015, MaxMem=    33554432 cpu:         0.0
 (Enter /home/Applications/g09/g09/l103.exe)

 GradGradGradGradGradGradGradGradGradGradGradGradGradGradGradGradGradGrad
 Berny optimization.
 Search for a local minimum.
 Step number   1 out of a maximum of    2
 All quantities printed in internal units (Hartrees-Bohrs-Radians)
 Second derivative matrix not updated -- first step.
 ITU=  0
     Eigenvalues ---    0.01805   0.02754   0.06941   0.07504   0.07632
     Eigenvalues ---    0.08277   0.12941   0.13567   0.15285   0.24025
     Eigenvalues ---    0.25846   0.28321   0.38027   0.43149   0.62256
     Eigenvalues ---    0.80701   1.05375   1.30368   1.37433   1.47116
     Eigenvalues ---    1.66614
 Quadratic step=9.844D-01 exceeds max=3.000D-01 adjusted using Lamda=-4.409D-01.
 Angle between NR and scaled steps=  22.92 degrees.
 Angle between quadratic step and forces=  30.13 degrees.
 Linear search not attempted -- first point.
 TrRot=  0.000262 -0.000614  0.000308 -1.242447 -0.000196  1.242973
 Variable       Old X    -DE/DX   Delta X   Delta X   Delta X     New X
                                 (Linear)    (Quad)   (Total)
    X1        1.78189   0.02659   0.00000   0.00045   0.00144   1.78332
    Y1       -1.35616   0.00924   0.00000  -0.02357  -0.02325  -1.37941
    Z1       -0.03550   0.01069   0.00000   0.01631   0.01698  -0.01852
    X2       -0.74487  -0.12649   0.00000  -0.07459  -0.07321  -0.81808
    Y2       -2.08345  -0.02481   0.00000  -0.06484  -0.06587  -2.14932
    Z2        0.08811  -0.00403   0.00000  -0.00625  -0.00560   0.08251
    X3       -2.28076   0.17555   0.00000   0.14197   0.14225  -2.13851
    Y3       -0.02665  -0.00220   0.00000  -0.00063  -0.00237  -0.02902
    Z3        0.01357   0.00121   0.00000   0.00188   0.00206   0.01563
    X4       -0.60567  -0.21519   0.00000  -0.12904  -0.12986  -0.73554
    Y4        1.99000   0.06549   0.00000   0.09177   0.09076   2.08076
    Z4       -0.06667  -0.00153   0.00000   0.00054   0.00042  -0.06626
    X5        1.82914   0.05574   0.00000  -0.00018  -0.00063   1.82850
    Y5        1.36165  -0.05219   0.00000  -0.00597  -0.00561   1.35603
    Z5        0.06364  -0.00388   0.00000  -0.01028  -0.01011   0.05353
    X6        3.38340   0.05385   0.00000   0.07074   0.06958   3.45298
    Y6        2.65091   0.03758   0.00000   0.03773   0.03894   2.68985
    Z6        0.05388   0.00440   0.00000   0.00674   0.00677   0.06065
    X7       -1.51261   0.00333   0.00000  -0.02713  -0.02895  -1.54156
    Y7        3.85461   0.04720   0.00000   0.11259   0.11116   3.96577
    Z7       -0.02678  -0.00325   0.00000  -0.00392  -0.00444  -0.03123
    X8       -1.52604  -0.00137   0.00000  -0.02238  -0.01998  -1.54601
    Y8       -3.96199  -0.05560   0.00000  -0.10384  -0.10527  -4.06726
    Z8       -0.00080   0.00201   0.00000   0.00142   0.00238   0.00158
    X9        3.47364   0.02798   0.00000   0.03773   0.03936   3.51300
    Y9       -2.56978  -0.02472   0.00000  -0.03972  -0.03850  -2.60828
    Z9       -0.02478  -0.00563   0.00000  -0.00947  -0.00845  -0.03323
         Item               Value     Threshold  Converged?
 Maximum Force            0.215188     0.000450     NO 
 RMS     Force            0.065521     0.000300     NO 
 Maximum Displacement     0.142246     0.001800     NO 
 RMS     Displacement     0.057815     0.001200     NO 
 Predicted change in Energy=-6.414006D-02
 GradGradGradGradGradGradGradGradGradGradGradGradGradGradGradGradGradGrad

 Leave Link  103 at Tue Dec 15 17:07:36 2015, MaxMem=    33554432 cpu:         0.0
 (Enter /home/Applications/g09/g09/l9999.exe)
 1\1\GINC-DUSTIN-DESKTOP\Force\RAM1-FC\STO-3G\C4H4O1\DUSTIN\15-Dec-2015
 \0\\#P AM1(Input,print) CIS(Singlets,NStates=15) pop(full) force\\AM1-
 Reparam Input\\0,1\C,0.942933,-0.717648,-0.018785\C,-0.39417,-1.102515
 ,0.046626\O,-1.206924,-0.014102,0.007182\C,-0.320508,1.053065,-0.03528
 2\C,0.967938,0.720553,0.033679\H,1.790418,1.402801,0.028512\H,-0.80043
 9,2.039772,-0.014174\H,-0.807545,-2.096595,-0.000425\H,1.838171,-1.359
 869,-0.013112\\Version=ES64L-G09RevD.01\State=1-A\HF=2.6037622\RMSD=7.
 127e-09\RMSF=6.552e-02\Dipole=-5.0926943,0.1650896,-0.0240402\PG=C01 [
 X(C4H4O1)]\\@


 IN-LAWS ARE LIKE SEEDS. YOU DON'T NEED THEM
 BUT THEY COME WITH THE TOMATO.
 Job cpu time:       0 days  0 hours  0 minutes  0.7 seconds.
 File lengths (MBytes):  RWF=      7 Int=      0 D2E=      0 Chk=      2 Scr=      1
 Normal termination of Gaussian 09 at Tue Dec 15 17:07:37 2015.
