 Entering Gaussian System, Link 0=g09
 Input=FuranAM1_54P9.com
 Output=FuranAM1_54P9.log
 Initial command:
 /home/Applications/g09/g09/l1.exe "/home/Applications/g09/scratch/Gau-9174.inp" -scrdir="/home/Applications/g09/scratch/"
 Entering Link 1 = /home/Applications/g09/g09/l1.exe PID=      9179.
  
 Copyright (c) 1988,1990,1992,1993,1995,1998,2003,2009,2013,
            Gaussian, Inc.  All Rights Reserved.
  
 This is part of the Gaussian(R) 09 program.  It is based on
 the Gaussian(R) 03 system (copyright 2003, Gaussian, Inc.),
 the Gaussian(R) 98 system (copyright 1998, Gaussian, Inc.),
 the Gaussian(R) 94 system (copyright 1995, Gaussian, Inc.),
 the Gaussian 92(TM) system (copyright 1992, Gaussian, Inc.),
 the Gaussian 90(TM) system (copyright 1990, Gaussian, Inc.),
 the Gaussian 88(TM) system (copyright 1988, Gaussian, Inc.),
 the Gaussian 86(TM) system (copyright 1986, Carnegie Mellon
 University), and the Gaussian 82(TM) system (copyright 1983,
 Carnegie Mellon University). Gaussian is a federally registered
 trademark of Gaussian, Inc.
  
 This software contains proprietary and confidential information,
 including trade secrets, belonging to Gaussian, Inc.
  
 This software is provided under written license and may be
 used, copied, transmitted, or stored only in accord with that
 written license.
  
 The following legend is applicable only to US Government
 contracts under FAR:
  
                    RESTRICTED RIGHTS LEGEND
  
 Use, reproduction and disclosure by the US Government is
 subject to restrictions as set forth in subparagraphs (a)
 and (c) of the Commercial Computer Software - Restricted
 Rights clause in FAR 52.227-19.
  
 Gaussian, Inc.
 340 Quinnipiac St., Bldg. 40, Wallingford CT 06492
  
  
 ---------------------------------------------------------------
 Warning -- This program may not be used in any manner that
 competes with the business of Gaussian, Inc. or will provide
 assistance to any competitor of Gaussian, Inc.  The licensee
 of this program is prohibited from giving any competitor of
 Gaussian, Inc. access to this program.  By using this program,
 the user acknowledges that Gaussian, Inc. is engaged in the
 business of creating and licensing software in the field of
 computational chemistry and represents and warrants to the
 licensee that it is not a competitor of Gaussian, Inc. and that
 it will not use this program in any manner prohibited above.
 ---------------------------------------------------------------
  

 Cite this work as:
 Gaussian 09, Revision D.01,
 M. J. Frisch, G. W. Trucks, H. B. Schlegel, G. E. Scuseria, 
 M. A. Robb, J. R. Cheeseman, G. Scalmani, V. Barone, B. Mennucci, 
 G. A. Petersson, H. Nakatsuji, M. Caricato, X. Li, H. P. Hratchian, 
 A. F. Izmaylov, J. Bloino, G. Zheng, J. L. Sonnenberg, M. Hada, 
 M. Ehara, K. Toyota, R. Fukuda, J. Hasegawa, M. Ishida, T. Nakajima, 
 Y. Honda, O. Kitao, H. Nakai, T. Vreven, J. A. Montgomery, Jr., 
 J. E. Peralta, F. Ogliaro, M. Bearpark, J. J. Heyd, E. Brothers, 
 K. N. Kudin, V. N. Staroverov, T. Keith, R. Kobayashi, J. Normand, 
 K. Raghavachari, A. Rendell, J. C. Burant, S. S. Iyengar, J. Tomasi, 
 M. Cossi, N. Rega, J. M. Millam, M. Klene, J. E. Knox, J. B. Cross, 
 V. Bakken, C. Adamo, J. Jaramillo, R. Gomperts, R. E. Stratmann, 
 O. Yazyev, A. J. Austin, R. Cammi, C. Pomelli, J. W. Ochterski, 
 R. L. Martin, K. Morokuma, V. G. Zakrzewski, G. A. Voth, 
 P. Salvador, J. J. Dannenberg, S. Dapprich, A. D. Daniels, 
 O. Farkas, J. B. Foresman, J. V. Ortiz, J. Cioslowski, 
 and D. J. Fox, Gaussian, Inc., Wallingford CT, 2013.
 
 ******************************************
 Gaussian 09:  ES64L-G09RevD.01 24-Apr-2013
                15-Dec-2015 
 ******************************************
 ------------------------------------------------------------
 #P AM1(Input,print) CIS(Singlets,NStates=15) pop(full) force
 ------------------------------------------------------------
 1/10=7,30=1,38=1/1,3;
 2/12=2,17=6,18=5,40=1/2;
 3/5=2,16=1,25=1,41=700000,71=1,135=100,136=1/1,2,8,3;
 4/35=1/1;
 5/5=2,35=1,38=5/2;
 8/6=1,10=1,108=15/1;
 9/15=2,41=15,42=1,48=1,49=10/14;
 10/5=4/2;
 6/7=3,18=1/1;
 7/12=6,13=5,29=1/1,2,3,16;
 1/10=7,30=1/3;
 99//99;
 Leave Link    1 at Tue Dec 15 17:07:20 2015, MaxMem=           0 cpu:         0.0
 (Enter /home/Applications/g09/g09/l101.exe)
 -----------------
 AM1-Reparam Input
 -----------------
 Symbolic Z-matrix:
 Charge =  0 Multiplicity = 1
 6                     0.95962  -0.75789  -0.04703 
 6                    -0.32674  -1.06085   0.03754 
 8                    -1.18828   0.02532  -0.02448 
 6                    -0.33957   1.04699  -0.03084 
 6                     0.92473   0.74416   0.01346 
 1                     1.7796    1.37367  -0.01114 
 1                    -0.82837   2.01015   0.0147 
 1                    -0.81282  -2.08084  -0.0014 
 1                     1.78427  -1.41307  -0.01616 
 
 NAtoms=      9 NQM=        9 NQMF=       0 NMMI=      0 NMMIF=      0
                NMic=       0 NMicF=      0.
                    Isotopes and Nuclear Properties:
 (Nuclear quadrupole moments (NQMom) in fm**2, nuclear magnetic moments (NMagM)
  in nuclear magnetons)

  Atom         1           2           3           4           5           6           7           8           9
 IAtWgt=          12          12          16          12          12           1           1           1           1
 AtmWgt=  12.0000000  12.0000000  15.9949146  12.0000000  12.0000000   1.0078250   1.0078250   1.0078250   1.0078250
 NucSpn=           0           0           0           0           0           1           1           1           1
 AtZEff=   0.0000000   0.0000000   0.0000000   0.0000000   0.0000000   0.0000000   0.0000000   0.0000000   0.0000000
 NQMom=    0.0000000   0.0000000   0.0000000   0.0000000   0.0000000   0.0000000   0.0000000   0.0000000   0.0000000
 NMagM=    0.0000000   0.0000000   0.0000000   0.0000000   0.0000000   2.7928460   2.7928460   2.7928460   2.7928460
 AtZNuc=   6.0000000   6.0000000   8.0000000   6.0000000   6.0000000   1.0000000   1.0000000   1.0000000   1.0000000
 Leave Link  101 at Tue Dec 15 17:07:20 2015, MaxMem=    33554432 cpu:         0.0
 (Enter /home/Applications/g09/g09/l103.exe)

 GradGradGradGradGradGradGradGradGradGradGradGradGradGradGradGradGradGrad
 Berny optimization.
 Initialization pass.
 Trust Radius=3.00D-01 FncErr=1.00D-07 GrdErr=1.00D-07
 Number of steps in this run=      2 maximum allowed number of steps=      2.
 GradGradGradGradGradGradGradGradGradGradGradGradGradGradGradGradGradGrad

 Leave Link  103 at Tue Dec 15 17:07:20 2015, MaxMem=    33554432 cpu:         0.0
 (Enter /home/Applications/g09/g09/l202.exe)
                          Input orientation:                          
 ---------------------------------------------------------------------
 Center     Atomic      Atomic             Coordinates (Angstroms)
 Number     Number       Type             X           Y           Z
 ---------------------------------------------------------------------
      1          6           0        0.959619   -0.757892   -0.047032
      2          6           0       -0.326741   -1.060847    0.037537
      3          8           0       -1.188279    0.025319   -0.024479
      4          6           0       -0.339572    1.046986   -0.030843
      5          6           0        0.924731    0.744158    0.013463
      6          1           0        1.779597    1.373667   -0.011142
      7          1           0       -0.828370    2.010150    0.014697
      8          1           0       -0.812821   -2.080841   -0.001397
      9          1           0        1.784273   -1.413072   -0.016157
 ---------------------------------------------------------------------
                    Distance matrix (angstroms):
                    1          2          3          4          5
     1  C    0.000000
     2  C    1.324257   0.000000
     3  O    2.286349   1.387750   0.000000
     4  C    2.223903   2.108981   1.328212   0.000000
     5  C    1.503673   2.196544   2.232259   1.300819   0.000000
     6  H    2.284118   3.219610   3.259833   2.144291   1.061924
     7  H    3.295872   3.111780   2.017579   1.081056   2.162429
     8  H    2.212198   1.130565   2.139489   3.163563   3.316614
     9  H    1.053693   2.140870   3.302288   3.250049   2.322355
                    6          7          8          9
     6  H    0.000000
     7  H    2.684636   0.000000
     8  H    4.319068   4.091052   0.000000
     9  H    2.786747   4.306426   2.681610   0.000000
 Stoichiometry    C4H4O
 Framework group  C1[X(C4H4O)]
 Deg. of freedom    21
 Full point group                 C1      NOp   1
 Largest Abelian subgroup         C1      NOp   1
 Largest concise Abelian subgroup C1      NOp   1
                         Standard orientation:                         
 ---------------------------------------------------------------------
 Center     Atomic      Atomic             Coordinates (Angstroms)
 Number     Number       Type             X           Y           Z
 ---------------------------------------------------------------------
      1          6           0        1.041420    0.649805   -0.038434
      2          6           0        0.885524   -0.662698    0.043344
      3          8           0       -0.430291   -1.099748   -0.015550
      4          6           0       -1.099306    0.047668   -0.016891
      5          6           0       -0.381449    1.131555    0.027832
      6          1           0       -0.679998    2.150430    0.006740
      7          1           0       -2.171500   -0.081625    0.031763
      8          1           0        1.677080   -1.468754   -0.000150
      9          1           0        1.939605    1.199960   -0.009059
 ---------------------------------------------------------------------
 Rotational constants (GHZ):      9.7069966      9.2151240      4.7324542
 Leave Link  202 at Tue Dec 15 17:07:20 2015, MaxMem=    33554432 cpu:         0.0
 (Enter /home/Applications/g09/g09/l301.exe)

 Semi-emprical parameters in input format:
 Method=8 CoreType=1 PeptideFC=0.0106250000 RIJScale=0.5404210000
 ****
 H       
 PQN=1 NValence=1 F0ss=0.4980120000 ZetaOverlap=1.0856700000 U=-0.3768230000
 Beta=-0.2268830000 CoreKO=1.0354420000 KON=0,0,0,1.0458670000 KON=1,0,1,1.0589200000
 KON=0,1,1,1.0589200000 KON=2,1,1,1.0697690000 EISol=-0.4188110042 EHeat=0.0830298228
 Alpha=1.4609850000
 GCore=0.0085280000,1.5127750000,2.2676710000
 GCore=0.0003530000,1.4551640000,3.4779940000
 GCore=-0.0011900000,0.5600570000,3.5861320000
 ****
 C       
 PQN=2,2 NValence=4 F0ss=0.4494440000 F0sp=0.4215150000 F0pp=0.3497590000 F2pp=0.1878900000
 G1sp=0.2701540000
 ZetaOverlap=1.8086650000,1.3781170000
 U=-1.7923890000,-1.4557970000
 Beta=-0.5453250000,-0.3063130000 DDN=0,1,0.7474020000 DDN=1,1,0.7268010000
 CoreKO=1.1124280000 KON=0,0,0,1.1723100000 KON=1,0,1,0.8998210000 KON=0,1,1,1.1012040000
 KON=2,1,1,0.7783930000 EISol=-4.4398989268 EHeat=0.2723305520 Alpha=1.2756240000
 DipHyp=1.4947180026
 GCore=0.0007890000,1.2095400000,2.6678360000
 GCore=0.0028980000,1.4001430000,3.2840710000
 GCore=-0.0013790000,1.3017660000,3.8739390000
 GCore=-0.0001030000,1.4001430000,4.6088130000
 ****
 O       
 PQN=2,2 NValence=6 F0ss=0.5310640000 F0sp=0.5321300000 F0pp=0.4958710000 F2pp=0.2543430000
 G1sp=0.4013240000
 ZetaOverlap=2.6354490000,2.5240390000
 U=-3.5951870000,-2.0345890000
 Beta=-1.1573400000,-1.2994290000 DDN=0,1,0.4953610000 DDN=1,1,0.5082060000
 CoreKO=0.8515990000 KON=0,0,0,0.8822960000 KON=1,0,1,0.5019540000 KON=0,1,1,0.8671530000
 KON=2,1,1,0.5515580000 EISol=-11.6164441184 EHeat=0.0949133088 Alpha=2.4031680000
 DipHyp=0.9906650029
 GCore=0.0204720000,1.2640290000,1.6023330000
 GCore=0.0051530000,1.9602000000,2.7307880000
 ****
 
 Standard basis: VSTO-6G (5D, 7F)
 Ernie: Thresh=  0.10000D-02 Tol=  0.10000D-05 Strict=F.
  NNHCO=     0 NNPyr=     0 NCTC=     0               EPep=         0.000000000
    EC=        69.108591099  ECS=         2.520117682   EG=         0.375390583
   EHC=         0.000000000  EAt=       -31.051283842  AtH=         1.516354808
 EPDDG=         0.000000000  ECC=        72.004099364 EAtT=        32.567638650
 There are    24 symmetry adapted cartesian basis functions of A   symmetry.
 There are    24 symmetry adapted basis functions of A   symmetry.
    24 basis functions,   144 primitive gaussians,    24 cartesian basis functions
    13 alpha electrons       13 beta electrons
       nuclear repulsion energy       104.5717380148 Hartrees.
 IExCor=    0 DFT=F Ex=HF Corr=None ExCW=0 ScaHFX=  1.000000
 ScaDFX=  1.000000  1.000000  1.000000  1.000000 ScalE2=  1.000000  1.000000
 IRadAn=      0 IRanWt=     -1 IRanGd=            0 ICorTp=0 IEmpDi=  4
 Integral buffers will be    131072 words long.
 Regular integral format.
 Two-electron integral symmetry is turned off.
 Leave Link  301 at Tue Dec 15 17:07:20 2015, MaxMem=    33554432 cpu:         0.0
 (Enter /home/Applications/g09/g09/l302.exe)
 Do NDO integrals.
 NPDir=0 NMtPBC=     1 NCelOv=     1 NCel=       1 NClECP=     1 NCelD=      1
         NCelK=      1 NCelE2=     1 NClLst=     1 CellRange=     0.0.
 One-electron integrals computed using PRISM.
 NBasis=    24 RedAO= F EigKep=  0.00D+00  NBF=    24
 NBsUse=    24 1.00D-04 EigRej=  0.00D+00 NBFU=    24
 Leave Link  302 at Tue Dec 15 17:07:20 2015, MaxMem=    33554432 cpu:         0.0
 (Enter /home/Applications/g09/g09/l308.exe)
 Leave Link  308 at Tue Dec 15 17:07:21 2015, MaxMem=    33554432 cpu:         0.0
 (Enter /home/Applications/g09/g09/l303.exe)
 DipDrv:  MaxL=1.
 Leave Link  303 at Tue Dec 15 17:07:21 2015, MaxMem=    33554432 cpu:         0.0
 (Enter /home/Applications/g09/g09/l401.exe)
 Simple Huckel Guess.
 JPrj=0 DoOrth=F DoCkMO=F.
 Leave Link  401 at Tue Dec 15 17:07:21 2015, MaxMem=    33554432 cpu:         0.0
 (Enter /home/Applications/g09/g09/l502.exe)
 Closed shell SCF:
 Using DIIS extrapolation, IDIIS=  1040.
 Overlap will be assumed to be unity.
 Two-electron integral symmetry not used.
 Keep J ints in memory in canonical form, NReq=888082.
 IVT=       79475 IEndB=       79475 NGot=    33554432 MDV=    33473473
 LenX=    33473473 LenY=    33472456
 Requested convergence on RMS density matrix=1.00D-08 within 128 cycles.
 Requested convergence on MAX density matrix=1.00D-06.
 Requested convergence on             energy=1.00D-06.
 No special actions if energy rises.
 FoFCou: FMM=F IPFlag=           0 FMFlag=           0 FMFlg1=           0
         NFxFlg=           0 DoJE=F BraDBF=F KetDBF=F FulRan=T
         wScrn=  0.000000 ICntrl=     600 IOpCl=  2 I1Cent=           0 NGrid=           0
         NMat0=    1 NMatS0=     54 NMatT0=    0 NMatD0=    1 NMtDS0=    0 NMtDT0=    0
 Symmetry not used in FoFCou.

 Cycle   1  Pass 1  IDiag  1:
 E=  4.53418836271068    
 DIIS: error= 1.53D-01 at cycle   1 NSaved=   1.
 NSaved= 1 IEnMin= 1 EnMin=  4.53418836271068     IErMin= 1 ErrMin= 1.53D-01
 ErrMax= 1.53D-01  0.00D+00 EMaxC= 1.00D-01 BMatC= 5.24D-01 BMatP= 5.24D-01
 IDIUse=3 WtCom= 0.00D+00 WtEn= 1.00D+00
 Coeff-Com:  0.100D+01
 Coeff-En:   0.100D+01
 Coeff:      0.100D+01
 GapD=    2.000 DampG=2.000 DampE=0.250 DampFc=0.5000 IDamp=-1.
 Damping current iteration by 5.00D-01
 RMSDP=6.66D-02 MaxDP=7.20D-01              OVMax= 0.00D+00

 Cycle   2  Pass 1  IDiag  1:
 E=  3.47050067445522     Delta-E=       -1.063687688255 Rises=F Damp=T
 DIIS: error= 8.43D-02 at cycle   2 NSaved=   2.
 NSaved= 2 IEnMin= 2 EnMin=  3.47050067445522     IErMin= 2 ErrMin= 8.43D-02
 ErrMax= 8.43D-02  0.00D+00 EMaxC= 1.00D-01 BMatC= 1.79D-01 BMatP= 5.24D-01
 IDIUse=3 WtCom= 1.57D-01 WtEn= 8.43D-01
 Coeff-Com: -0.114D+01 0.214D+01
 Coeff-En:   0.000D+00 0.100D+01
 Coeff:     -0.180D+00 0.118D+01
 RMSDP=3.71D-02 MaxDP=3.63D-01 DE=-1.06D+00 OVMax= 0.00D+00

 Cycle   3  Pass 1  IDiag  1:
 E=  2.15989066171946     Delta-E=       -1.310610012736 Rises=F Damp=F
 DIIS: error= 1.82D-02 at cycle   3 NSaved=   3.
 NSaved= 3 IEnMin= 3 EnMin=  2.15989066171946     IErMin= 3 ErrMin= 1.82D-02
 ErrMax= 1.82D-02  0.00D+00 EMaxC= 1.00D-01 BMatC= 1.26D-02 BMatP= 1.79D-01
 IDIUse=3 WtCom= 8.18D-01 WtEn= 1.82D-01
 Coeff-Com:  0.320D+00-0.709D+00 0.139D+01
 Coeff-En:   0.000D+00 0.000D+00 0.100D+01
 Coeff:      0.262D+00-0.581D+00 0.132D+01
 RMSDP=1.05D-02 MaxDP=5.56D-02 DE=-1.31D+00 OVMax= 0.00D+00

 Cycle   4  Pass 1  IDiag  3:
 E=  2.10980977508926     Delta-E=       -0.050080886630 Rises=F Damp=F
 DIIS: error= 5.14D-03 at cycle   4 NSaved=   4.
 NSaved= 4 IEnMin= 4 EnMin=  2.10980977508926     IErMin= 4 ErrMin= 5.14D-03
 ErrMax= 5.14D-03  0.00D+00 EMaxC= 1.00D-01 BMatC= 1.20D-03 BMatP= 1.26D-02
 IDIUse=3 WtCom= 9.49D-01 WtEn= 5.14D-02
 Coeff-Com: -0.707D-01 0.130D+00-0.450D+00 0.139D+01
 Coeff-En:   0.000D+00 0.000D+00 0.000D+00 0.100D+01
 Coeff:     -0.671D-01 0.124D+00-0.427D+00 0.137D+01
 Gap=     0.382 Goal=   None    Shift=    0.000
 RMSDP=4.28D-03 MaxDP=2.30D-02 DE=-5.01D-02 OVMax= 4.75D-02

 Cycle   5  Pass 1  IDiag  3:
 E=  2.10417088674990     Delta-E=       -0.005638888339 Rises=F Damp=F
 DIIS: error= 1.19D-03 at cycle   5 NSaved=   5.
 NSaved= 5 IEnMin= 5 EnMin=  2.10417088674990     IErMin= 5 ErrMin= 1.19D-03
 ErrMax= 1.19D-03  0.00D+00 EMaxC= 1.00D-01 BMatC= 5.26D-05 BMatP= 1.20D-03
 IDIUse=3 WtCom= 9.88D-01 WtEn= 1.19D-02
 Coeff-Com:  0.177D-01-0.306D-01 0.142D+00-0.601D+00 0.147D+01
 Coeff-En:   0.000D+00 0.000D+00 0.000D+00 0.000D+00 0.100D+01
 Coeff:      0.175D-01-0.303D-01 0.141D+00-0.594D+00 0.147D+01
 Gap=     0.382 Goal=   None    Shift=    0.000
 RMSDP=1.01D-03 MaxDP=4.99D-03 DE=-5.64D-03 OVMax= 9.17D-03

 Cycle   6  Pass 1  IDiag  3:
 E=  2.10389752477444     Delta-E=       -0.000273361975 Rises=F Damp=F
 DIIS: error= 2.65D-04 at cycle   6 NSaved=   6.
 NSaved= 6 IEnMin= 6 EnMin=  2.10389752477444     IErMin= 6 ErrMin= 2.65D-04
 ErrMax= 2.65D-04  0.00D+00 EMaxC= 1.00D-01 BMatC= 1.87D-06 BMatP= 5.26D-05
 IDIUse=3 WtCom= 9.97D-01 WtEn= 2.65D-03
 Coeff-Com: -0.104D-02 0.198D-02-0.305D-01 0.152D+00-0.525D+00 0.140D+01
 Coeff-En:   0.000D+00 0.000D+00 0.000D+00 0.000D+00 0.000D+00 0.100D+01
 Coeff:     -0.103D-02 0.197D-02-0.304D-01 0.151D+00-0.524D+00 0.140D+01
 Gap=     0.383 Goal=   None    Shift=    0.000
 RMSDP=1.85D-04 MaxDP=1.40D-03 DE=-2.73D-04 OVMax= 1.52D-03

 Cycle   7  Pass 1  IDiag  3:
 E=  2.10388879577850     Delta-E=       -0.000008728996 Rises=F Damp=F
 DIIS: error= 4.22D-05 at cycle   7 NSaved=   7.
 NSaved= 7 IEnMin= 7 EnMin=  2.10388879577850     IErMin= 7 ErrMin= 4.22D-05
 ErrMax= 4.22D-05  0.00D+00 EMaxC= 1.00D-01 BMatC= 4.34D-08 BMatP= 1.87D-06
 IDIUse=1 WtCom= 1.00D+00 WtEn= 0.00D+00
 Coeff-Com:  0.160D-03-0.262D-03 0.108D-01-0.575D-01 0.215D+00-0.647D+00
 Coeff-Com:  0.148D+01
 Coeff:      0.160D-03-0.262D-03 0.108D-01-0.575D-01 0.215D+00-0.647D+00
 Coeff:      0.148D+01
 Gap=     0.383 Goal=   None    Shift=    0.000
 RMSDP=2.57D-05 MaxDP=1.94D-04 DE=-8.73D-06 OVMax= 1.72D-04

 Cycle   8  Pass 1  IDiag  3:
 E=  2.10388860387582     Delta-E=       -0.000000191903 Rises=F Damp=F
 DIIS: error= 6.15D-06 at cycle   8 NSaved=   8.
 NSaved= 8 IEnMin= 8 EnMin=  2.10388860387582     IErMin= 8 ErrMin= 6.15D-06
 ErrMax= 6.15D-06  0.00D+00 EMaxC= 1.00D-01 BMatC= 1.03D-09 BMatP= 4.34D-08
 IDIUse=1 WtCom= 1.00D+00 WtEn= 0.00D+00
 Coeff-Com:  0.864D-07-0.343D-04-0.147D-02 0.916D-02-0.395D-01 0.129D+00
 Coeff-Com: -0.381D+00 0.128D+01
 Coeff:      0.864D-07-0.343D-04-0.147D-02 0.916D-02-0.395D-01 0.129D+00
 Coeff:     -0.381D+00 0.128D+01
 Gap=     0.383 Goal=   None    Shift=    0.000
 RMSDP=3.84D-06 MaxDP=2.90D-05 DE=-1.92D-07 OVMax= 2.66D-05

 Cycle   9  Pass 1  IDiag  3:
 E=  2.10388859939882     Delta-E=       -0.000000004477 Rises=F Damp=F
 DIIS: error= 1.17D-06 at cycle   9 NSaved=   9.
 NSaved= 9 IEnMin= 9 EnMin=  2.10388859939882     IErMin= 9 ErrMin= 1.17D-06
 ErrMax= 1.17D-06  0.00D+00 EMaxC= 1.00D-01 BMatC= 4.98D-11 BMatP= 1.03D-09
 IDIUse=1 WtCom= 1.00D+00 WtEn= 0.00D+00
 Coeff-Com:  0.403D-05 0.295D-06 0.187D-03-0.132D-02 0.655D-02-0.218D-01
 Coeff-Com:  0.707D-01-0.368D+00 0.131D+01
 Coeff:      0.403D-05 0.295D-06 0.187D-03-0.132D-02 0.655D-02-0.218D-01
 Coeff:      0.707D-01-0.368D+00 0.131D+01
 Gap=     0.383 Goal=   None    Shift=    0.000
 RMSDP=9.56D-07 MaxDP=8.82D-06 DE=-4.48D-09 OVMax= 9.16D-06

 Cycle  10  Pass 1  IDiag  3:
 E=  2.10388859912287     Delta-E=       -0.000000000276 Rises=F Damp=F
 DIIS: error= 3.84D-07 at cycle  10 NSaved=  10.
 NSaved=10 IEnMin=10 EnMin=  2.10388859912287     IErMin=10 ErrMin= 3.84D-07
 ErrMax= 3.84D-07  0.00D+00 EMaxC= 1.00D-01 BMatC= 5.42D-12 BMatP= 4.98D-11
 IDIUse=1 WtCom= 1.00D+00 WtEn= 0.00D+00
 Coeff-Com: -0.178D-06-0.196D-05-0.674D-04 0.491D-03-0.252D-02 0.823D-02
 Coeff-Com: -0.268D-01 0.156D+00-0.802D+00 0.167D+01
 Coeff:     -0.178D-06-0.196D-05-0.674D-04 0.491D-03-0.252D-02 0.823D-02
 Coeff:     -0.268D-01 0.156D+00-0.802D+00 0.167D+01
 Gap=     0.383 Goal=   None    Shift=    0.000
 RMSDP=4.27D-07 MaxDP=3.99D-06 DE=-2.76D-10 OVMax= 4.58D-06

 Cycle  11  Pass 1  IDiag  3:
 E=  2.10388859908680     Delta-E=       -0.000000000036 Rises=F Damp=F
 DIIS: error= 7.69D-08 at cycle  11 NSaved=  11.
 NSaved=11 IEnMin=11 EnMin=  2.10388859908680     IErMin=11 ErrMin= 7.69D-08
 ErrMax= 7.69D-08  0.00D+00 EMaxC= 1.00D-01 BMatC= 1.94D-13 BMatP= 5.42D-12
 IDIUse=1 WtCom= 1.00D+00 WtEn= 0.00D+00
 Coeff-Com: -0.607D-06 0.127D-05 0.433D-05-0.504D-04 0.336D-03-0.110D-02
 Coeff-Com:  0.433D-02-0.343D-01 0.227D+00-0.640D+00 0.144D+01
 Coeff:     -0.607D-06 0.127D-05 0.433D-05-0.504D-04 0.336D-03-0.110D-02
 Coeff:      0.433D-02-0.343D-01 0.227D+00-0.640D+00 0.144D+01
 Gap=     0.383 Goal=   None    Shift=    0.000
 RMSDP=7.66D-08 MaxDP=6.91D-07 DE=-3.61D-11 OVMax= 7.80D-07

 Cycle  12  Pass 1  IDiag  3:
 E=  2.10388859908593     Delta-E=       -0.000000000001 Rises=F Damp=F
 DIIS: error= 9.77D-09 at cycle  12 NSaved=  12.
 NSaved=12 IEnMin=12 EnMin=  2.10388859908593     IErMin=12 ErrMin= 9.77D-09
 ErrMax= 9.77D-09  0.00D+00 EMaxC= 1.00D-01 BMatC= 4.04D-15 BMatP= 1.94D-13
 IDIUse=1 WtCom= 1.00D+00 WtEn= 0.00D+00
 Coeff-Com:  0.332D-07-0.590D-07-0.167D-07 0.467D-05-0.478D-04 0.151D-03
 Coeff-Com: -0.732D-03 0.759D-02-0.564D-01 0.173D+00-0.474D+00 0.135D+01
 Coeff:      0.332D-07-0.590D-07-0.167D-07 0.467D-05-0.478D-04 0.151D-03
 Coeff:     -0.732D-03 0.759D-02-0.564D-01 0.173D+00-0.474D+00 0.135D+01
 Gap=     0.383 Goal=   None    Shift=    0.000
 RMSDP=8.00D-09 MaxDP=3.94D-08 DE=-8.67D-13 OVMax= 4.43D-08

 Cycle  13  Pass 2  IDiag  1:
 SCF Done:  E(RAM1) =   2.10388859909     A.U. after   13 cycles
            NFock= 12  Conv=0.80D-08     -V/T= 1.1357
 KE=-1.550000781051D+01 PE=-1.701833794096D+02 EE= 8.321553780441D+01
 Leave Link  502 at Tue Dec 15 17:07:21 2015, MaxMem=    33554432 cpu:         0.0
 (Enter /home/Applications/g09/g09/l801.exe)
 Range of M.O.s used for correlation:     1    24
 NBasis=    24 NAE=    13 NBE=    13 NFC=     0 NFV=     0
 NROrb=     24 NOA=    13 NOB=    13 NVA=    11 NVB=    11
 Leave Link  801 at Tue Dec 15 17:07:21 2015, MaxMem=    33554432 cpu:         0.0
 (Enter /home/Applications/g09/g09/l914.exe)
 RHF ground state
 MDV=    33554432 DFT=F DoStab=F Mixed=F DoRPA=F DoScal=F NonHer=F
 Making orbital integer symmetry assigments:
 Orbital symmetries:
       Occupied  (A) (A) (A) (A) (A) (A) (A) (A) (A) (A) (A) (A)
                 (A)
       Virtual   (A) (A) (A) (A) (A) (A) (A) (A) (A) (A) (A)
    60 initial guesses have been made.
 Convergence on wavefunction:    0.000001000000000
 Davidson Disk Diagonalization:  ConvIn= 1.00D-06 SkipCon=T Conv= 1.00D-06.
 Max sub-space:   240 roots to seek:    60 dimension of matrix:          286
 Iteration     1 Dimension    60 NMult     0 NNew     60
 CISAX will form    60 AO SS matrices at one time.
 NMat=    60 NSing=    60 JSym2X= 0.
 FoFJK:  IHMeth= 8 ICntrl=       0 DoSepK=F KAlg= 0 I1Cent=   0 FoldK=F
 IRaf=         1 NMat= 120 IRICut=       1 DoRegI=T DoRafI=F ISym2E= 0.
 FoFCou: FMM=F IPFlag=           0 FMFlag=      100000 FMFlg1=           0
         NFxFlg=           0 DoJE=F BraDBF=F KetDBF=F FulRan=T
         wScrn=  0.000000 ICntrl=       0 IOpCl=  0 I1Cent=           0 NGrid=           0
         NMat0=  120 NMatS0=     60 NMatT0=    0 NMatD0=  120 NMtDS0=    0 NMtDT0=    0
 Symmetry not used in FoFCou.
 New state      5 was old state      6
 New state      6 was old state      8
 New state      7 was old state      5
 New state      8 was old state      9
 New state      9 was old state      7
 New state     11 was old state     12
 New state     12 was old state     13
 New state     13 was old state     11
 New state     14 was old state     23
 New state     15 was old state     14
 Excitation Energies [eV] at current iteration:
 Root      1 :     5.055825514692367
 Root      2 :     6.114292026848363
 Root      3 :     6.401318427960918
 Root      4 :     6.439350247886491
 Root      5 :     7.456405871719704
 Root      6 :     7.946901868071396
 Root      7 :     8.157640708781424
 Root      8 :     8.586387912879422
 Root      9 :     8.756377382359663
 Root     10 :     9.338960154524365
 Root     11 :     9.398968724926634
 Root     12 :     9.669067201496434
 Root     13 :     9.804380014049203
 Root     14 :    10.196202518381700
 Root     15 :    10.251473293395150
 Root     16 :    10.439401946337600
 Root     17 :    10.658885590264160
 Root     18 :    10.671923491874540
 Root     19 :    10.732656980484300
 Root     20 :    10.961420514730240
 Root     21 :    11.046736189717100
 Root     22 :    11.496651116114780
 Root     23 :    11.538223662412220
 Root     24 :    11.583300691235720
 Root     25 :    11.817600897296960
 Root     26 :    12.157187555752770
 Root     27 :    12.656494608782620
 Root     28 :    12.683640716229770
 Root     29 :    12.770760973402360
 Root     30 :    12.857489926996710
 Root     31 :    12.936224138119030
 Root     32 :    13.029438339252890
 Root     33 :    13.083679207407730
 Root     34 :    13.357536346814280
 Root     35 :    13.502186314544160
 Root     36 :    13.570866739281140
 Root     37 :    13.756258277125120
 Root     38 :    13.988806897513880
 Root     39 :    13.998284093008330
 Root     40 :    14.160469398953270
 Root     41 :    14.318297866660010
 Root     42 :    14.630065411091920
 Root     43 :    14.935134938103160
 Root     44 :    15.042450809255020
 Root     45 :    15.140780663787950
 Root     46 :    15.256679343350390
 Root     47 :    15.294214040387060
 Root     48 :    15.447500265212620
 Root     49 :    15.544883738174370
 Root     50 :    15.741663983139280
 Root     51 :    15.834646114958440
 Root     52 :    16.097028248868200
 Root     53 :    16.511330372270850
 Root     54 :    16.609740626733150
 Root     55 :    17.167222594976630
 Root     56 :    17.264691674211600
 Root     57 :    17.310136932900250
 Root     58 :    17.572851712974540
 Root     59 :    17.601637846060020
 Root     60 :    17.637602438727220
 Iteration     2 Dimension   120 NMult    60 NNew     60
 CISAX will form    60 AO SS matrices at one time.
 NMat=    60 NSing=    60 JSym2X= 0.
 Root      1 not converged, maximum delta is    0.019406040259459
 Root      2 not converged, maximum delta is    0.030463979349586
 Root      3 not converged, maximum delta is    0.020208008148053
 Root      4 not converged, maximum delta is    0.028688349869927
 Root      5 not converged, maximum delta is    0.023531148769223
 Root      6 not converged, maximum delta is    0.019586555734869
 Root      7 not converged, maximum delta is    0.016983738725205
 Root      8 not converged, maximum delta is    0.016203409441562
 Root      9 not converged, maximum delta is    0.024463905678055
 Root     10 not converged, maximum delta is    0.051099157590715
 Root     11 not converged, maximum delta is    0.041253350901774
 Root     12 not converged, maximum delta is    0.030660621204812
 Root     13 not converged, maximum delta is    0.032877384749679
 Root     14 not converged, maximum delta is    0.092882708003296
 Root     15 not converged, maximum delta is    0.069782650941770
 Excitation Energies [eV] at current iteration:
 Root      1 :     4.992027533660921   Change is   -0.063797981031446
 Root      2 :     6.085564464949406   Change is   -0.028727561898958
 Root      3 :     6.377542020397327   Change is   -0.023776407563591
 Root      4 :     6.409610238674763   Change is   -0.029740009211728
 Root      5 :     7.434176965946605   Change is   -0.022228905773099
 Root      6 :     7.926773527901467   Change is   -0.020128340169928
 Root      7 :     8.139379971340244   Change is   -0.018260737441181
 Root      8 :     8.575225460506498   Change is   -0.011162452372923
 Root      9 :     8.716273953261055   Change is   -0.040103429098609
 Root     10 :     9.149462560485800   Change is   -0.189497594038566
 Root     11 :     9.338735609910296   Change is   -0.060233115016338
 Root     12 :     9.610671532162499   Change is   -0.058395669333935
 Root     13 :     9.714904043887513   Change is   -0.089475970161689
 Root     14 :    10.037222387394720   Change is   -0.158980130986986
 Root     15 :    10.216512613482030   Change is   -0.034960679913119
 Root     16 :    10.383136137027280   Change is   -0.275749453236882
 Root     17 :    10.420424697660420   Change is   -0.018977248677179
 Root     18 :    10.501954681838880   Change is   -0.169968810035666
 Root     19 :    10.639337467197310   Change is   -0.093319513286982
 Root     20 :    10.929538242177550   Change is   -0.031882272552694
 Root     21 :    10.970659008891480   Change is   -0.076077180825615
 Root     22 :    11.282326747923670   Change is   -0.300973943312056
 Root     23 :    11.352425111884860   Change is   -0.144226004229924
 Root     24 :    11.433308436099430   Change is   -0.104915226312800
 Root     25 :    11.541087498480800   Change is   -0.276513398816156
 Root     26 :    12.055783243859840   Change is   -0.101404311892922
 Root     27 :    12.428714453978290   Change is   -0.227780154804328
 Root     28 :    12.440304463738640   Change is   -0.243336252491129
 Root     29 :    12.577165660878920   Change is   -0.193595312523448
 Root     30 :    12.680019117417440   Change is   -0.177470809579267
 Root     31 :    12.786788474208390   Change is   -0.242649865044497
 Root     32 :    12.850741619701480   Change is   -0.232937587706249
 Root     33 :    12.908060046379560   Change is   -0.028164091739475
 Root     34 :    13.191641206110380   Change is   -0.165895140703897
 Root     35 :    13.264898470331200   Change is   -0.237287844212966
 Root     36 :    13.431627568533370   Change is   -0.139239170747771
 Root     37 :    13.595466096513160   Change is   -0.160792180611962
 Root     38 :    13.842467798237820   Change is   -0.146339099276055
 Root     39 :    13.863496133061250   Change is   -0.134787959947075
 Root     40 :    13.898688361754250   Change is   -0.261781037199022
 Root     41 :    14.271498304336590   Change is   -0.046799562323415
 Root     42 :    14.540637365306230   Change is   -0.089428045785693
 Root     43 :    14.766362820912220   Change is   -0.168772117190930
 Root     44 :    14.807697051499990   Change is   -0.234753757755029
 Root     45 :    14.998872439280690   Change is   -0.141908224507264
 Root     46 :    15.120797980417170   Change is   -0.135881362933228
 Root     47 :    15.156530148837160   Change is   -0.137683891549900
 Root     48 :    15.269745540907270   Change is   -0.275138197267096
 Root     49 :    15.336260183669530   Change is   -0.111240081543094
 Root     50 :    15.665592054248900   Change is   -0.076071928890377
 Root     51 :    15.690698818001310   Change is   -0.143947296957130
 Root     52 :    15.854302812267210   Change is   -0.242725436600990
 Root     53 :    16.227354319553320   Change is   -0.283976052717531
 Root     54 :    16.308115424358260
 Root     55 :    16.382686466235350   Change is   -0.227054160497796
 Root     56 :    16.664191512176360   Change is   -0.600500162035250
 Root     57 :    16.818458359641820   Change is   -0.491678573258427
 Root     58 :    16.989075551020630   Change is   -0.178147043956001
 Root     59 :    17.136441994752090
 Root     60 :    17.168320199114240
 Iteration     3 Dimension   135 NMult   120 NNew     15
 CISAX will form    15 AO SS matrices at one time.
 NMat=    15 NSing=    15 JSym2X= 0.
 Root      1 not converged, maximum delta is    0.001905667587596
 Root      2 not converged, maximum delta is    0.000090671465599
 Root      3 not converged, maximum delta is    0.000059682033449
 Root      4 not converged, maximum delta is    0.000106880791771
 Root      5 not converged, maximum delta is    0.000051233409415
 Root      6 not converged, maximum delta is    0.000136040787940
 Root      7 not converged, maximum delta is    0.000251964138197
 Root      8 not converged, maximum delta is    0.000080811622425
 Root      9 not converged, maximum delta is    0.000636458166288
 Root     10 not converged, maximum delta is    0.002375894416061
 Root     11 not converged, maximum delta is    0.000207528752585
 Root     12 not converged, maximum delta is    0.000363149732282
 Root     13 not converged, maximum delta is    0.001813825876584
 Root     14 not converged, maximum delta is    0.001483928463704
 Root     15 not converged, maximum delta is    0.000469504872900
 Excitation Energies [eV] at current iteration:
 Root      1 :     4.991654012532526   Change is   -0.000373521128395
 Root      2 :     6.085563117872140   Change is   -0.000001347077265
 Root      3 :     6.377541516561765   Change is   -0.000000503835563
 Root      4 :     6.409607979685124   Change is   -0.000002258989640
 Root      5 :     7.434176215195555   Change is   -0.000000750751049
 Root      6 :     7.926770655044684   Change is   -0.000002872856783
 Root      7 :     8.139373576393771   Change is   -0.000006394946473
 Root      8 :     8.575223833783795   Change is   -0.000001626722703
 Root      9 :     8.716186995874743   Change is   -0.000086957386312
 Root     10 :     9.148606193336956   Change is   -0.000856367148844
 Root     11 :     9.338729952210265   Change is   -0.000005657700031
 Root     12 :     9.610633357314464   Change is   -0.000038174848036
 Root     13 :     9.714547428680815   Change is   -0.000356615206699
 Root     14 :    10.036707280888410   Change is   -0.000515106506304
 Root     15 :    10.216482222206330   Change is   -0.000030391275703
 Iteration     4 Dimension   143 NMult   135 NNew      8
 CISAX will form     8 AO SS matrices at one time.
 NMat=     8 NSing=     8 JSym2X= 0.
 Root      1 not converged, maximum delta is    0.000068543210870
 Root      2 not converged, maximum delta is    0.000004128826447
 Root      3 not converged, maximum delta is    0.000002040295040
 Root      4 not converged, maximum delta is    0.000002857342699
 Root      5 not converged, maximum delta is    0.000002288461020
 Root      6 not converged, maximum delta is    0.000008123725705
 Root      7 not converged, maximum delta is    0.000011544253007
 Root      8 not converged, maximum delta is    0.000005036782623
 Root      9 not converged, maximum delta is    0.000034070934047
 Root     10 not converged, maximum delta is    0.000134448538178
 Root     11 not converged, maximum delta is    0.000005372793783
 Root     12 not converged, maximum delta is    0.000045083124858
 Root     13 not converged, maximum delta is    0.000113071490750
 Root     14 not converged, maximum delta is    0.000099086209209
 Root     15 not converged, maximum delta is    0.000039039565857
 Excitation Energies [eV] at current iteration:
 Root      1 :     4.991652254675442   Change is   -0.000001757857084
 Root      2 :     6.085563113647621   Change is   -0.000000004224520
 Root      3 :     6.377541515243696   Change is   -0.000000001318069
 Root      4 :     6.409607977810833   Change is   -0.000000001874290
 Root      5 :     7.434176213918978   Change is   -0.000000001276578
 Root      6 :     7.926770637794414   Change is   -0.000000017250270
 Root      7 :     8.139373541045186   Change is   -0.000000035348585
 Root      8 :     8.575223828025605   Change is   -0.000000005758191
 Root      9 :     8.716186761687085   Change is   -0.000000234187656
 Root     10 :     9.148602056109546   Change is   -0.000004137227410
 Root     11 :     9.338729943450950   Change is   -0.000000008759316
 Root     12 :     9.610632919365148   Change is   -0.000000437949314
 Root     13 :     9.714545052930141   Change is   -0.000002375750673
 Root     14 :    10.036705511140060   Change is   -0.000001769748355
 Root     15 :    10.216481938127810   Change is   -0.000000284078521
 Convergence achieved on expansion vectors.
 ***********************************************************************
 Excited states from <AA,BB:AA,BB> singles matrix:
 ***********************************************************************
 
 1PDM for each excited state written to RWF  633
 Ground to excited state transition densities written to RWF  633
 Ground to excited state transition electric dipole moments (Au):
       state          X           Y           Z        Dip. S.      Osc.
         1        -1.5711      0.5963      0.1050      2.8350      0.3467
         2         0.0438     -0.0119      0.0822      0.0088      0.0013
         3         0.0050      0.0053      0.1746      0.0305      0.0048
         4        -0.0779      0.0010      0.0237      0.0066      0.0010
         5         0.0128      0.0014     -0.0053      0.0002      0.0000
         6        -0.0477      0.0398      0.2513      0.0670      0.0130
         7         0.0859     -0.0433      0.3196      0.1114      0.0222
         8        -0.0277      0.0167     -0.1023      0.0115      0.0024
         9        -0.2733     -0.6466      0.0323      0.4938      0.1054
        10        -0.9168      0.1989      0.0185      0.8804      0.1973
        11        -0.0301      0.0990      0.1014      0.0210      0.0048
        12        -0.2624      0.0226      0.5083      0.3277      0.0772
        13        -0.1554     -0.2948     -0.1482      0.1330      0.0317
        14         0.4139     -0.4559      0.0595      0.3827      0.0941
        15         0.0294      0.1232     -0.0237      0.0166      0.0042
 Ground to excited state transition velocity dipole moments (Au):
       state          X           Y           Z        Dip. S.      Osc.
         1         0.1517     -0.0606     -0.0148      0.0269      0.0977
         2        -0.0040      0.0125     -0.0702      0.0051      0.0152
         3        -0.0048     -0.0077     -0.1562      0.0245      0.0697
         4         0.0108      0.0034     -0.0048      0.0002      0.0004
         5        -0.0022     -0.0062     -0.0065      0.0001      0.0002
         6         0.0043     -0.0069     -0.0317      0.0011      0.0025
         7        -0.0103      0.0051     -0.0587      0.0036      0.0080
         8         0.0042      0.0027      0.0136      0.0002      0.0004
         9         0.0874      0.2107     -0.0074      0.0521      0.1084
        10         0.1683     -0.0408     -0.0287      0.0308      0.0611
        11         0.0072     -0.0192      0.0149      0.0006      0.0012
        12         0.0334     -0.0068      0.0443      0.0031      0.0059
        13         0.0137      0.0326     -0.0170      0.0015      0.0029
        14        -0.0537      0.0838      0.0075      0.0100      0.0180
        15        -0.0059     -0.0143     -0.0831      0.0071      0.0127
 Ground to excited state transition magnetic dipole moments (Au):
       state          X           Y           Z
         1         0.0014      0.0333     -0.4716
         2        -0.1046     -0.1538      0.0065
         3        -0.0971      0.1012     -0.0112
         4        -0.3998     -0.8419     -0.0271
         5         0.2750      0.6006      0.0030
         6        -0.8998      0.4404     -0.0366
         7        -0.3126      0.0746      0.0373
         8         0.0920     -0.0988     -0.0052
         9         0.0107      0.1020      0.0356
        10        -0.0552      0.0284     -0.3762
        11         0.1112      0.1366     -0.0431
        12         0.1608     -0.0965     -0.0471
        13        -0.0380     -0.0119     -0.0050
        14        -0.0262     -0.0349     -0.0359
        15        -0.0183     -0.4206     -0.0265
 Ground to excited state transition velocity quadrupole moments (Au):
       state          XX          YY          ZZ          XY          XZ          YZ
         1         0.1884     -0.1809      0.0021      0.2067     -0.0042     -0.0410
         2        -0.0178      0.0283      0.0099     -0.0074      0.1219     -0.1217
         3        -0.0046      0.0131     -0.0104     -0.0345     -0.1025     -0.1125
         4         0.0076      0.0025      0.0140      0.0165     -0.2092      0.0849
         5        -0.0334      0.0019      0.0183     -0.0021     -0.3387      0.1343
         6         0.0031     -0.0153     -0.0054     -0.0022      0.0595      0.0945
         7        -0.0173      0.0199      0.0014     -0.0209     -0.0313     -0.1716
         8         0.0050      0.0084     -0.0037      0.0080      0.1647     -0.0147
         9        -0.0747      0.2661     -0.0233      0.2324     -0.0245      0.0155
        10         0.1347     -0.1144     -0.0014      0.1893     -0.0151     -0.0310
        11         0.0035     -0.0527     -0.0045     -0.0043     -0.2575      0.1379
        12        -0.0738     -0.0804     -0.0229      0.0593      0.1198      0.1214
        13        -0.3796     -0.3251     -0.0858      0.1180      0.0124     -0.0370
        14        -0.2191     -0.0678     -0.0358      0.0375      0.0267     -0.0173
        15         0.1388      0.0425      0.0404     -0.0441      0.3511      0.0141
 <0|del|b> * <b|rxdel|0> + <0|del|b> * <b|delr+rdel|0>
 Rotatory Strengths (R) in cgs (10**-40 erg-esu-cm/Gauss)
       state          XX          YY          ZZ    R(velocity)    E-M Angle
         1         3.1852      7.8186      8.9950      6.6663       86.16
         2        -5.3573     -0.1040     -0.7378     -2.0664       98.48
         3         8.3928     -3.9394     -0.0984      1.4517       86.24
         4        -3.1944     -4.8018    -13.3116     -7.1026      128.11
         5        -7.5441     -1.1835     -2.4939     -3.7405      135.20
         6        -1.7188     -2.8430     -9.3559     -4.6392      100.06
         7        -0.5017      1.8725      1.9830      1.1180       85.80
         8        -0.7707      0.1632      0.7070      0.0332       90.00
         9        27.2332      4.1301     17.5807     16.3147       26.54
        10         3.7640      1.7998     -4.8507      0.2377       89.71
        11        -8.5302      1.2468      2.1972     -1.6954      122.49
        12         2.0143      4.7148      1.1583      2.6291       68.61
        13        -2.6886      1.0597      0.0019     -0.5423      121.47
        14        -4.9355      1.7103     -0.1998     -1.1417      108.47
        15        15.9440     -1.3536      1.1176      5.2360       76.47
 1/2[<0|r|b>*<b|rxdel|0> + (<0|rxdel|b>*<b|r|0>)*]
 Rotatory Strengths (R) in cgs (10**-40 erg-esu-cm/Gauss)
       state          XX          YY          ZZ     R(length)
         1         1.6023    -14.0550     35.0015      7.5163
         2         3.2396     -1.2927     -0.3795      0.5225
         3         0.3441     -0.3792      1.3890      0.4513
         4       -22.0301      0.6017      0.4540     -6.9915
         5        -2.4856     -0.5981      0.0111     -1.0242
         6       -30.3502    -12.3938      6.4951    -12.0830
         7        18.9921      2.2853     -8.4319      4.2818
         8         1.8040      1.1685     -0.3770      0.8652
         9         2.0744     46.6443     -0.8143     15.9681
        10       -35.7641     -4.0004      4.9257    -11.6129
        11         2.3703     -9.5652      3.0889     -1.3686
        12        29.8274      1.5433     16.9369     16.1026
        13        -4.1767     -2.4820     -0.5254     -2.3947
        14         7.6605    -11.2490      1.5095     -0.6930
        15         0.3811     36.6316     -0.4433     12.1898
  1/2[<0|del|b>*<b|r|0> + (<0|r|b>*<b|del|0>)*] (Au)
       state          X           Y           Z        Dip. S.   Osc.(frdel)
         1        -0.2383     -0.0361     -0.0016      0.2760      0.1840
         2        -0.0002     -0.0001     -0.0058      0.0061      0.0041
         3         0.0000      0.0000     -0.0273      0.0273      0.0182
         4        -0.0008      0.0000     -0.0001      0.0010      0.0006
         5         0.0000      0.0000      0.0000      0.0000      0.0000
         6        -0.0002     -0.0003     -0.0080      0.0084      0.0056
         7        -0.0009     -0.0002     -0.0188      0.0199      0.0133
         8        -0.0001      0.0000     -0.0014      0.0015      0.0010
         9        -0.0239     -0.1362     -0.0002      0.1603      0.1069
        10        -0.1543     -0.0081     -0.0005      0.1629      0.1086
        11        -0.0002     -0.0019      0.0015      0.0006      0.0004
        12        -0.0088     -0.0002      0.0225     -0.0136     -0.0091
        13        -0.0021     -0.0096      0.0025      0.0092      0.0061
        14        -0.0222     -0.0382      0.0004      0.0600      0.0400
        15        -0.0002     -0.0018      0.0020      0.0000      0.0000

 Excitation energies and oscillator strengths:
 
 Excited State   1:      Singlet-A      4.9917 eV  248.38 nm  f=0.3467  <S**2>=0.000
      13 -> 14         0.69654
 This state for optimization and/or second-order correction.
 Total Energy, E(CIS) =   2.28732845206    
 Copying the excited state density for this state as the 1-particle RhoCI density.
 
 Excited State   2:      Singlet-A      6.0856 eV  203.73 nm  f=0.0013  <S**2>=0.000
      13 -> 15         0.63045
      13 -> 16        -0.16422
      13 -> 18         0.24471
 
 Excited State   3:      Singlet-A      6.3775 eV  194.41 nm  f=0.0048  <S**2>=0.000
      13 -> 15         0.20022
      13 -> 16         0.62244
      13 -> 17         0.19101
      13 -> 18        -0.15447
 
 Excited State   4:      Singlet-A      6.4096 eV  193.43 nm  f=0.0010  <S**2>=0.000
      12 -> 14         0.70167
 
 Excited State   5:      Singlet-A      7.4342 eV  166.78 nm  f=0.0000  <S**2>=0.000
      13 -> 15        -0.14755
      13 -> 16         0.19804
      13 -> 18         0.53244
      13 -> 19        -0.31750
      13 -> 20        -0.19049
 
 Excited State   6:      Singlet-A      7.9268 eV  156.41 nm  f=0.0130  <S**2>=0.000
      10 -> 14         0.66577
      11 -> 14        -0.13861
      13 -> 17         0.15338
 
 Excited State   7:      Singlet-A      8.1394 eV  152.33 nm  f=0.0222  <S**2>=0.000
      10 -> 14        -0.16585
      13 -> 15        -0.14152
      13 -> 16        -0.10217
      13 -> 17         0.63788
      13 -> 18         0.12216
 
 Excited State   8:      Singlet-A      8.5752 eV  144.58 nm  f=0.0024  <S**2>=0.000
      13 -> 16         0.11861
      13 -> 17        -0.11921
      13 -> 18         0.30633
      13 -> 19         0.59292
      13 -> 20         0.11146
 
 Excited State   9:      Singlet-A      8.7162 eV  142.25 nm  f=0.1054  <S**2>=0.000
      10 -> 14         0.13682
      11 -> 14         0.66260
 
 Excited State  10:      Singlet-A      9.1486 eV  135.52 nm  f=0.1973  <S**2>=0.000
       9 -> 15         0.11200
      10 -> 17        -0.14003
      12 -> 15         0.42535
      12 -> 16        -0.32185
      12 -> 18         0.32778
      12 -> 19        -0.13434
      13 -> 21        -0.10591
 
 Excited State  11:      Singlet-A      9.3387 eV  132.76 nm  f=0.0048  <S**2>=0.000
      13 -> 18         0.12470
      13 -> 19        -0.19079
      13 -> 20         0.63861
      13 -> 21         0.18103
 
 Excited State  12:      Singlet-A      9.6106 eV  129.01 nm  f=0.0772  <S**2>=0.000
      12 -> 15         0.18456
      13 -> 20        -0.18014
      13 -> 21         0.63861
 
 Excited State  13:      Singlet-A      9.7145 eV  127.63 nm  f=0.0317  <S**2>=0.000
      10 -> 15         0.16333
      11 -> 14         0.11788
      12 -> 15         0.43571
      12 -> 16         0.38398
      12 -> 17         0.17551
      13 -> 21        -0.16069
 
 Excited State  14:      Singlet-A     10.0367 eV  123.53 nm  f=0.0941  <S**2>=0.000
       9 -> 16        -0.16201
      10 -> 15        -0.12740
      10 -> 17        -0.14189
      12 -> 15        -0.11673
      12 -> 16         0.37062
      12 -> 18         0.30521
      12 -> 19        -0.32544
 
 Excited State  15:      Singlet-A     10.2165 eV  121.36 nm  f=0.0042  <S**2>=0.000
       7 -> 15        -0.14438
      10 -> 15         0.11184
      11 -> 15         0.60296
      11 -> 16         0.21826
      11 -> 17         0.11745
      13 -> 15        -0.10392
 SavETr:  write IOETrn=   770 NScale= 10 NData=  16 NLR=1 NState=   15 LETran=     280.
 The selected state is a singlet
 CISAX will form     1 AO SS matrices at one time.
 NMat=     1 NSing=     1 JSym2X= 0.
 Leave Link  914 at Tue Dec 15 17:07:21 2015, MaxMem=    33554432 cpu:         0.1
 (Enter /home/Applications/g09/g09/l1002.exe)
 Minotr:  Closed shell wavefunction.
          Computing CIS/TD-HF/TD-KS derivatives.
          Using Z-Vector for PSCF gradient.
          Skipping F1 and S1 gradient terms here.
          IDoAtm=111111111
          Direct CPHF calculation.
          Differentiating once with respect to electric field.
                with respect to dipole field.
          Differentiating once with respect to nuclear coordinates.
          Electric field/nuclear overlap derivatives assumed to be zero.
          Requested convergence is 1.0D-10 RMS, and 1.0D-09 maximum.
          NewPWx=T KeepS1=F KeepF1=F KeepIn=T MapXYZ=F SortEE=F KeepMc=T.
          MDV=      33495423 using IRadAn=       0.
 Keep J ints in memory in canonical form, NReq=871704.
 FoFCou: FMM=F IPFlag=           0 FMFlag=           0 FMFlg1=           0
         NFxFlg=           0 DoJE=F BraDBF=F KetDBF=F FulRan=T
         wScrn=  0.000000 ICntrl=     600 IOpCl=  2 I1Cent=           0 NGrid=           0
         NMat0=    1 NMatS0=     54 NMatT0=    0 NMatD0=    1 NMtDS0=    0 NMtDT0=    0
 Symmetry not used in FoFCou.
          Solving linear equations separately, MaxMat=       0.
          There are     1 degrees of freedom in the 1st order CPHF.  IDoFFX=0 NUNeed=     1.
 LinEq1:  Iter=  0 NonCon=     1 RMS=6.37D-03 Max=3.53D-02 NDo=     1
 AX will form     1 AO Fock derivatives at one time.
 LinEq1:  Iter=  1 NonCon=     1 RMS=6.49D-04 Max=2.03D-03 NDo=     1
 LinEq1:  Iter=  2 NonCon=     1 RMS=1.25D-04 Max=1.15D-03 NDo=     1
 LinEq1:  Iter=  3 NonCon=     1 RMS=1.54D-05 Max=6.77D-05 NDo=     1
 LinEq1:  Iter=  4 NonCon=     1 RMS=2.34D-06 Max=7.74D-06 NDo=     1
 LinEq1:  Iter=  5 NonCon=     1 RMS=2.63D-07 Max=8.90D-07 NDo=     1
 LinEq1:  Iter=  6 NonCon=     1 RMS=3.21D-08 Max=1.09D-07 NDo=     1
 LinEq1:  Iter=  7 NonCon=     1 RMS=3.75D-09 Max=1.25D-08 NDo=     1
 LinEq1:  Iter=  8 NonCon=     1 RMS=4.07D-10 Max=1.56D-09 NDo=     1
 LinEq1:  Iter=  9 NonCon=     0 RMS=4.88D-11 Max=2.41D-10 NDo=     1
 Linear equations converged to 1.000D-10 1.000D-09 after     9 iterations.
 End of Minotr F.D. properties file   721 does not exist.
 End of Minotr F.D. properties file   722 does not exist.
 End of Minotr F.D. properties file   788 does not exist.
 Leave Link 1002 at Tue Dec 15 17:07:21 2015, MaxMem=    33554432 cpu:         0.0
 (Enter /home/Applications/g09/g09/l601.exe)
 Copying SCF densities to generalized density rwf, IOpCl= 0 IROHF=0.

 **********************************************************************

            Population analysis using the SCF density.

 **********************************************************************

 Orbital symmetries:
       Occupied  (A) (A) (A) (A) (A) (A) (A) (A) (A) (A) (A) (A)
                 (A)
       Virtual   (A) (A) (A) (A) (A) (A) (A) (A) (A) (A) (A)
 The electronic state is 1-A.
 Alpha  occ. eigenvalues --   -1.94262  -1.19793  -0.95843  -0.82376  -0.77469
 Alpha  occ. eigenvalues --   -0.69239  -0.65112  -0.52656  -0.52305  -0.44066
 Alpha  occ. eigenvalues --   -0.43733  -0.39090  -0.26673
 Alpha virt. eigenvalues --    0.11587   0.18410   0.19521   0.27496   0.27592
 Alpha virt. eigenvalues --    0.30730   0.32074   0.32364   0.35893   0.45537
 Alpha virt. eigenvalues --    0.48513
     Molecular Orbital Coefficients:
                           1         2         3         4         5
                           O         O         O         O         O
     Eigenvalues --    -1.94262  -1.19793  -0.95843  -0.82376  -0.77469
   1 1   C  1S          0.07011   0.45356  -0.28148  -0.25278  -0.24184
   2        1PX        -0.07738  -0.18836  -0.12521  -0.20670   0.02243
   3        1PY        -0.06876  -0.07155   0.17829   0.08481  -0.36066
   4        1PZ         0.00168   0.01416  -0.00490  -0.00811  -0.00196
   5 2   C  1S          0.21891   0.27270  -0.48153   0.07725   0.44371
   6        1PX        -0.23945  -0.04333  -0.05718  -0.31581  -0.02875
   7        1PY        -0.04009   0.30205   0.02677  -0.37530  -0.26664
   8        1PZ        -0.01219  -0.01210   0.02875  -0.00093  -0.01345
   9 3   O  1S          0.84840  -0.28240  -0.03312   0.06505  -0.26743
  10        1PX         0.01084   0.06115  -0.20268   0.27334   0.11158
  11        1PY         0.05308   0.15768   0.08653  -0.12932   0.13083
  12        1PZ         0.00115   0.00195   0.00255   0.00900   0.01062
  13 4   C  1S          0.24918   0.27801   0.53436  -0.21196   0.31337
  14        1PX         0.16226   0.23375  -0.12097   0.07824  -0.12040
  15        1PY        -0.20834   0.22428   0.00647   0.54353  -0.05664
  16        1PZ         0.00191   0.00700   0.01427   0.00748   0.02069
  17 5   C  1S          0.07622   0.46879   0.25024   0.28704  -0.19327
  18        1PX         0.01265   0.09500  -0.25781  -0.14233  -0.26544
  19        1PY        -0.11033  -0.17319  -0.06718   0.11538  -0.23434
  20        1PZ        -0.00243  -0.01085  -0.00252  -0.00491   0.01099
  21 6   H  1S          0.00440   0.13268   0.11444   0.19054  -0.15471
  22 7   H  1S          0.05416   0.03743   0.27301  -0.12328   0.19378
  23 8   H  1S          0.04118   0.03518  -0.21943   0.02893   0.25625
  24 9   H  1S          0.00402   0.12683  -0.13083  -0.17018  -0.18554
                           6         7         8         9        10
                           O         O         O         O         O
     Eigenvalues --    -0.69239  -0.65112  -0.52656  -0.52305  -0.44066
   1 1   C  1S         -0.19251   0.00442  -0.02648  -0.17354  -0.12401
   2        1PX        -0.24897   0.01632   0.07557   0.03951  -0.36319
   3        1PY        -0.03891   0.01296  -0.37220  -0.08744  -0.39366
   4        1PZ         0.00468   0.35413   0.00034   0.01773   0.07994
   5 2   C  1S         -0.13148   0.02403  -0.10066  -0.11659   0.11811
   6        1PX        -0.41860  -0.01400   0.04070   0.60048   0.12372
   7        1PY         0.10899   0.01082   0.49137  -0.10667   0.29718
   8        1PZ         0.01888   0.52868  -0.02952   0.04528   0.11611
   9 3   O  1S         -0.20746   0.00747   0.21263   0.08171   0.02074
  10        1PX         0.06258  -0.00133   0.00787  -0.16288  -0.08220
  11        1PY         0.22418  -0.01045  -0.12454   0.01647  -0.00551
  12        1PZ         0.01012   0.25068  -0.00775  -0.00604  -0.01053
  13 4   C  1S         -0.07884  -0.02145  -0.12295   0.05183  -0.13164
  14        1PX         0.45065  -0.01864  -0.09353   0.56376  -0.15228
  15        1PY        -0.23968  -0.00209   0.48819   0.03915  -0.22604
  16        1PZ         0.00144   0.61886   0.02252   0.00021  -0.12416
  17 5   C  1S         -0.17319   0.00734  -0.15568   0.12160   0.11690
  18        1PX         0.16258   0.01306  -0.25463  -0.17204   0.05412
  19        1PY        -0.20710   0.00128  -0.29629  -0.08883   0.41634
  20        1PZ         0.00536   0.38249   0.01242   0.00732  -0.01303
  21 6   H  1S         -0.21235  -0.00014  -0.20954   0.03678   0.30761
  22 7   H  1S         -0.26996   0.01076  -0.00970  -0.30695   0.02585
  23 8   H  1S         -0.25666  -0.00226  -0.21572   0.24487  -0.00225
  24 9   H  1S         -0.21775   0.01691  -0.09929  -0.09670  -0.40069
                          11        12        13        14        15
                           O         O         O         V         V
     Eigenvalues --    -0.43733  -0.39090  -0.26673   0.11587   0.18410
   1 1   C  1S          0.02175  -0.05411  -0.02582  -0.03673  -0.09798
   2        1PX         0.03749   0.50512   0.01063   0.00798   0.12093
   3        1PY         0.07084  -0.11577   0.02793   0.02453  -0.03845
   4        1PZ         0.26681   0.01931   0.57552   0.67817  -0.01130
   5 2   C  1S          0.00857   0.09105  -0.01282   0.00362  -0.02515
   6        1PX        -0.02445  -0.26239  -0.00295   0.00419   0.06640
   7        1PY        -0.04582   0.16195  -0.01528   0.01125   0.00454
   8        1PZ         0.68079   0.03668  -0.36183  -0.23983   0.00740
   9 3   O  1S          0.00802  -0.06980  -0.00278   0.00044   0.01326
  10        1PX         0.01497   0.06118   0.01087   0.00567   0.07585
  11        1PY        -0.01623   0.15377   0.00130   0.00710   0.07343
  12        1PZ        -0.00342   0.00156  -0.21908   0.00245  -0.00702
  13 4   C  1S          0.02844   0.05387   0.01260   0.00238  -0.14207
  14        1PX        -0.01511   0.22280  -0.00275   0.00652   0.45853
  15        1PY         0.07715  -0.09588   0.00842   0.00333   0.16319
  16        1PZ        -0.62427  -0.05371  -0.31598   0.22106  -0.00587
  17 5   C  1S         -0.03371  -0.04087   0.01949  -0.02078  -0.11742
  18        1PX         0.01523  -0.45818   0.01935   0.00100   0.22843
  19        1PY        -0.11121   0.35718  -0.02107   0.01004   0.17523
  20        1PZ        -0.18198   0.00766   0.62133  -0.65630   0.00638
  21 6   H  1S         -0.08704   0.30372  -0.01643   0.00191  -0.01459
  22 7   H  1S          0.01250  -0.13294   0.00228   0.00391   0.77438
  23 8   H  1S          0.00443  -0.16273   0.00271   0.00249  -0.04800
  24 9   H  1S          0.06170   0.22565   0.01201   0.00914  -0.04119
                          16        17        18        19        20
                           V         V         V         V         V
     Eigenvalues --     0.19521   0.27496   0.27592   0.30730   0.32074
   1 1   C  1S         -0.11091  -0.08527  -0.14927   0.24215   0.53829
   2        1PX        -0.06050   0.04330   0.43139  -0.37238   0.03556
   3        1PY         0.28628   0.37053  -0.37233  -0.36371   0.06509
   4        1PZ        -0.01698  -0.02336  -0.00642   0.02714   0.03423
   5 2   C  1S         -0.13610   0.34202  -0.25109  -0.30376  -0.17642
   6        1PX        -0.23712   0.16691  -0.15210  -0.06474  -0.04361
   7        1PY         0.42842   0.15531  -0.03744  -0.20263  -0.16003
   8        1PZ         0.00208  -0.00449   0.00305   0.00777  -0.00223
   9 3   O  1S          0.01624   0.04445   0.00424  -0.00431  -0.00451
  10        1PX         0.00533   0.02564   0.04209   0.01917   0.02640
  11        1PY         0.11299   0.05677  -0.00233  -0.01644  -0.01798
  12        1PZ         0.00091  -0.00312   0.02299   0.00554   0.01749
  13 4   C  1S         -0.03317   0.40196   0.27116   0.22387   0.10999
  14        1PX         0.00272   0.00657  -0.09401   0.07980   0.06739
  15        1PY         0.06242   0.27262   0.15451   0.13527   0.09104
  16        1PZ        -0.00296   0.01092   0.00287   0.00579  -0.00319
  17 5   C  1S         -0.12149  -0.20689   0.10128  -0.19766  -0.44426
  18        1PX        -0.10343   0.16382   0.59832  -0.10119  -0.08737
  19        1PY         0.07555   0.40023   0.01704   0.44117  -0.09411
  20        1PZ         0.01087   0.01644  -0.01199   0.00883   0.01257
  21 6   H  1S         -0.04899  -0.26256   0.11339  -0.30523   0.41410
  22 7   H  1S          0.03049  -0.20091  -0.18588  -0.04966  -0.01019
  23 8   H  1S          0.76813  -0.20426   0.18683   0.08789   0.03755
  24 9   H  1S         -0.02795  -0.24698  -0.07611   0.33047  -0.48130
                          21        22        23        24
                           V         V         V         V
     Eigenvalues --     0.32364   0.35893   0.45537   0.48513
   1 1   C  1S         -0.30345  -0.02353   0.07380  -0.03365
   2        1PX        -0.30638  -0.01960   0.02510  -0.01968
   3        1PY         0.02229   0.00915  -0.00530   0.04446
   4        1PZ        -0.02142   0.03835   0.00314  -0.00402
   5 2   C  1S          0.08950   0.01146  -0.16042  -0.14990
   6        1PX         0.12737   0.01568   0.21791   0.18125
   7        1PY         0.07258   0.00982  -0.07335   0.16180
   8        1PZ         0.00782  -0.22105   0.00681   0.00709
   9 3   O  1S          0.03375   0.00167   0.13962  -0.01271
  10        1PX         0.04766  -0.03895   0.36286   0.82570
  11        1PY         0.11870  -0.01113   0.81907  -0.36577
  12        1PZ        -0.03356   0.94068   0.02988   0.02839
  13 4   C  1S          0.10747  -0.00262  -0.15835   0.17618
  14        1PX        -0.02983   0.00899  -0.21839   0.04430
  15        1PY         0.15496   0.00970   0.05100  -0.24895
  16        1PZ         0.01205  -0.24211  -0.00597  -0.00547
  17 5   C  1S         -0.42351  -0.01026   0.08599   0.02837
  18        1PX         0.17624   0.00071  -0.02850  -0.04089
  19        1PY        -0.17707  -0.00498   0.01742  -0.02532
  20        1PZ         0.01645   0.04441  -0.00002  -0.00035
  21 6   H  1S          0.52102   0.00962  -0.05787   0.00497
  22 7   H  1S         -0.05633   0.00589  -0.03281   0.01413
  23 8   H  1S         -0.06234  -0.00703  -0.03797  -0.00672
  24 9   H  1S          0.45579   0.02395  -0.05035   0.00048
     Density Matrix:
                           1         2         3         4         5
   1 1   C  1S          0.99919
   2        1PX         0.09720   1.11695
   3        1PY         0.13361   0.07323   1.00187
   4        1PZ        -0.02399   0.00326   0.00405   1.07044
   5 2   C  1S          0.35400   0.02033  -0.55519   0.03399   1.24213
   6        1PX         0.08015   0.10170  -0.15747   0.00446  -0.20541
   7        1PY         0.44870  -0.01521  -0.53362   0.03225  -0.17609
   8        1PZ        -0.02311   0.00206   0.02583   0.34239   0.01918
   9 3   O  1S          0.02113   0.00159  -0.03956   0.00326   0.00750
  10        1PX         0.02481  -0.00197  -0.04563   0.00248   0.38611
  11        1PY         0.00229  -0.00129  -0.07670  -0.00153   0.11019
  12        1PZ         0.00524   0.00101   0.00208  -0.07835   0.02564
  13 4   C  1S         -0.01202   0.00109   0.03844   0.00223   0.00268
  14        1PX        -0.02968   0.01929   0.00270  -0.00848  -0.00734
  15        1PY         0.04539  -0.01164  -0.00818   0.00601  -0.05565
  16        1PZ         0.01422  -0.00337  -0.00661  -0.28054  -0.00650
  17 5   C  1S          0.24917  -0.43416   0.22179   0.03652  -0.01114
  18        1PX         0.47998  -0.55950   0.33411   0.03445   0.02646
  19        1PY        -0.09913   0.14192   0.02942  -0.01319   0.02872
  20        1PZ        -0.05108   0.03666   0.00862   0.88726  -0.00352
  21 6   H  1S          0.00304  -0.01156   0.00544  -0.00520   0.07257
  22 7   H  1S          0.07594  -0.07423   0.01837   0.00231   0.06120
  23 8   H  1S          0.06610  -0.01304  -0.09098   0.00518   0.50396
  24 9   H  1S          0.56488   0.65661   0.42045   0.00622   0.05379
                           6         7         8         9        10
   6        1PX         1.57092
   7        1PY         0.05357   1.37438
   8        1PZ         0.00465   0.00952   1.78662
   9 3   O  1S         -0.07346  -0.01107  -0.00114   1.95346
  10        1PX        -0.46693  -0.21410  -0.03324  -0.08785   0.34691
  11        1PY        -0.23385   0.09364  -0.01020  -0.25693  -0.01612
  12        1PZ        -0.03265  -0.00864   0.41668  -0.00806   0.00602
  13 4   C  1S         -0.03215  -0.04475  -0.00083   0.01118  -0.22243
  14        1PX         0.01220  -0.00403   0.00281   0.05334   0.02017
  15        1PY         0.01759   0.02116   0.00343  -0.06098   0.29765
  16        1PZ         0.00433  -0.00034  -0.00095   0.00060  -0.00908
  17 5   C  1S          0.05413   0.02030  -0.00859   0.02423  -0.01722
  18        1PX         0.00953  -0.00508  -0.00494  -0.02898  -0.01238
  19        1PY        -0.02019  -0.00437  -0.00119  -0.03342  -0.01574
  20        1PZ        -0.00254   0.00383  -0.29542  -0.00237   0.00802
  21 6   H  1S         -0.01218   0.05502   0.00170   0.00655  -0.01866
  22 7   H  1S         -0.06186  -0.00948  -0.00593   0.01069  -0.08314
  23 8   H  1S          0.54539  -0.52693  -0.00697   0.00866   0.03251
  24 9   H  1S         -0.04284   0.00085   0.00021   0.00633   0.03242
                          11        12        13        14        15
  11        1PY         0.31819
  12        1PZ         0.00280   0.22273
  13 4   C  1S          0.35798  -0.00662   1.22745
  14        1PX         0.33325  -0.00085   0.04726   1.43858
  15        1PY        -0.36287  -0.00468  -0.26244  -0.10502   1.51200
  16        1PZ        -0.00524   0.45579  -0.01897   0.00537  -0.00817
  17 5   C  1S          0.02668  -0.00543   0.36452   0.23176   0.40630
  18        1PX        -0.05753  -0.00441  -0.36610  -0.06898  -0.36466
  19        1PY        -0.08232   0.00029  -0.40060  -0.22164  -0.35181
  20        1PZ         0.00160  -0.07902  -0.01095  -0.00272  -0.01514
  21 6   H  1S          0.02334   0.00196   0.05573   0.03649  -0.02711
  22 7   H  1S         -0.02313   0.00530   0.50560  -0.75242  -0.04657
  23 8   H  1S         -0.06633  -0.00255   0.05628   0.03895  -0.03724
  24 9   H  1S          0.00865   0.00307   0.07018   0.04359   0.03694
                          16        17        18        19        20
  16        1PZ         1.78418
  17 5   C  1S          0.01706   0.98771
  18        1PX        -0.00947   0.01402   1.00175
  19        1PY        -0.01470   0.16122  -0.08179   1.13441
  20        1PZ         0.31110   0.01562   0.00770  -0.00263   1.13242
  21 6   H  1S          0.00142   0.55159  -0.22909   0.75291  -0.00790
  22 7   H  1S          0.01748   0.07250  -0.05192  -0.08505  -0.00080
  23 8   H  1S          0.00306   0.07518   0.06780  -0.03381  -0.00145
  24 9   H  1S         -0.00574  -0.00468   0.00427   0.00002   0.00856
                          21        22        23        24
  21 6   H  1S          0.75205
  22 7   H  1S         -0.00500   0.63485
  23 8   H  1S          0.00754   0.01511   0.63295
  24 9   H  1S          0.00269   0.00866  -0.00211   0.75787
    Full Mulliken population analysis:
                           1         2         3         4         5
   1 1   C  1S          0.99919
   2        1PX         0.00000   1.11695
   3        1PY         0.00000   0.00000   1.00187
   4        1PZ         0.00000   0.00000   0.00000   1.07044
   5 2   C  1S          0.00000   0.00000   0.00000   0.00000   1.24213
   6        1PX         0.00000   0.00000   0.00000   0.00000   0.00000
   7        1PY         0.00000   0.00000   0.00000   0.00000   0.00000
   8        1PZ         0.00000   0.00000   0.00000   0.00000   0.00000
   9 3   O  1S          0.00000   0.00000   0.00000   0.00000   0.00000
  10        1PX         0.00000   0.00000   0.00000   0.00000   0.00000
  11        1PY         0.00000   0.00000   0.00000   0.00000   0.00000
  12        1PZ         0.00000   0.00000   0.00000   0.00000   0.00000
  13 4   C  1S          0.00000   0.00000   0.00000   0.00000   0.00000
  14        1PX         0.00000   0.00000   0.00000   0.00000   0.00000
  15        1PY         0.00000   0.00000   0.00000   0.00000   0.00000
  16        1PZ         0.00000   0.00000   0.00000   0.00000   0.00000
  17 5   C  1S          0.00000   0.00000   0.00000   0.00000   0.00000
  18        1PX         0.00000   0.00000   0.00000   0.00000   0.00000
  19        1PY         0.00000   0.00000   0.00000   0.00000   0.00000
  20        1PZ         0.00000   0.00000   0.00000   0.00000   0.00000
  21 6   H  1S          0.00000   0.00000   0.00000   0.00000   0.00000
  22 7   H  1S          0.00000   0.00000   0.00000   0.00000   0.00000
  23 8   H  1S          0.00000   0.00000   0.00000   0.00000   0.00000
  24 9   H  1S          0.00000   0.00000   0.00000   0.00000   0.00000
                           6         7         8         9        10
   6        1PX         1.57092
   7        1PY         0.00000   1.37438
   8        1PZ         0.00000   0.00000   1.78662
   9 3   O  1S          0.00000   0.00000   0.00000   1.95346
  10        1PX         0.00000   0.00000   0.00000   0.00000   0.34691
  11        1PY         0.00000   0.00000   0.00000   0.00000   0.00000
  12        1PZ         0.00000   0.00000   0.00000   0.00000   0.00000
  13 4   C  1S          0.00000   0.00000   0.00000   0.00000   0.00000
  14        1PX         0.00000   0.00000   0.00000   0.00000   0.00000
  15        1PY         0.00000   0.00000   0.00000   0.00000   0.00000
  16        1PZ         0.00000   0.00000   0.00000   0.00000   0.00000
  17 5   C  1S          0.00000   0.00000   0.00000   0.00000   0.00000
  18        1PX         0.00000   0.00000   0.00000   0.00000   0.00000
  19        1PY         0.00000   0.00000   0.00000   0.00000   0.00000
  20        1PZ         0.00000   0.00000   0.00000   0.00000   0.00000
  21 6   H  1S          0.00000   0.00000   0.00000   0.00000   0.00000
  22 7   H  1S          0.00000   0.00000   0.00000   0.00000   0.00000
  23 8   H  1S          0.00000   0.00000   0.00000   0.00000   0.00000
  24 9   H  1S          0.00000   0.00000   0.00000   0.00000   0.00000
                          11        12        13        14        15
  11        1PY         0.31819
  12        1PZ         0.00000   0.22273
  13 4   C  1S          0.00000   0.00000   1.22745
  14        1PX         0.00000   0.00000   0.00000   1.43858
  15        1PY         0.00000   0.00000   0.00000   0.00000   1.51200
  16        1PZ         0.00000   0.00000   0.00000   0.00000   0.00000
  17 5   C  1S          0.00000   0.00000   0.00000   0.00000   0.00000
  18        1PX         0.00000   0.00000   0.00000   0.00000   0.00000
  19        1PY         0.00000   0.00000   0.00000   0.00000   0.00000
  20        1PZ         0.00000   0.00000   0.00000   0.00000   0.00000
  21 6   H  1S          0.00000   0.00000   0.00000   0.00000   0.00000
  22 7   H  1S          0.00000   0.00000   0.00000   0.00000   0.00000
  23 8   H  1S          0.00000   0.00000   0.00000   0.00000   0.00000
  24 9   H  1S          0.00000   0.00000   0.00000   0.00000   0.00000
                          16        17        18        19        20
  16        1PZ         1.78418
  17 5   C  1S          0.00000   0.98771
  18        1PX         0.00000   0.00000   1.00175
  19        1PY         0.00000   0.00000   0.00000   1.13441
  20        1PZ         0.00000   0.00000   0.00000   0.00000   1.13242
  21 6   H  1S          0.00000   0.00000   0.00000   0.00000   0.00000
  22 7   H  1S          0.00000   0.00000   0.00000   0.00000   0.00000
  23 8   H  1S          0.00000   0.00000   0.00000   0.00000   0.00000
  24 9   H  1S          0.00000   0.00000   0.00000   0.00000   0.00000
                          21        22        23        24
  21 6   H  1S          0.75205
  22 7   H  1S          0.00000   0.63485
  23 8   H  1S          0.00000   0.00000   0.63295
  24 9   H  1S          0.00000   0.00000   0.00000   0.75787
     Gross orbital populations:
                           1
   1 1   C  1S          0.99919
   2        1PX         1.11695
   3        1PY         1.00187
   4        1PZ         1.07044
   5 2   C  1S          1.24213
   6        1PX         1.57092
   7        1PY         1.37438
   8        1PZ         1.78662
   9 3   O  1S          1.95346
  10        1PX         0.34691
  11        1PY         0.31819
  12        1PZ         0.22273
  13 4   C  1S          1.22745
  14        1PX         1.43858
  15        1PY         1.51200
  16        1PZ         1.78418
  17 5   C  1S          0.98771
  18        1PX         1.00175
  19        1PY         1.13441
  20        1PZ         1.13242
  21 6   H  1S          0.75205
  22 7   H  1S          0.63485
  23 8   H  1S          0.63295
  24 9   H  1S          0.75787
          Condensed to atoms (all electrons):
               1          2          3          4          5          6
     1  C    4.188446   0.000000   0.000000   0.000000   0.000000   0.000000
     2  C    0.000000   5.974050   0.000000   0.000000   0.000000   0.000000
     3  O    0.000000   0.000000   2.841291   0.000000   0.000000   0.000000
     4  C    0.000000   0.000000   0.000000   5.962203   0.000000   0.000000
     5  C    0.000000   0.000000   0.000000   0.000000   4.256298   0.000000
     6  H    0.000000   0.000000   0.000000   0.000000   0.000000   0.752047
     7  H    0.000000   0.000000   0.000000   0.000000   0.000000   0.000000
     8  H    0.000000   0.000000   0.000000   0.000000   0.000000   0.000000
     9  H    0.000000   0.000000   0.000000   0.000000   0.000000   0.000000
               7          8          9
     1  C    0.000000   0.000000   0.000000
     2  C    0.000000   0.000000   0.000000
     3  O    0.000000   0.000000   0.000000
     4  C    0.000000   0.000000   0.000000
     5  C    0.000000   0.000000   0.000000
     6  H    0.000000   0.000000   0.000000
     7  H    0.634849   0.000000   0.000000
     8  H    0.000000   0.632950   0.000000
     9  H    0.000000   0.000000   0.757867
 Mulliken charges:
               1
     1  C   -0.188446
     2  C   -1.974050
     3  O    3.158709
     4  C   -1.962203
     5  C   -0.256298
     6  H    0.247953
     7  H    0.365151
     8  H    0.367050
     9  H    0.242133
 Sum of Mulliken charges =   0.00000
 Mulliken charges with hydrogens summed into heavy atoms:
               1
     1  C    0.053687
     2  C   -1.606999
     3  O    3.158709
     4  C   -1.597052
     5  C   -0.008345
 Charge=              0.0000 electrons
 Dipole moment (field-independent basis, Debye):
    X=             -4.0434    Y=            -10.4153    Z=             -0.3830  Tot=             11.1791
 N-N= 1.045717380148D+02 E-N=-1.701833794529D+02  KE=-1.550000781051D+01
 Orbital energies and kinetic energies (alpha):
                                 1                 2
   1         O                -1.942617         -1.391635
   2         O                -1.197927         -1.076750
   3         O                -0.958429         -0.889008
   4         O                -0.823758         -0.592716
   5         O                -0.774693         -0.661767
   6         O                -0.692387         -0.559197
   7         O                -0.651115         -0.524084
   8         O                -0.526559         -0.347704
   9         O                -0.523051         -0.354410
  10         O                -0.440661         -0.418955
  11         O                -0.437330         -0.331204
  12         O                -0.390896         -0.344686
  13         O                -0.266733         -0.257888
  14         V                 0.115871         -0.176119
  15         V                 0.184103         -0.182538
  16         V                 0.195206         -0.185415
  17         V                 0.274961         -0.112649
  18         V                 0.275919         -0.093810
  19         V                 0.307299         -0.099289
  20         V                 0.320741         -0.170717
  21         V                 0.323640         -0.147364
  22         V                 0.358933          0.489329
  23         V                 0.455369          0.522166
  24         V                 0.485126          0.585556
 Total kinetic energy from orbitals=-1.550000781051D+01
 Leave Link  601 at Tue Dec 15 17:07:21 2015, MaxMem=    33554432 cpu:         0.0
 (Enter /home/Applications/g09/g09/l701.exe)
 Compute integral first derivatives.
 ... and contract with generalized density number  6.
 Leave Link  701 at Tue Dec 15 17:07:21 2015, MaxMem=    33554432 cpu:         0.0
 (Enter /home/Applications/g09/g09/l702.exe)
 L702 exits ... SP integral derivatives will be done elsewhere.
 Leave Link  702 at Tue Dec 15 17:07:21 2015, MaxMem=    33554432 cpu:         0.0
 (Enter /home/Applications/g09/g09/l703.exe)
 Compute integral first derivatives, UseDBF=F ICtDFT=           0.
 Integral derivatives from FoFJK, PRISM(SPDF).
 Calling FoFJK, ICntrl=  10005127 FMM=F ISym2X=0 I1Cent= 0 IOpClX= 0 NMat=1 NMatS=1 NMatT=0.
 FoFJK:  IHMeth= 8 ICntrl=10005127 DoSepK=F KAlg= 0 I1Cent=   0 FoldK=F
 IRaf=         0 NMat=   1 IRICut=       1 DoRegI=T DoRafI=F ISym2E= 0.
 FoFCou: FMM=F IPFlag=           0 FMFlag=      100000 FMFlg1=         800
         NFxFlg=           0 DoJE=F BraDBF=F KetDBF=F FulRan=T
         wScrn=  0.000000 ICntrl=10005127 IOpCl=  0 I1Cent=           0 NGrid=           0
         NMat0=    1 NMatS0=      1 NMatT0=    0 NMatD0=    1 NMtDS0=    0 NMtDT0=    0
 Symmetry not used in FoFCou.
 Leave Link  703 at Tue Dec 15 17:07:21 2015, MaxMem=    33554432 cpu:         0.0
 (Enter /home/Applications/g09/g09/l716.exe)
 Dipole        =-1.70344076D+00-4.42936003D+00-1.27278801D-01
 ***** Axes restored to original set *****
 -------------------------------------------------------------------
 Center     Atomic                   Forces (Hartrees/Bohr)
 Number     Number              X              Y              Z
 -------------------------------------------------------------------
      1        6           0.183550846    0.025542974   -0.003692424
      2        6          -0.353602103   -0.119948078    0.001782945
      3        8           0.126955568   -0.065734169    0.006780818
      4        6          -0.352475022    0.148701989   -0.009253443
      5        6           0.250965612   -0.031605682   -0.001776988
      6        1           0.069352332    0.049679875    0.004075020
      7        1          -0.006192429    0.085992017    0.000769686
      8        1           0.007252997   -0.040751786    0.004278338
      9        1           0.074192197   -0.051877140   -0.002963952
 -------------------------------------------------------------------
 Cartesian Forces:  Max     0.353602103 RMS     0.126103034
 Z-matrix is all fixed cartesians, so copy forces.
 Force constants in Cartesian coordinates: 
                1             2             3             4             5 
      1  0.996497D+00
      2 -0.491323D-01  0.723563D+00
      3 -0.250389D-01 -0.229280D-02  0.195802D+00
      4 -0.583874D+00 -0.103546D+00  0.366825D-01  0.975799D+00
      5 -0.831377D-01 -0.213385D+00  0.111635D-01  0.130001D-01  0.800632D+00
      6  0.360422D-01  0.935645D-02 -0.105436D+00 -0.173482D-01 -0.181001D-01
      7 -0.696923D-02  0.288400D-01 -0.241175D-02 -0.278624D+00  0.147868D+00
      8 -0.542637D-02  0.226751D-01 -0.160519D-02  0.193703D+00 -0.329264D+00
      9  0.180227D-02 -0.349114D-02  0.487007D-02 -0.166703D-01  0.185557D-01
     10  0.823564D-02  0.181212D-03  0.587643D-03  0.228695D-01  0.181108D-01
     11  0.346697D-01  0.690668D-03  0.249810D-02 -0.189791D-01 -0.150387D-01
     12  0.197176D-02 -0.415602D-03  0.683168D-03  0.176556D-02  0.161680D-02
     13 -0.151459D+00  0.164647D-01  0.400125D-03  0.786575D-02 -0.339824D-01
     14 -0.770256D-02 -0.319063D+00 -0.139437D-01  0.213437D-03 -0.951009D-03
     15  0.167573D-03 -0.154580D-01 -0.672613D-01 -0.508192D-03  0.375231D-02
     16  0.165169D-01  0.404586D-03 -0.520147D-03  0.760485D-05 -0.391705D-05
     17 -0.225158D-01 -0.570186D-03  0.117227D-02 -0.515401D-05  0.265469D-05
     18 -0.220046D-02 -0.531197D-03  0.119202D-01  0.132356D-03 -0.681732D-04
     19  0.186976D-04  0.171908D-04 -0.416052D-03 -0.685783D-05  0.706059D-05
     20  0.262371D-04  0.241226D-04 -0.583817D-03  0.462857D-05 -0.476542D-05
     21 -0.354221D-03 -0.325675D-03  0.788200D-02 -0.171501D-03  0.176572D-03
     22  0.606979D-02 -0.260111D-01 -0.854412D-03 -0.139429D+00 -0.811195D-01
     23 -0.292497D-02  0.122240D-01 -0.700486D-03 -0.787241D-01 -0.266021D+00
     24  0.848851D-03  0.449616D-02  0.290185D-01 -0.670816D-02 -0.126483D-01
     25 -0.285035D+00  0.132782D+00 -0.842904D-02 -0.460797D-02  0.192578D-01
     26  0.136144D+00 -0.226159D+00  0.429220D-02 -0.566673D-02  0.240296D-01
     27 -0.132392D-01  0.866184D-02 -0.774787D-01  0.282602D-02 -0.444832D-02
                6             7             8             9            10 
      6  0.190416D+00
      7 -0.109323D-01  0.594997D+00
      8  0.157639D-01  0.570109D-01  0.696422D+00
      9 -0.495021D-01  0.125752D-01 -0.176823D-01  0.629555D-01
     10 -0.360613D-03 -0.343566D+00 -0.249550D+00  0.333428D-02  0.112209D+01
     11  0.406418D-03 -0.204737D+00 -0.398358D+00  0.545656D-02  0.838186D-02
     12  0.465312D-03 -0.834318D-03  0.166911D-02 -0.541782D-01  0.129981D-01
     13 -0.191520D-02 -0.728048D-02  0.599670D-02 -0.141948D-02 -0.642988D+00
     14 -0.347158D-03 -0.302468D-01  0.251335D-01 -0.234809D-02  0.117441D+00
     15 -0.627775D-03  0.325807D-03 -0.783142D-03  0.872219D-02 -0.214861D-01
     16  0.101643D-03  0.531592D-05 -0.559927D-05 -0.189964D-03 -0.449685D-02
     17 -0.688865D-04 -0.179410D-04  0.188973D-04  0.641121D-03  0.603436D-02
     18  0.176902D-02 -0.274319D-03  0.288941D-03  0.980277D-02 -0.185024D-02
     19  0.218932D-03  0.213708D-01 -0.177622D-01 -0.148154D-02 -0.162160D+00
     20 -0.147764D-03  0.108558D-01 -0.902394D-02 -0.959081D-03  0.993968D-01
     21  0.547506D-02 -0.216353D-03  0.207025D-03  0.438246D-02  0.698752D-02
     22 -0.470367D-02  0.200510D-01  0.160016D-01  0.170423D-02  0.919828D-05
     23 -0.674965D-02 -0.960903D-02 -0.767853D-02 -0.993592D-03  0.000000D+00
     24 -0.696100D-01  0.140702D-02  0.138743D-02  0.475335D-02 -0.122597D-03
     25 -0.110278D-02  0.152186D-04  0.317907D-04  0.345372D-03  0.622377D-05
     26 -0.113283D-03  0.361699D-04  0.755567D-04  0.820842D-03  0.368781D-05
     27  0.270506D-01  0.361060D-03  0.754231D-03  0.819391D-02 -0.879765D-04
               11            12            13            14            15 
     11  0.922062D+00
     12  0.328925D-02  0.224559D+00
     13  0.954853D-01 -0.223132D-01  0.105774D+01
     14 -0.229232D+00  0.382537D-02  0.190123D-01  0.720487D+00
     15  0.535173D-02 -0.123498D+00  0.123337D-01  0.467384D-02  0.212400D+00
     16 -0.186426D-01  0.899964D-03 -0.287893D+00 -0.126539D+00  0.676341D-02
     17  0.251948D-01  0.968827D-05 -0.128336D+00 -0.210635D+00  0.251088D-02
     18 -0.311373D-02  0.315158D-01  0.104141D-01  0.571439D-02 -0.834721D-01
     19  0.103825D+00  0.594428D-02  0.654415D-02  0.274711D-01  0.102085D-02
     20 -0.305321D+00 -0.990311D-02  0.334418D-02  0.137946D-01 -0.114366D-02
     21 -0.139337D-01 -0.854187D-01 -0.487979D-03  0.310473D-02  0.351454D-01
     22 -0.947023D-05 -0.293648D-03  0.413985D-04 -0.213232D-04  0.553316D-03
     23  0.000000D+00 -0.945504D-05 -0.385002D-04  0.198304D-04 -0.514579D-03
     24  0.126222D-03  0.391382D-02  0.491782D-03 -0.253303D-03  0.657296D-02
     25  0.572219D-05 -0.138489D-03  0.174282D-01  0.371388D-03  0.829685D-03
     26  0.339061D-05 -0.820597D-04  0.220540D-01  0.447377D-03  0.161066D-02
     27 -0.808865D-04  0.195762D-02  0.249623D-02 -0.426059D-03  0.120184D-01
               16            17            18            19            20 
     16  0.275863D+00
     17  0.144800D+00  0.185926D+00
     18 -0.716566D-02 -0.345307D-02  0.453909D-01
     19 -0.144220D-04  0.486737D-04  0.744223D-03  0.134248D+00
     20 -0.202374D-04  0.683004D-04  0.104432D-02 -0.113607D+00  0.300463D+00
     21  0.273221D-03 -0.922110D-03 -0.140991D-01 -0.603069D-02  0.116931D-01
     22  0.000000D+00  0.000000D+00  0.000000D+00  0.000000D+00  0.000000D+00
     23  0.000000D+00  0.000000D+00  0.000000D+00  0.000000D+00  0.000000D+00
     24  0.000000D+00  0.000000D+00  0.000000D+00  0.000000D+00  0.000000D+00
     25  0.114935D-04 -0.778948D-05  0.200036D-03  0.000000D+00  0.000000D+00
     26  0.681034D-05 -0.461555D-05  0.118529D-03  0.000000D+00  0.000000D+00
     27 -0.162468D-03  0.110109D-03 -0.282762D-02  0.000000D+00  0.000000D+00
               21            22            23            24            25 
     21  0.466329D-01
     22  0.000000D+00  0.113299D+00
     23  0.000000D+00  0.912579D-01  0.261365D+00
     24  0.000000D+00  0.457341D-02  0.805709D-02  0.369838D-01
     25  0.000000D+00 -0.412740D-04  0.383845D-04 -0.490304D-03  0.272223D+00
     26  0.000000D+00 -0.980956D-04  0.912281D-04 -0.116530D-02 -0.152479D+00
     27  0.000000D+00 -0.979222D-03  0.910668D-03 -0.116324D-01  0.878551D-02
               26            27 
     26  0.201516D+00
     27 -0.548158D-02  0.427183D-01
 Leave Link  716 at Tue Dec 15 17:07:21 2015, MaxMem=    33554432 cpu:         0.0
 (Enter /home/Applications/g09/g09/l103.exe)

 GradGradGradGradGradGradGradGradGradGradGradGradGradGradGradGradGradGrad
 Berny optimization.
 Search for a local minimum.
 Step number   1 out of a maximum of    2
 All quantities printed in internal units (Hartrees-Bohrs-Radians)
 Second derivative matrix not updated -- first step.
 ITU=  0
     Eigenvalues ---    0.01821   0.03033   0.07070   0.07349   0.07913
     Eigenvalues ---    0.09669   0.12997   0.13304   0.15131   0.24285
     Eigenvalues ---    0.28052   0.32647   0.40622   0.43160   0.61629
     Eigenvalues ---    0.85787   1.05870   1.25791   1.43818   1.67753
     Eigenvalues ---    1.88298
 Quadratic step=1.522D+00 exceeds max=3.000D-01 adjusted using Lamda=-1.081D+00.
 Angle between NR and scaled steps=  34.96 degrees.
 Angle between quadratic step and forces=  20.31 degrees.
 Linear search not attempted -- first point.
 TrRot= -0.004671 -0.003336 -0.000166  0.000226  0.000032  0.000226
 MatCor failed.
 Variable       Old X    -DE/DX   Delta X   Delta X   Delta X     New X
                                 (Linear)    (Quad)   (Total)
    X1        1.81342   0.18355   0.00000   0.06571   0.06168   1.87510
    Y1       -1.43221   0.02554   0.00000  -0.00781  -0.01030  -1.44250
    Z1       -0.08888  -0.00369   0.00000   0.00310   0.00287  -0.08600
    X2       -0.61745  -0.35360   0.00000  -0.14204  -0.14577  -0.76322
    Y2       -2.00471  -0.11995   0.00000  -0.07163  -0.07531  -2.08002
    Z2        0.07093   0.00178   0.00000  -0.00228  -0.00242   0.06851
    X3       -2.24552   0.12696   0.00000   0.04838   0.04370  -2.20182
    Y3        0.04785  -0.06573   0.00000  -0.03157  -0.03589   0.01195
    Z3       -0.04626   0.00678   0.00000   0.00386   0.00376  -0.04250
    X4       -0.64170  -0.35248   0.00000  -0.12980  -0.13540  -0.77710
    Y4        1.97852   0.14870   0.00000   0.08455   0.08087   2.05939
    Z4       -0.05828  -0.00925   0.00000  -0.00331  -0.00345  -0.06174
    X5        1.74749   0.25097   0.00000   0.09404   0.08873   1.83622
    Y5        1.40625  -0.03161   0.00000   0.01230   0.00980   1.41605
    Z5        0.02544  -0.00178   0.00000  -0.00472  -0.00494   0.02050
    X6        3.36295   0.06935   0.00000   0.07047   0.06461   3.42756
    Y6        2.59585   0.04968   0.00000   0.04370   0.04191   2.63777
    Z6       -0.02106   0.00408   0.00000   0.00346   0.00318  -0.01787
    X7       -1.56539  -0.00619   0.00000  -0.01972  -0.02615  -1.59154
    Y7        3.79863   0.08599   0.00000   0.08962   0.08556   3.88420
    Z7        0.02777   0.00077   0.00000   0.00181   0.00169   0.02947
    X8       -1.53601   0.00725   0.00000  -0.01093  -0.01380  -1.54981
    Y8       -3.93222  -0.04075   0.00000  -0.04978  -0.05381  -3.98603
    Z8       -0.00264   0.00428   0.00000   0.00199   0.00187  -0.00077
    X9        3.37179   0.07419   0.00000   0.06584   0.06239   3.43418
    Y9       -2.67032  -0.05188   0.00000  -0.04105  -0.04283  -2.71315
    Z9       -0.03053  -0.00296   0.00000  -0.00230  -0.00257  -0.03310
         Item               Value     Threshold  Converged?
 Maximum Force            0.353602     0.000450     NO 
 RMS     Force            0.126103     0.000300     NO 
 Maximum Displacement     0.145772     0.001800     NO 
 RMS     Displacement     0.057642     0.001200     NO 
 Predicted change in Energy=-1.408376D-01
 GradGradGradGradGradGradGradGradGradGradGradGradGradGradGradGradGradGrad

 Leave Link  103 at Tue Dec 15 17:07:21 2015, MaxMem=    33554432 cpu:         0.0
 (Enter /home/Applications/g09/g09/l9999.exe)
 1\1\GINC-DUSTIN-DESKTOP\Force\RAM1-FC\STO-3G\C4H4O1\DUSTIN\15-Dec-2015
 \0\\#P AM1(Input,print) CIS(Singlets,NStates=15) pop(full) force\\AM1-
 Reparam Input\\0,1\C,0.959619,-0.757892,-0.047032\C,-0.326741,-1.06084
 7,0.037537\O,-1.188279,0.025319,-0.024479\C,-0.339572,1.046986,-0.0308
 43\C,0.924731,0.744158,0.013463\H,1.779597,1.373667,-0.011142\H,-0.828
 37,2.01015,0.014697\H,-0.812821,-2.080841,-0.001397\H,1.784273,-1.4130
 72,-0.016157\\Version=ES64L-G09RevD.01\State=1-A\HF=2.1038886\RMSD=8.0
 04e-09\RMSF=1.261e-01\Dipole=-4.7450614,0.0820943,-0.1216301\PG=C01 [X
 (C4H4O1)]\\@


 POCKETA-POCKETA
 BARON VON RICHTOFEN
 SLAUGHTERED THE ALLIES WITH
 HARDLY A CARE.
 KILLED EIGHTY-ONE WITH HIS
 BLOOD-COLORED TRIPLANE, THEN
 UN-AEROBATICALLY
 PLUNGED FROM THE AIR.
   -- TONY HOFFMAN
 Job cpu time:       0 days  0 hours  0 minutes  0.7 seconds.
 File lengths (MBytes):  RWF=      7 Int=      0 D2E=      0 Chk=      2 Scr=      1
 Normal termination of Gaussian 09 at Tue Dec 15 17:07:21 2015.
