 Entering Gaussian System, Link 0=g09
 Input=FuranDFT_9.com
 Output=FuranDFT_9.log
 Initial command:
 /home/Applications/g09/g09/l1.exe "/home/Applications/g09/scratch/Gau-5507.inp" -scrdir="/home/Applications/g09/scratch/"
 Entering Link 1 = /home/Applications/g09/g09/l1.exe PID=      5509.
  
 Copyright (c) 1988,1990,1992,1993,1995,1998,2003,2009,2013,
            Gaussian, Inc.  All Rights Reserved.
  
 This is part of the Gaussian(R) 09 program.  It is based on
 the Gaussian(R) 03 system (copyright 2003, Gaussian, Inc.),
 the Gaussian(R) 98 system (copyright 1998, Gaussian, Inc.),
 the Gaussian(R) 94 system (copyright 1995, Gaussian, Inc.),
 the Gaussian 92(TM) system (copyright 1992, Gaussian, Inc.),
 the Gaussian 90(TM) system (copyright 1990, Gaussian, Inc.),
 the Gaussian 88(TM) system (copyright 1988, Gaussian, Inc.),
 the Gaussian 86(TM) system (copyright 1986, Carnegie Mellon
 University), and the Gaussian 82(TM) system (copyright 1983,
 Carnegie Mellon University). Gaussian is a federally registered
 trademark of Gaussian, Inc.
  
 This software contains proprietary and confidential information,
 including trade secrets, belonging to Gaussian, Inc.
  
 This software is provided under written license and may be
 used, copied, transmitted, or stored only in accord with that
 written license.
  
 The following legend is applicable only to US Government
 contracts under FAR:
  
                    RESTRICTED RIGHTS LEGEND
  
 Use, reproduction and disclosure by the US Government is
 subject to restrictions as set forth in subparagraphs (a)
 and (c) of the Commercial Computer Software - Restricted
 Rights clause in FAR 52.227-19.
  
 Gaussian, Inc.
 340 Quinnipiac St., Bldg. 40, Wallingford CT 06492
  
  
 ---------------------------------------------------------------
 Warning -- This program may not be used in any manner that
 competes with the business of Gaussian, Inc. or will provide
 assistance to any competitor of Gaussian, Inc.  The licensee
 of this program is prohibited from giving any competitor of
 Gaussian, Inc. access to this program.  By using this program,
 the user acknowledges that Gaussian, Inc. is engaged in the
 business of creating and licensing software in the field of
 computational chemistry and represents and warrants to the
 licensee that it is not a competitor of Gaussian, Inc. and that
 it will not use this program in any manner prohibited above.
 ---------------------------------------------------------------
  

 Cite this work as:
 Gaussian 09, Revision D.01,
 M. J. Frisch, G. W. Trucks, H. B. Schlegel, G. E. Scuseria, 
 M. A. Robb, J. R. Cheeseman, G. Scalmani, V. Barone, B. Mennucci, 
 G. A. Petersson, H. Nakatsuji, M. Caricato, X. Li, H. P. Hratchian, 
 A. F. Izmaylov, J. Bloino, G. Zheng, J. L. Sonnenberg, M. Hada, 
 M. Ehara, K. Toyota, R. Fukuda, J. Hasegawa, M. Ishida, T. Nakajima, 
 Y. Honda, O. Kitao, H. Nakai, T. Vreven, J. A. Montgomery, Jr., 
 J. E. Peralta, F. Ogliaro, M. Bearpark, J. J. Heyd, E. Brothers, 
 K. N. Kudin, V. N. Staroverov, T. Keith, R. Kobayashi, J. Normand, 
 K. Raghavachari, A. Rendell, J. C. Burant, S. S. Iyengar, J. Tomasi, 
 M. Cossi, N. Rega, J. M. Millam, M. Klene, J. E. Knox, J. B. Cross, 
 V. Bakken, C. Adamo, J. Jaramillo, R. Gomperts, R. E. Stratmann, 
 O. Yazyev, A. J. Austin, R. Cammi, C. Pomelli, J. W. Ochterski, 
 R. L. Martin, K. Morokuma, V. G. Zakrzewski, G. A. Voth, 
 P. Salvador, J. J. Dannenberg, S. Dapprich, A. D. Daniels, 
 O. Farkas, J. B. Foresman, J. V. Ortiz, J. Cioslowski, 
 and D. J. Fox, Gaussian, Inc., Wallingford CT, 2013.
 
 ******************************************
 Gaussian 09:  ES64L-G09RevD.01 24-Apr-2013
                15-Dec-2015 
 ******************************************
 -------------------------------------------------------
 #P B3LYP/3-21G CIS(Singlets,NStates=15) pop(full) force
 -------------------------------------------------------
 1/10=7,30=1,38=1/1,3;
 2/12=2,17=6,18=5,40=1/2;
 3/5=5,11=9,16=1,25=1,30=1,71=1,74=-5/1,2,8,3;
 4//1;
 5/5=2,38=5/2;
 8/6=1,10=1,108=15/1;
 9/15=2,41=15,42=1,48=1/14;
 10/5=4/2;
 6/7=3,18=1/1;
 7/12=6,13=5,29=1/1,2,3,16;
 1/10=7,30=1/3;
 99//99;
 Leave Link    1 at Tue Dec 15 16:12:08 2015, MaxMem=           0 cpu:         0.0
 (Enter /home/Applications/g09/g09/l101.exe)
 --------
 FuranDFT
 --------
 Symbolic Z-matrix:
 Charge =  0 Multiplicity = 1
 6                     0.988    -0.66656  -0.00728 
 6                    -0.31878  -1.05403   0.00862 
 8                    -1.18833   0.03972   0.01133 
 6                    -0.31402   1.08203  -0.00924 
 6                     0.96835   0.70346  -0.01875 
 1                     1.80206   1.34343  -0.02526 
 1                    -0.87089   2.05004  -0.03286 
 1                    -0.85936  -2.00286   0.02937 
 1                     1.83723  -1.37353   0.02088 
 
 NAtoms=      9 NQM=        9 NQMF=       0 NMMI=      0 NMMIF=      0
                NMic=       0 NMicF=      0.
                    Isotopes and Nuclear Properties:
 (Nuclear quadrupole moments (NQMom) in fm**2, nuclear magnetic moments (NMagM)
  in nuclear magnetons)

  Atom         1           2           3           4           5           6           7           8           9
 IAtWgt=          12          12          16          12          12           1           1           1           1
 AtmWgt=  12.0000000  12.0000000  15.9949146  12.0000000  12.0000000   1.0078250   1.0078250   1.0078250   1.0078250
 NucSpn=           0           0           0           0           0           1           1           1           1
 AtZEff=   0.0000000   0.0000000   0.0000000   0.0000000   0.0000000   0.0000000   0.0000000   0.0000000   0.0000000
 NQMom=    0.0000000   0.0000000   0.0000000   0.0000000   0.0000000   0.0000000   0.0000000   0.0000000   0.0000000
 NMagM=    0.0000000   0.0000000   0.0000000   0.0000000   0.0000000   2.7928460   2.7928460   2.7928460   2.7928460
 AtZNuc=   6.0000000   6.0000000   8.0000000   6.0000000   6.0000000   1.0000000   1.0000000   1.0000000   1.0000000
 Leave Link  101 at Tue Dec 15 16:12:08 2015, MaxMem=    33554432 cpu:         0.0
 (Enter /home/Applications/g09/g09/l103.exe)

 GradGradGradGradGradGradGradGradGradGradGradGradGradGradGradGradGradGrad
 Berny optimization.
 Initialization pass.
 Trust Radius=3.00D-01 FncErr=1.00D-07 GrdErr=1.00D-07
 Number of steps in this run=      2 maximum allowed number of steps=      2.
 GradGradGradGradGradGradGradGradGradGradGradGradGradGradGradGradGradGrad

 Leave Link  103 at Tue Dec 15 16:12:08 2015, MaxMem=    33554432 cpu:         0.0
 (Enter /home/Applications/g09/g09/l202.exe)
                          Input orientation:                          
 ---------------------------------------------------------------------
 Center     Atomic      Atomic             Coordinates (Angstroms)
 Number     Number       Type             X           Y           Z
 ---------------------------------------------------------------------
      1          6           0        0.988001   -0.666563   -0.007277
      2          6           0       -0.318781   -1.054031    0.008621
      3          8           0       -1.188327    0.039717    0.011334
      4          6           0       -0.314021    1.082031   -0.009239
      5          6           0        0.968351    0.703462   -0.018750
      6          1           0        1.802061    1.343429   -0.025263
      7          1           0       -0.870885    2.050039   -0.032863
      8          1           0       -0.859361   -2.002859    0.029371
      9          1           0        1.837234   -1.373533    0.020882
 ---------------------------------------------------------------------
                    Distance matrix (angstroms):
                    1          2          3          4          5
     1  C    0.000000
     2  C    1.363108   0.000000
     3  O    2.288139   1.397284   0.000000
     4  C    2.180102   2.136142   1.360607   0.000000
     5  C    1.370214   2.178587   2.256706   1.337117   0.000000
     6  H    2.168660   3.201083   3.262426   2.132226   1.051034
     7  H    3.291814   3.153060   2.035711   1.117003   2.279530
     8  H    2.280302   1.092214   2.068976   3.132959   3.266040
     9  H    1.105349   2.179595   3.339369   3.264751   2.251763
                    6          7          8          9
     6  H    0.000000
     7  H    2.764778   0.000000
     8  H    4.275955   4.053392   0.000000
     9  H    2.717581   4.365506   2.769070   0.000000
 Stoichiometry    C4H4O
 Framework group  C1[X(C4H4O)]
 Deg. of freedom    21
 Full point group                 C1      NOp   1
 Largest Abelian subgroup         C1      NOp   1
 Largest concise Abelian subgroup C1      NOp   1
                         Standard orientation:                         
 ---------------------------------------------------------------------
 Center     Atomic      Atomic             Coordinates (Angstroms)
 Number     Number       Type             X           Y           Z
 ---------------------------------------------------------------------
      1          6           0        1.167013   -0.258812   -0.004737
      2          6           0        0.108758   -1.117973   -0.004070
      3          8           0       -1.113809   -0.441459    0.003735
      4          6           0       -0.706110    0.856629    0.002176
      5          6           0        0.623408    0.998950   -0.000937
      6          1           0        1.147896    1.909734    0.006692
      7          1           0       -1.591595    1.537298   -0.015170
      8          1           0       -0.026602   -2.201753    0.001494
      9          1           0        2.222362   -0.586368    0.022516
 ---------------------------------------------------------------------
 Rotational constants (GHZ):      9.9933246      8.9918390      4.7332085
 Leave Link  202 at Tue Dec 15 16:12:08 2015, MaxMem=    33554432 cpu:         0.0
 (Enter /home/Applications/g09/g09/l301.exe)
 Standard basis: 3-21G (6D, 7F)
 Ernie: Thresh=  0.10000D-02 Tol=  0.10000D-05 Strict=F.
 There are    53 symmetry adapted cartesian basis functions of A   symmetry.
 There are    53 symmetry adapted basis functions of A   symmetry.
    53 basis functions,    87 primitive gaussians,    53 cartesian basis functions
    18 alpha electrons       18 beta electrons
       nuclear repulsion energy       161.5438628476 Hartrees.
 IExCor=  402 DFT=T Ex+Corr=B3LYP ExCW=0 ScaHFX=  0.200000
 ScaDFX=  0.800000  0.720000  1.000000  0.810000 ScalE2=  1.000000  1.000000
 IRadAn=      0 IRanWt=     -1 IRanGd=            0 ICorTp=0 IEmpDi=  4
 NAtoms=    9 NActive=    9 NUniq=    9 SFac= 1.00D+00 NAtFMM=   60 NAOKFM=F Big=F
 Integral buffers will be    131072 words long.
 Regular integral format.
 Two-electron integral symmetry is turned on.
 Leave Link  301 at Tue Dec 15 16:12:08 2015, MaxMem=    33554432 cpu:         0.0
 (Enter /home/Applications/g09/g09/l302.exe)
 NPDir=0 NMtPBC=     1 NCelOv=     1 NCel=       1 NClECP=     1 NCelD=      1
         NCelK=      1 NCelE2=     1 NClLst=     1 CellRange=     0.0.
 One-electron integrals computed using PRISM.
 NBasis=    53 RedAO= T EigKep=  2.71D-03  NBF=    53
 NBsUse=    53 1.00D-06 EigRej= -1.00D+00 NBFU=    53
 Precomputing XC quadrature grid using
 IXCGrd= 4 IRadAn=           0 IRanWt=          -1 IRanGd=           0 AccXCQ= 0.00D+00.
 Generated NRdTot=       0 NPtTot=           0 NUsed=           0 NTot=          32
 NSgBfM=    53    53    53    53    53 MxSgAt=     9 MxSgA2=     9.
 Leave Link  302 at Tue Dec 15 16:12:08 2015, MaxMem=    33554432 cpu:         0.1
 (Enter /home/Applications/g09/g09/l308.exe)
 Leave Link  308 at Tue Dec 15 16:12:08 2015, MaxMem=    33554432 cpu:         0.0
 (Enter /home/Applications/g09/g09/l303.exe)
 DipDrv:  MaxL=1.
 Leave Link  303 at Tue Dec 15 16:12:08 2015, MaxMem=    33554432 cpu:         0.0
 (Enter /home/Applications/g09/g09/l401.exe)
 ExpMin= 1.83D-01 ExpMax= 3.22D+02 ExpMxC= 3.22D+02 IAcc=1 IRadAn=         1 AccDes= 0.00D+00
 Harris functional with IExCor=  402 and IRadAn=       1 diagonalized for initial guess.
 HarFok:  IExCor=  402 AccDes= 0.00D+00 IRadAn=         1 IDoV= 1 UseB2=F ITyADJ=14
 ICtDFT=  3500011 ScaDFX=  1.000000  1.000000  1.000000  1.000000
 FoFCou: FMM=F IPFlag=           0 FMFlag=      100000 FMFlg1=           0
         NFxFlg=           0 DoJE=T BraDBF=F KetDBF=T FulRan=T
         wScrn=  0.000000 ICntrl=     500 IOpCl=  0 I1Cent=   200000004 NGrid=           0
         NMat0=    1 NMatS0=      1 NMatT0=    0 NMatD0=    1 NMtDS0=    0 NMtDT0=    0
 Petite list used in FoFCou.
 Harris En= -228.732356720889    
 JPrj=0 DoOrth=F DoCkMO=F.
 Leave Link  401 at Tue Dec 15 16:12:09 2015, MaxMem=    33554432 cpu:         0.3
 (Enter /home/Applications/g09/g09/l502.exe)
 Closed shell SCF:
 Using DIIS extrapolation, IDIIS=  1040.
 Integral symmetry usage will be decided dynamically.
 Keep R1 ints in memory in canonical form, NReq=1925595.
 IVT=       27707 IEndB=       27707 NGot=    33554432 MDV=    32502130
 LenX=    32502130 LenY=    32498880
 Requested convergence on RMS density matrix=1.00D-08 within 128 cycles.
 Requested convergence on MAX density matrix=1.00D-06.
 Requested convergence on             energy=1.00D-06.
 No special actions if energy rises.
 FoFCou: FMM=F IPFlag=           0 FMFlag=           0 FMFlg1=           0
         NFxFlg=           0 DoJE=F BraDBF=F KetDBF=F FulRan=T
         wScrn=  0.000000 ICntrl=     600 IOpCl=  0 I1Cent=           0 NGrid=           0
         NMat0=    1 NMatS0=   1431 NMatT0=    0 NMatD0=    1 NMtDS0=    0 NMtDT0=    0
 Symmetry not used in FoFCou.
 Integral accuracy reduced to 1.0D-05 until final iterations.

 Cycle   1  Pass 0  IDiag  1:
 E= -228.649716394196    
 DIIS: error= 3.45D-02 at cycle   1 NSaved=   1.
 NSaved= 1 IEnMin= 1 EnMin= -228.649716394196     IErMin= 1 ErrMin= 3.45D-02
 ErrMax= 3.45D-02  0.00D+00 EMaxC= 1.00D-01 BMatC= 8.68D-02 BMatP= 8.68D-02
 IDIUse=3 WtCom= 6.55D-01 WtEn= 3.45D-01
 Coeff-Com:  0.100D+01
 Coeff-En:   0.100D+01
 Coeff:      0.100D+01
 Gap=     0.216 Goal=   None    Shift=    0.000
 GapD=    0.216 DampG=1.000 DampE=0.500 DampFc=0.5000 IDamp=-1.
 Damping current iteration by 5.00D-01
 RMSDP=1.32D-02 MaxDP=1.28D-01              OVMax= 2.27D-01

 Cycle   2  Pass 0  IDiag  1:
 E= -228.680460874730     Delta-E=       -0.030744480534 Rises=F Damp=T
 DIIS: error= 1.42D-02 at cycle   2 NSaved=   2.
 NSaved= 2 IEnMin= 2 EnMin= -228.680460874730     IErMin= 2 ErrMin= 1.42D-02
 ErrMax= 1.42D-02  0.00D+00 EMaxC= 1.00D-01 BMatC= 1.14D-02 BMatP= 8.68D-02
 IDIUse=3 WtCom= 8.58D-01 WtEn= 1.42D-01
 Coeff-Com:  0.156D+00 0.844D+00
 Coeff-En:   0.268D+00 0.732D+00
 Coeff:      0.172D+00 0.828D+00
 Gap=     0.234 Goal=   None    Shift=    0.000
 RMSDP=4.73D-03 MaxDP=3.79D-02 DE=-3.07D-02 OVMax= 1.90D-01

 Cycle   3  Pass 0  IDiag  1:
 E= -228.728903901853     Delta-E=       -0.048443027123 Rises=F Damp=F
 DIIS: error= 1.72D-02 at cycle   3 NSaved=   3.
 NSaved= 3 IEnMin= 3 EnMin= -228.728903901853     IErMin= 2 ErrMin= 1.42D-02
 ErrMax= 1.72D-02  0.00D+00 EMaxC= 1.00D-01 BMatC= 1.20D-02 BMatP= 1.14D-02
 IDIUse=3 WtCom= 8.28D-01 WtEn= 1.72D-01
 Coeff-Com:  0.136D-01 0.504D+00 0.483D+00
 Coeff-En:   0.000D+00 0.000D+00 0.100D+01
 Coeff:      0.112D-01 0.417D+00 0.572D+00
 Gap=     0.240 Goal=   None    Shift=    0.000
 RMSDP=2.84D-03 MaxDP=2.45D-02 DE=-4.84D-02 OVMax= 5.67D-02

 Cycle   4  Pass 0  IDiag  1:
 E= -228.737547933155     Delta-E=       -0.008644031302 Rises=F Damp=F
 DIIS: error= 8.19D-03 at cycle   4 NSaved=   4.
 NSaved= 4 IEnMin= 4 EnMin= -228.737547933155     IErMin= 4 ErrMin= 8.19D-03
 ErrMax= 8.19D-03  0.00D+00 EMaxC= 1.00D-01 BMatC= 2.38D-03 BMatP= 1.14D-02
 IDIUse=3 WtCom= 9.18D-01 WtEn= 8.19D-02
 Coeff-Com:  0.648D-02 0.711D-01 0.319D+00 0.604D+00
 Coeff-En:   0.000D+00 0.000D+00 0.181D+00 0.819D+00
 Coeff:      0.595D-02 0.653D-01 0.307D+00 0.621D+00
 Gap=     0.245 Goal=   None    Shift=    0.000
 RMSDP=8.54D-04 MaxDP=9.13D-03 DE=-8.64D-03 OVMax= 1.77D-02

 Cycle   5  Pass 0  IDiag  1:
 E= -228.739349516146     Delta-E=       -0.001801582991 Rises=F Damp=F
 DIIS: error= 2.08D-03 at cycle   5 NSaved=   5.
 NSaved= 5 IEnMin= 5 EnMin= -228.739349516146     IErMin= 5 ErrMin= 2.08D-03
 ErrMax= 2.08D-03  0.00D+00 EMaxC= 1.00D-01 BMatC= 1.30D-04 BMatP= 2.38D-03
 IDIUse=3 WtCom= 9.79D-01 WtEn= 2.08D-02
 Coeff-Com:  0.392D-02 0.707D-02 0.150D+00 0.376D+00 0.463D+00
 Coeff-En:   0.000D+00 0.000D+00 0.000D+00 0.000D+00 0.100D+01
 Coeff:      0.384D-02 0.692D-02 0.147D+00 0.368D+00 0.474D+00
 Gap=     0.245 Goal=   None    Shift=    0.000
 RMSDP=1.75D-04 MaxDP=1.96D-03 DE=-1.80D-03 OVMax= 3.20D-03

 Cycle   6  Pass 0  IDiag  1:
 E= -228.739451152167     Delta-E=       -0.000101636021 Rises=F Damp=F
 DIIS: error= 1.74D-04 at cycle   6 NSaved=   6.
 NSaved= 6 IEnMin= 6 EnMin= -228.739451152167     IErMin= 6 ErrMin= 1.74D-04
 ErrMax= 1.74D-04  0.00D+00 EMaxC= 1.00D-01 BMatC= 1.07D-06 BMatP= 1.30D-04
 IDIUse=3 WtCom= 9.98D-01 WtEn= 1.74D-03
 Coeff-Com:  0.117D-02-0.371D-02 0.115D-01 0.430D-01 0.118D+00 0.830D+00
 Coeff-En:   0.000D+00 0.000D+00 0.000D+00 0.000D+00 0.000D+00 0.100D+01
 Coeff:      0.117D-02-0.370D-02 0.115D-01 0.429D-01 0.118D+00 0.830D+00
 Gap=     0.245 Goal=   None    Shift=    0.000
 RMSDP=2.79D-05 MaxDP=3.81D-04 DE=-1.02D-04 OVMax= 4.81D-04

 Cycle   7  Pass 0  IDiag  1:
 E= -228.739452041578     Delta-E=       -0.000000889411 Rises=F Damp=F
 DIIS: error= 6.64D-05 at cycle   7 NSaved=   7.
 NSaved= 7 IEnMin= 7 EnMin= -228.739452041578     IErMin= 7 ErrMin= 6.64D-05
 ErrMax= 6.64D-05  0.00D+00 EMaxC= 1.00D-01 BMatC= 1.72D-07 BMatP= 1.07D-06
 IDIUse=1 WtCom= 1.00D+00 WtEn= 0.00D+00
 Coeff-Com:  0.635D-03-0.229D-02 0.379D-02 0.175D-01 0.585D-01 0.480D+00
 Coeff-Com:  0.442D+00
 Coeff:      0.635D-03-0.229D-02 0.379D-02 0.175D-01 0.585D-01 0.480D+00
 Coeff:      0.442D+00
 Gap=     0.245 Goal=   None    Shift=    0.000
 RMSDP=7.54D-06 MaxDP=7.65D-05 DE=-8.89D-07 OVMax= 2.26D-04

 Initial convergence to 1.0D-05 achieved.  Increase integral accuracy.
 Cycle   8  Pass 1  IDiag  1:
 E= -228.739457015788     Delta-E=       -0.000004974210 Rises=F Damp=F
 DIIS: error= 1.40D-05 at cycle   1 NSaved=   1.
 NSaved= 1 IEnMin= 1 EnMin= -228.739457015788     IErMin= 1 ErrMin= 1.40D-05
 ErrMax= 1.40D-05  0.00D+00 EMaxC= 1.00D-01 BMatC= 1.06D-08 BMatP= 1.06D-08
 IDIUse=1 WtCom= 1.00D+00 WtEn= 0.00D+00
 Coeff-Com:  0.100D+01
 Coeff:      0.100D+01
 Gap=     0.245 Goal=   None    Shift=    0.000
 RMSDP=7.54D-06 MaxDP=7.65D-05 DE=-4.97D-06 OVMax= 1.09D-04

 Cycle   9  Pass 1  IDiag  1:
 E= -228.739457015839     Delta-E=       -0.000000000052 Rises=F Damp=F
 DIIS: error= 1.71D-05 at cycle   2 NSaved=   2.
 NSaved= 2 IEnMin= 2 EnMin= -228.739457015839     IErMin= 1 ErrMin= 1.40D-05
 ErrMax= 1.71D-05  0.00D+00 EMaxC= 1.00D-01 BMatC= 1.23D-08 BMatP= 1.06D-08
 IDIUse=1 WtCom= 1.00D+00 WtEn= 0.00D+00
 Coeff-Com:  0.524D+00 0.476D+00
 Coeff:      0.524D+00 0.476D+00
 Gap=     0.245 Goal=   None    Shift=    0.000
 RMSDP=2.89D-06 MaxDP=3.16D-05 DE=-5.15D-11 OVMax= 8.40D-05

 Cycle  10  Pass 1  IDiag  1:
 E= -228.739457027768     Delta-E=       -0.000000011929 Rises=F Damp=F
 DIIS: error= 6.80D-06 at cycle   3 NSaved=   3.
 NSaved= 3 IEnMin= 3 EnMin= -228.739457027768     IErMin= 3 ErrMin= 6.80D-06
 ErrMax= 6.80D-06  0.00D+00 EMaxC= 1.00D-01 BMatC= 1.32D-09 BMatP= 1.06D-08
 IDIUse=1 WtCom= 1.00D+00 WtEn= 0.00D+00
 Coeff-Com: -0.470D-02 0.242D+00 0.762D+00
 Coeff:     -0.470D-02 0.242D+00 0.762D+00
 Gap=     0.245 Goal=   None    Shift=    0.000
 RMSDP=7.62D-07 MaxDP=6.75D-06 DE=-1.19D-08 OVMax= 2.00D-05

 Cycle  11  Pass 1  IDiag  1:
 E= -228.739457029055     Delta-E=       -0.000000001286 Rises=F Damp=F
 DIIS: error= 2.14D-06 at cycle   4 NSaved=   4.
 NSaved= 4 IEnMin= 4 EnMin= -228.739457029055     IErMin= 4 ErrMin= 2.14D-06
 ErrMax= 2.14D-06  0.00D+00 EMaxC= 1.00D-01 BMatC= 1.41D-10 BMatP= 1.32D-09
 IDIUse=1 WtCom= 1.00D+00 WtEn= 0.00D+00
 Coeff-Com: -0.184D-01 0.142D+00 0.487D+00 0.389D+00
 Coeff:     -0.184D-01 0.142D+00 0.487D+00 0.389D+00
 Gap=     0.245 Goal=   None    Shift=    0.000
 RMSDP=1.96D-07 MaxDP=2.11D-06 DE=-1.29D-09 OVMax= 3.82D-06

 Cycle  12  Pass 1  IDiag  1:
 E= -228.739457029159     Delta-E=       -0.000000000104 Rises=F Damp=F
 DIIS: error= 2.86D-07 at cycle   5 NSaved=   5.
 NSaved= 5 IEnMin= 5 EnMin= -228.739457029159     IErMin= 5 ErrMin= 2.86D-07
 ErrMax= 2.86D-07  0.00D+00 EMaxC= 1.00D-01 BMatC= 2.52D-12 BMatP= 1.41D-10
 IDIUse=1 WtCom= 1.00D+00 WtEn= 0.00D+00
 Coeff-Com: -0.788D-02 0.460D-01 0.166D+00 0.183D+00 0.612D+00
 Coeff:     -0.788D-02 0.460D-01 0.166D+00 0.183D+00 0.612D+00
 Gap=     0.245 Goal=   None    Shift=    0.000
 RMSDP=3.97D-08 MaxDP=4.76D-07 DE=-1.04D-10 OVMax= 8.48D-07

 Cycle  13  Pass 1  IDiag  1:
 E= -228.739457029160     Delta-E=       -0.000000000002 Rises=F Damp=F
 DIIS: error= 1.29D-07 at cycle   6 NSaved=   6.
 NSaved= 6 IEnMin= 6 EnMin= -228.739457029160     IErMin= 6 ErrMin= 1.29D-07
 ErrMax= 1.29D-07  0.00D+00 EMaxC= 1.00D-01 BMatC= 4.95D-13 BMatP= 2.52D-12
 IDIUse=1 WtCom= 1.00D+00 WtEn= 0.00D+00
 Coeff-Com: -0.109D-02 0.318D-02 0.174D-01 0.440D-01 0.359D+00 0.578D+00
 Coeff:     -0.109D-02 0.318D-02 0.174D-01 0.440D-01 0.359D+00 0.578D+00
 Gap=     0.245 Goal=   None    Shift=    0.000
 RMSDP=1.63D-08 MaxDP=2.20D-07 DE=-1.59D-12 OVMax= 3.27D-07

 Cycle  14  Pass 1  IDiag  1:
 E= -228.739457029161     Delta-E=       -0.000000000001 Rises=F Damp=F
 DIIS: error= 1.90D-08 at cycle   7 NSaved=   7.
 NSaved= 7 IEnMin= 7 EnMin= -228.739457029161     IErMin= 7 ErrMin= 1.90D-08
 ErrMax= 1.90D-08  0.00D+00 EMaxC= 1.00D-01 BMatC= 1.93D-14 BMatP= 4.95D-13
 IDIUse=1 WtCom= 1.00D+00 WtEn= 0.00D+00
 Coeff-Com: -0.139D-03-0.963D-03-0.803D-04 0.839D-02 0.119D+00 0.256D+00
 Coeff-Com:  0.618D+00
 Coeff:     -0.139D-03-0.963D-03-0.803D-04 0.839D-02 0.119D+00 0.256D+00
 Coeff:      0.618D+00
 Gap=     0.245 Goal=   None    Shift=    0.000
 RMSDP=3.30D-09 MaxDP=4.68D-08 DE=-1.02D-12 OVMax= 5.08D-08

 SCF Done:  E(RB3LYP) =  -228.739457029     A.U. after   14 cycles
            NFock= 14  Conv=0.33D-08     -V/T= 2.0077
 KE= 2.269975714117D+02 PE=-8.557094775726D+02 EE= 2.384285862842D+02
 Leave Link  502 at Tue Dec 15 16:12:13 2015, MaxMem=    33554432 cpu:         4.2
 (Enter /home/Applications/g09/g09/l801.exe)
 DoSCS=F DFT=T ScalE2(SS,OS)=  1.000000  1.000000
 ExpMin= 1.83D-01 ExpMax= 3.22D+02 ExpMxC= 3.22D+02 IAcc=3 IRadAn=         5 AccDes= 0.00D+00
 HarFok:  IExCor=  205 AccDes= 0.00D+00 IRadAn=         5 IDoV=-2 UseB2=F ITyADJ=14
 ICtDFT= 12500011 ScaDFX=  1.000000  1.000000  1.000000  1.000000
 Largest valence mixing into a core orbital is  1.77D-04
 Largest core mixing into a valence orbital is  5.19D-05
 Range of M.O.s used for correlation:     6    53
 NBasis=    53 NAE=    18 NBE=    18 NFC=     5 NFV=     0
 NROrb=     48 NOA=    13 NOB=    13 NVA=    35 NVB=    35
 Leave Link  801 at Tue Dec 15 16:12:13 2015, MaxMem=    33554432 cpu:         0.2
 (Enter /home/Applications/g09/g09/l914.exe)
 RHF ground state
 MDV=    33554432 DFT=T DoStab=F Mixed=T DoRPA=F DoScal=F NonHer=F
 Keep R1, R2, and R3 ints in memory in canonical form, NReq=5596273.
 FoFCou: FMM=F IPFlag=           0 FMFlag=           0 FMFlg1=           0
         NFxFlg=           0 DoJE=F BraDBF=F KetDBF=F FulRan=T
         wScrn=  0.000000 ICntrl=     600 IOpCl=  0 I1Cent=           0 NGrid=           0
         NMat0=    1 NMatS0=   1431 NMatT0=    0 NMatD0=    1 NMtDS0=    0 NMtDT0=    0
 Symmetry not used in FoFCou.
 Making orbital integer symmetry assigments:
 Orbital symmetries:
       Occupied  (A) (A) (A) (A) (A) (A) (A) (A) (A) (A) (A) (A)
                 (A) (A) (A) (A) (A) (A)
       Virtual   (A) (A) (A) (A) (A) (A) (A) (A) (A) (A) (A) (A)
                 (A) (A) (A) (A) (A) (A) (A) (A) (A) (A) (A) (A)
                 (A) (A) (A) (A) (A) (A) (A) (A) (A) (A) (A)
    60 initial guesses have been made.
 Convergence on wavefunction:    0.000001000000000
 Davidson Disk Diagonalization:  ConvIn= 1.00D-06 SkipCon=T Conv= 1.00D-06.
 Max sub-space:   240 roots to seek:    60 dimension of matrix:          910
 Iteration     1 Dimension    60 NMult     0 NNew     60
 CISAX will form    60 AO SS matrices at one time.
 NMat=    60 NSing=    60 JSym2X= 0.
 New state      1 was old state      2
 New state      2 was old state      1
 New state      3 was old state      4
 New state      4 was old state      7
 New state      5 was old state      6
 New state      6 was old state      8
 New state      7 was old state      9
 New state      8 was old state     11
 New state      9 was old state     12
 New state     11 was old state     13
 New state     12 was old state      5
 New state     13 was old state     14
 New state     14 was old state     15
 New state     15 was old state      3
 Excitation Energies [eV] at current iteration:
 Root      1 :     7.550094387960810
 Root      2 :     7.772440541481831
 Root      3 :     8.203231420640495
 Root      4 :     9.116116189935264
 Root      5 :     9.275012111601912
 Root      6 :     9.559010923672501
 Root      7 :     9.915618587356473
 Root      8 :    10.092366638181110
 Root      9 :    10.219004660286870
 Root     10 :    10.361811052987680
 Root     11 :    10.663619229490760
 Root     12 :    10.690434032192170
 Root     13 :    10.834998379989620
 Root     14 :    10.917856186739360
 Root     15 :    10.957203410708600
 Root     16 :    11.177803329045440
 Root     17 :    11.321617678834660
 Root     18 :    11.376544068747250
 Root     19 :    11.873171155299400
 Root     20 :    12.094067431397840
 Root     21 :    12.132857427828140
 Root     22 :    12.151709038845160
 Root     23 :    12.365264144131910
 Root     24 :    12.813303753587290
 Root     25 :    12.953135696624830
 Root     26 :    12.968962659638990
 Root     27 :    13.571743387778930
 Root     28 :    13.591575800348710
 Root     29 :    13.705020588575520
 Root     30 :    13.836391101410600
 Root     31 :    13.923436625032780
 Root     32 :    14.035063226984610
 Root     33 :    14.080755193837900
 Root     34 :    14.235931666466330
 Root     35 :    14.259005803757630
 Root     36 :    14.423038416220740
 Root     37 :    14.478114595214110
 Root     38 :    14.656867243041220
 Root     39 :    14.824872401664990
 Root     40 :    14.978295097234340
 Root     41 :    15.045077832784150
 Root     42 :    15.148880209841100
 Root     43 :    15.226770911873560
 Root     44 :    15.237668959669380
 Root     45 :    15.440074079195790
 Root     46 :    15.448530144303490
 Root     47 :    15.533124109405080
 Root     48 :    15.594492344391800
 Root     49 :    15.609869855987500
 Root     50 :    15.810075948005720
 Root     51 :    15.982516889026760
 Root     52 :    15.999620641065920
 Root     53 :    16.043053531704040
 Root     54 :    16.110456596679550
 Root     55 :    16.357604024754420
 Root     56 :    16.382571102489140
 Root     57 :    16.813646419450570
 Root     58 :    17.569420941948590
 Root     59 :    18.456744412900440
 Root     60 :    20.002073837266870
 Iteration     2 Dimension   120 NMult    60 NNew     60
 CISAX will form    60 AO SS matrices at one time.
 NMat=    60 NSing=    60 JSym2X= 0.
 New state      1 was old state      2
 Root      1 not converged, maximum delta is    0.231341783860903
 New state      2 was old state      1
 Root      2 not converged, maximum delta is    0.319165863764521
 Root      3 not converged, maximum delta is    0.023389378186577
 Root      4 not converged, maximum delta is    0.015695247154678
 Root      5 not converged, maximum delta is    0.017631991293943
 Root      6 not converged, maximum delta is    0.015950938152720
 Root      7 not converged, maximum delta is    0.316866669529774
 New state      8 was old state     15
 Root      8 not converged, maximum delta is    0.468932756358351
 New state      9 was old state      8
 Root      9 not converged, maximum delta is    0.027380479000997
 New state     10 was old state     12
 Root     10 not converged, maximum delta is    0.380034447234561
 New state     11 was old state      9
 Root     11 not converged, maximum delta is    0.221052498233671
 New state     12 was old state     10
 Root     12 not converged, maximum delta is    0.057624871490764
 New state     13 was old state     11
 Root     13 not converged, maximum delta is    0.331454402652272
 New state     14 was old state     13
 Root     14 not converged, maximum delta is    0.058075945642865
 New state     15 was old state     14
 Root     15 not converged, maximum delta is    0.145917208857624
 Excitation Energies [eV] at current iteration:
 Root      1 :     7.045416862213470   Change is   -0.727023679268361
 Root      2 :     7.452944457916422   Change is   -0.097149930044388
 Root      3 :     8.194731676266597   Change is   -0.008499744373899
 Root      4 :     9.087499043397569   Change is   -0.028617146537695
 Root      5 :     9.254462301961237   Change is   -0.020549809640676
 Root      6 :     9.542358059389313   Change is   -0.016652864283188
 Root      7 :     9.867376989663171   Change is   -0.048241597693301
 Root      8 :     9.927248068097276   Change is   -1.029955342611321
 Root      9 :    10.070312937920710   Change is   -0.022053700260407
 Root     10 :    10.189743393434410   Change is   -0.500690638757755
 Root     11 :    10.211257440273810   Change is   -0.007747220013060
 Root     12 :    10.343229463338930   Change is   -0.018581589648750
 Root     13 :    10.641785541673150   Change is   -0.021833687817605
 Root     14 :    10.806311485295630   Change is   -0.028686894693995
 Root     15 :    10.906332996768390   Change is   -0.011523189970971
 Root     16 :    11.154797672789310   Change is   -0.023005656256123
 Root     17 :    11.310029269637560   Change is   -0.011588409197108
 Root     18 :    11.340030434169010   Change is   -0.036513634578237
 Root     19 :    11.859218709013850   Change is   -0.013952446285556
 Root     20 :    11.892393460163200   Change is   -0.240463967664941
 Root     21 :    12.050127326904170   Change is   -0.043940104493674
 Root     22 :    12.115595439504430   Change is   -0.036113599340729
 Root     23 :    12.320172197404010   Change is   -0.045091946727900
 Root     24 :    12.685401154943630   Change is   -0.283561504695355
 Root     25 :    12.793259411434110   Change is   -0.020044342153176
 Root     26 :    12.901994910859420   Change is   -0.051140785765409
 Root     27 :    13.275218197043670   Change is   -0.296525190735253
 Root     28 :    13.532319695076550   Change is   -0.059256105272161
 Root     29 :    13.590760560122730   Change is   -0.114260028452789
 Root     30 :    13.688367216045920   Change is   -0.148023885364675
 Root     31 :    13.723942594571210   Change is   -0.311120632413407
 Root     32 :    13.899056528835190   Change is   -0.024380096197590
 Root     33 :    14.044885656302850   Change is   -0.035869537535052
 Root     34 :    14.106659601772560   Change is   -0.129272064693767
 Root     35 :    14.233121249535000   Change is   -0.025884554222638
 Root     36 :    14.358027887269530   Change is   -0.065010528951219
 Root     37 :    14.392172640129820   Change is   -0.085941955084292
 Root     38 :    14.587060673359620   Change is   -0.069806569681603
 Root     39 :    14.705945877267530   Change is   -0.118926524397463
 Root     40 :    14.882810138866850   Change is   -0.095484958367496
 Root     41 :    14.944667399875240   Change is   -0.204212809965861
 Root     42 :    14.977272295598390   Change is   -0.067805537185763
 Root     43 :    15.125910135224620   Change is   -0.111758824444760
 Root     44 :    15.182255372683610   Change is   -0.044515539189950
 Root     45 :    15.271429114032770   Change is   -0.177101030270718
 Root     46 :    15.332163614896460   Change is   -0.107910464299328
 Root     47 :    15.427510923955480   Change is   -0.182358932032017
 Root     48 :    15.444196612385550   Change is   -0.088927497019527
 Root     49 :    15.532534848493610   Change is   -0.061957495898198
 Root     50 :    15.625641618851360   Change is   -0.184434329154368
 Root     51 :    15.682723786505280   Change is   -1.130922632945292
 Root     52 :    15.897636412876890   Change is   -0.084880476149863
 Root     53 :    15.956558325864520   Change is   -0.043062315201394
 Root     54 :    16.009553865302200   Change is   -0.100902731377348
 Root     55 :    16.017983688241960   Change is   -0.025069843462070
 Root     56 :    16.238870886471470   Change is   -0.118733138282939
 Root     57 :    16.269971127471250   Change is   -0.112599975017888
 Root     58 :    16.554583187901360   Change is   -1.014837754047223
 Root     59 :    16.835020181335600
 Root     60 :    17.026797529177720   Change is   -2.975276308089143
 Iteration     3 Dimension   135 NMult   120 NNew     15
 CISAX will form    15 AO SS matrices at one time.
 NMat=    15 NSing=    15 JSym2X= 0.
 Root      1 not converged, maximum delta is    0.002666521204306
 Root      2 not converged, maximum delta is    0.001169889437063
 Root      3 not converged, maximum delta is    0.000092484868008
 Root      4 not converged, maximum delta is    0.000315737117242
 Root      5 not converged, maximum delta is    0.000268924670183
 Root      6 not converged, maximum delta is    0.000257423133582
 Root      7 not converged, maximum delta is    0.016837156643687
 Root      8 not converged, maximum delta is    0.015058344682768
 Root      9 not converged, maximum delta is    0.000537947335747
 Root     10 not converged, maximum delta is    0.017974068861276
 Root     11 not converged, maximum delta is    0.018180811993175
 Root     12 not converged, maximum delta is    0.000680042174034
 Root     13 not converged, maximum delta is    0.000257504632267
 Root     14 not converged, maximum delta is    0.000456389170493
 Root     15 not converged, maximum delta is    0.000287401640940
 Excitation Energies [eV] at current iteration:
 Root      1 :     7.043852961942972   Change is   -0.001563900270498
 Root      2 :     7.452188822760060   Change is   -0.000755635156362
 Root      3 :     8.194726342243380   Change is   -0.000005334023217
 Root      4 :     9.087474187387986   Change is   -0.000024856009583
 Root      5 :     9.254431769538041   Change is   -0.000030532423195
 Root      6 :     9.542342466795366   Change is   -0.000015592593948
 Root      7 :     9.865235228844348   Change is   -0.002141760818823
 Root      8 :     9.925266945930893   Change is   -0.001981122166382
 Root      9 :    10.070274762457620   Change is   -0.000038175463088
 Root     10 :    10.188032458087690   Change is   -0.001710935346723
 Root     11 :    10.210943131017120   Change is   -0.000314309256687
 Root     12 :    10.343177792642270   Change is   -0.000051670696664
 Root     13 :    10.641766078451250   Change is   -0.000019463221908
 Root     14 :    10.806274555858770   Change is   -0.000036929436853
 Root     15 :    10.906310169004960   Change is   -0.000022827763436
 Iteration     4 Dimension   150 NMult   135 NNew     15
 CISAX will form    15 AO SS matrices at one time.
 NMat=    15 NSing=    15 JSym2X= 0.
 Root      1 not converged, maximum delta is    0.000067168467511
 Root      2 not converged, maximum delta is    0.000045929446033
 Root      3 not converged, maximum delta is    0.000003152417548
 Root      4 not converged, maximum delta is    0.000004069673481
 Root      5 not converged, maximum delta is    0.000005707197486
 Root      6 not converged, maximum delta is    0.000004284511468
 Root      7 not converged, maximum delta is    0.000085378490008
 Root      8 not converged, maximum delta is    0.000080354775604
 Root      9 not converged, maximum delta is    0.000007314176568
 Root     10 not converged, maximum delta is    0.000078438481556
 Root     11 not converged, maximum delta is    0.000026504779605
 Root     12 not converged, maximum delta is    0.000009756740448
 Root     13 not converged, maximum delta is    0.000008546049594
 Root     14 not converged, maximum delta is    0.000011701026343
 Root     15 not converged, maximum delta is    0.000013710976016
 Excitation Energies [eV] at current iteration:
 Root      1 :     7.043851391874326   Change is   -0.000001570068646
 Root      2 :     7.452187625246872   Change is   -0.000001197513187
 Root      3 :     8.194726337842443   Change is   -0.000000004400937
 Root      4 :     9.087474176967397   Change is   -0.000000010420588
 Root      5 :     9.254431740944762   Change is   -0.000000028593280
 Root      6 :     9.542342455798767   Change is   -0.000000010996598
 Root      7 :     9.865231640563717   Change is   -0.000003588280632
 Root      8 :     9.925263799939501   Change is   -0.000003145991393
 Root      9 :    10.070274721761220   Change is   -0.000000040696401
 Root     10 :    10.188029852047760   Change is   -0.000002606039925
 Root     11 :    10.210942677854210   Change is   -0.000000453162909
 Root     12 :    10.343177741923480   Change is   -0.000000050718784
 Root     13 :    10.641766062699030   Change is   -0.000000015752218
 Root     14 :    10.806274522608210   Change is   -0.000000033250562
 Root     15 :    10.906310140332850   Change is   -0.000000028672104
 Iteration     5 Dimension   165 NMult   150 NNew     15
 CISAX will form    15 AO SS matrices at one time.
 NMat=    15 NSing=    15 JSym2X= 0.
 Root      1 not converged, maximum delta is    0.000001572578421
 Root      2 not converged, maximum delta is    0.000002019225992
 Root      3 has converged.
 Root      4 has converged.
 Root      5 has converged.
 Root      6 not converged, maximum delta is    0.000001002392368
 Root      7 not converged, maximum delta is    0.000003638242318
 Root      8 not converged, maximum delta is    0.000003486591071
 Root      9 has converged.
 Root     10 not converged, maximum delta is    0.000002788719284
 Root     11 has converged.
 Root     12 has converged.
 Root     13 has converged.
 Root     14 has converged.
 Root     15 has converged.
 Excitation Energies [eV] at current iteration:
 Root      1 :     7.043851390510550   Change is   -0.000000001363776
 Root      2 :     7.452187623385733   Change is   -0.000000001861140
 Root      3 :     8.194726337838400   Change is   -0.000000000004044
 Root      4 :     9.087474176962415   Change is   -0.000000000004983
 Root      5 :     9.254431740920435   Change is   -0.000000000024327
 Root      6 :     9.542342455791587   Change is   -0.000000000007180
 Root      7 :     9.865231635585836   Change is   -0.000000004977880
 Root      8 :     9.925263795512167   Change is   -0.000000004427333
 Root      9 :    10.070274721718960   Change is   -0.000000000042253
 Root     10 :    10.188029849385640   Change is   -0.000000002662117
 Root     11 :    10.210942677331010   Change is   -0.000000000523197
 Root     12 :    10.343177741863610   Change is   -0.000000000059869
 Root     13 :    10.641766062684800   Change is   -0.000000000014226
 Root     14 :    10.806274522577670   Change is   -0.000000000030545
 Root     15 :    10.906310140308770   Change is   -0.000000000024078
 Iteration     6 Dimension   170 NMult   165 NNew      5
 CISAX will form     5 AO SS matrices at one time.
 NMat=     5 NSing=     5 JSym2X= 0.
 Root      1 has converged.
 Root      2 has converged.
 Root      3 has converged.
 Root      4 has converged.
 Root      5 has converged.
 Root      6 not converged, maximum delta is    0.000001001095842
 Root      7 has converged.
 Root      8 has converged.
 Root      9 has converged.
 Root     10 has converged.
 Root     11 has converged.
 Root     12 has converged.
 Root     13 has converged.
 Root     14 has converged.
 Root     15 has converged.
 Excitation Energies [eV] at current iteration:
 Root      1 :     7.043851390510112   Change is   -0.000000000000438
 Root      2 :     7.452187623384398   Change is   -0.000000000001335
 Root      3 :     8.194726337838400   Change is    0.000000000000002
 Root      4 :     9.087474176962386   Change is   -0.000000000000029
 Root      5 :     9.254431740920419   Change is   -0.000000000000017
 Root      6 :     9.542342455791571   Change is   -0.000000000000017
 Root      7 :     9.865231635580693   Change is   -0.000000000005143
 Root      8 :     9.925263795507496   Change is   -0.000000000004672
 Root      9 :    10.070274721718950   Change is   -0.000000000000014
 Root     10 :    10.188029849383120   Change is   -0.000000000002529
 Root     11 :    10.210942677330510   Change is   -0.000000000000508
 Root     12 :    10.343177741863570   Change is   -0.000000000000045
 Root     13 :    10.641766062684800   Change is   -0.000000000000006
 Root     14 :    10.806274522577670   Change is    0.000000000000002
 Root     15 :    10.906310140308760   Change is   -0.000000000000011
 Convergence achieved on expansion vectors.
 ***********************************************************************
 Excited states from <AA,BB:AA,BB> singles matrix:
 ***********************************************************************
 
 1PDM for each excited state written to RWF  633
 Ground to excited state transition densities written to RWF  633
 Ground to excited state transition electric dipole moments (Au):
       state          X           Y           Z        Dip. S.      Osc.
         1        -0.4021      1.0436      0.0076      1.2508      0.2159
         2         0.0217     -0.1605     -0.0008      0.0262      0.0048
         3        -0.0228      0.0202     -0.0037      0.0009      0.0002
         4        -0.0225      0.0001     -0.1544      0.0243      0.0054
         5         0.0725      0.0242      0.0330      0.0069      0.0016
         6        -0.0130      0.0009      0.0082      0.0002      0.0001
         7         1.0514      0.2569     -0.0394      1.1729      0.2835
         8        -0.9633     -0.2838     -0.0139      1.0088      0.2453
         9        -0.0648     -0.0261     -0.0106      0.0050      0.0012
        10        -0.0294      0.8262     -0.0207      0.6840      0.1707
        11        -0.1249     -0.3129     -0.0813      0.1201      0.0300
        12        -0.0387     -0.0857      0.0809      0.0154      0.0039
        13        -0.0313     -0.0012     -0.0493      0.0034      0.0009
        14         0.0199     -0.0223     -0.1793      0.0331      0.0088
        15         0.0055     -0.0343      0.0109      0.0013      0.0004
 Ground to excited state transition velocity dipole moments (Au):
       state          X           Y           Z        Dip. S.      Osc.
         1        -0.0070     -0.0066      0.0001      0.0001      0.0002
         2        -0.0562     -0.0216      0.0007      0.0036      0.0088
         3        -0.0006     -0.0017      0.0013      0.0000      0.0000
         4         0.0006     -0.0009      0.0834      0.0070      0.0139
         5        -0.0003      0.0010     -0.0245      0.0006      0.0012
         6         0.0006     -0.0022      0.0325      0.0011      0.0020
         7        -0.0314      0.0103     -0.0026      0.0011      0.0020
         8         0.0292     -0.0044     -0.0116      0.0010      0.0018
         9         0.0022     -0.0007      0.0043      0.0000      0.0000
        10         0.0318     -0.0989      0.0031      0.0108      0.0192
        11        -0.0046      0.0318      0.0235      0.0016      0.0028
        12         0.0000      0.0108     -0.0323      0.0012      0.0020
        13         0.0027     -0.0010      0.0261      0.0007      0.0012
        14        -0.0020      0.0039     -0.0099      0.0001      0.0002
        15        -0.0016      0.0050     -0.0302      0.0009      0.0016
 Ground to excited state transition magnetic dipole moments (Au):
       state          X           Y           Z
         1         0.0071     -0.0041     -0.5176
         2         0.0099      0.0139      0.0752
         3        -0.4840     -0.2742     -0.0212
         4        -0.5323      1.5493     -0.0130
         5         0.0092      0.2183      0.0058
         6         0.0228     -0.0982      0.0160
         7        -0.0965      0.0895      0.0179
         8        -0.1319      0.0708     -0.0337
         9         0.8347      0.2109     -0.0033
        10         0.0365      0.0794      0.1575
        11         0.1342      0.1681     -0.0707
        12        -0.1843     -0.0133     -0.0033
        13        -1.1751     -0.3592      0.0146
        14        -0.3328     -0.1908     -0.0062
        15         0.0316     -0.0864     -0.0215
 Ground to excited state transition velocity quadrupole moments (Au):
       state          XX          YY          ZZ          XY          XZ          YZ
         1        -0.1650      0.1461      0.0071      0.1658     -0.0006      0.0003
         2         0.0263     -0.0490      0.0276     -0.0405     -0.0004      0.0004
         3        -0.0051      0.0089      0.0018      0.0057      0.0403     -0.0621
         4        -0.0019      0.0002      0.0023      0.0073     -0.2154     -0.0643
         5        -0.0101      0.0112     -0.0026     -0.0056      0.0847     -0.1136
         6         0.0040     -0.0013      0.0004     -0.0014      0.0130     -0.1439
         7        -0.1952      0.2253     -0.0485     -0.0918     -0.0759     -0.0244
         8         0.1667     -0.1945      0.0439      0.0997     -0.0735     -0.0377
         9         0.0085     -0.0140      0.0052      0.0123     -0.0258      0.0474
        10         0.2223     -0.1948     -0.0163     -0.2933     -0.0123      0.0174
        11        -0.0499      0.0393      0.0129      0.1178      0.0105      0.0464
        12        -0.0087      0.0109      0.0002      0.0330     -0.0913     -0.0175
        13         0.0190     -0.0144      0.0000     -0.0077      0.0891     -0.2339
        14        -0.0110      0.0069      0.0015      0.0019     -0.0541      0.0157
        15        -0.0196      0.0156      0.0018      0.0199      0.0758      0.0075
 <0|del|b> * <b|rxdel|0> + <0|del|b> * <b|delr+rdel|0>
 Rotatory Strengths (R) in cgs (10**-40 erg-esu-cm/Gauss)
       state          XX          YY          ZZ    R(velocity)    E-M Angle
         1         0.0004     -0.1305     -0.0224     -0.0508       90.00
         2        -0.3691     -0.6478     -1.0624     -0.6931       99.99
         3         0.5953      0.3302      0.7470      0.5575       54.41
         4        -2.2460     -2.1581     -1.6084     -2.0042       91.19
         5         0.1282     -0.2623      0.2716      0.0458       90.00
         6         0.7275      0.4967      0.2899      0.5047       76.95
         7         1.8542      3.4261      2.3425      2.5410       27.38
         8        -1.3585     -3.3008     -2.6502     -2.4365      140.83
         9        -0.1239      1.7857      1.5250      1.0623       66.40
        10        -8.9643      2.9548     -5.6920     -3.9005      109.33
        11         5.7597     -4.9577      4.9666      1.9229       70.13
        12        -0.1091      1.0956     -1.0471     -0.0202       90.00
        13         0.5603     -2.8997     -2.0478     -1.4624       94.32
        14        -0.4392      0.6419     -0.2285     -0.0086       90.00
        15        -0.6706      1.0487     -0.0798      0.0994       86.65
 1/2[<0|r|b>*<b|rxdel|0> + (<0|rxdel|b>*<b|r|0>)*]
 Rotatory Strengths (R) in cgs (10**-40 erg-esu-cm/Gauss)
       state          XX          YY          ZZ     R(length)
         1         2.0130      3.0507      2.7833      2.6157
         2        -0.1516      1.5800      0.0414      0.4899
         3        -7.7882      3.9194     -0.0549     -1.3079
         4        -8.4743     -0.1625     -1.4163     -3.3510
         5        -0.4740     -3.7331     -0.1365     -1.4479
         6         0.2093      0.0631     -0.0931      0.0598
         7        71.7630    -16.2540      0.4988     18.6693
         8       -89.8216     14.2179     -0.3326    -25.3121
         9        38.2373      3.8984     -0.0251     14.0369
        10         0.7599    -46.3972      2.3048    -14.4442
        11        11.8529     37.1976     -4.0671     14.9945
        12        -5.0385     -0.8071      0.1909     -1.8849
        13       -26.0337     -0.3053      0.5077     -8.6104
        14         4.6763     -3.0150     -0.7917      0.2899
        15        -0.1224     -2.0953      0.1664     -0.6837
  1/2[<0|del|b>*<b|r|0> + (<0|r|b>*<b|del|0>)*] (Au)
       state          X           Y           Z        Dip. S.   Osc.(frdel)
         1         0.0028     -0.0069      0.0000      0.0040      0.0027
         2        -0.0012      0.0035      0.0000     -0.0022     -0.0015
         3         0.0000      0.0000      0.0000      0.0000      0.0000
         4         0.0000      0.0000     -0.0129      0.0129      0.0086
         5         0.0000      0.0000     -0.0008      0.0008      0.0005
         6         0.0000      0.0000      0.0003     -0.0003     -0.0002
         7        -0.0330      0.0027      0.0001      0.0302      0.0201
         8        -0.0281      0.0013      0.0002      0.0267      0.0178
         9        -0.0001      0.0000      0.0000      0.0002      0.0001
        10        -0.0009     -0.0817     -0.0001      0.0827      0.0551
        11         0.0006     -0.0099     -0.0019      0.0113      0.0075
        12         0.0000     -0.0009     -0.0026      0.0035      0.0024
        13        -0.0001      0.0000     -0.0013      0.0014      0.0009
        14         0.0000     -0.0001      0.0018     -0.0016     -0.0011
        15         0.0000     -0.0002     -0.0003      0.0005      0.0003

 Excitation energies and oscillator strengths:
 
 Excited State   1:      Singlet-A      7.0439 eV  176.02 nm  f=0.2159  <S**2>=0.000
      18 -> 19         0.67894
 This state for optimization and/or second-order correction.
 Total Energy, E(CIS) =  -228.480600242    
 Copying the excited state density for this state as the 1-particle RhoCI density.
 
 Excited State   2:      Singlet-A      7.4522 eV  166.37 nm  f=0.0048  <S**2>=0.000
      17 -> 19         0.50364
      18 -> 20         0.47755
 
 Excited State   3:      Singlet-A      8.1947 eV  151.30 nm  f=0.0002  <S**2>=0.000
      18 -> 21         0.69968
 
 Excited State   4:      Singlet-A      9.0875 eV  136.43 nm  f=0.0054  <S**2>=0.000
      16 -> 19         0.69837
 
 Excited State   5:      Singlet-A      9.2544 eV  133.97 nm  f=0.0016  <S**2>=0.000
      18 -> 22         0.64253
      18 -> 23        -0.23837
 
 Excited State   6:      Singlet-A      9.5423 eV  129.93 nm  f=0.0001  <S**2>=0.000
      17 -> 21        -0.13774
      18 -> 22         0.25381
      18 -> 23         0.62181
      18 -> 24        -0.10400
 
 Excited State   7:      Singlet-A      9.8652 eV  125.68 nm  f=0.2835  <S**2>=0.000
      17 -> 19        -0.32059
      17 -> 20        -0.13449
      17 -> 21         0.43916
      18 -> 20         0.34655
      18 -> 23         0.12206
 
 Excited State   8:      Singlet-A      9.9253 eV  124.92 nm  f=0.2453  <S**2>=0.000
      17 -> 19         0.29140
      17 -> 21         0.50735
      18 -> 20        -0.31412
 
 Excited State   9:      Singlet-A     10.0703 eV  123.12 nm  f=0.0012  <S**2>=0.000
      14 -> 19         0.15247
      15 -> 19         0.66763
 
 Excited State  10:      Singlet-A     10.1880 eV  121.70 nm  f=0.1707  <S**2>=0.000
      14 -> 19         0.20365
      17 -> 20         0.63406
      18 -> 24         0.10601
 
 Excited State  11:      Singlet-A     10.2109 eV  121.42 nm  f=0.0300  <S**2>=0.000
      14 -> 19         0.62633
      15 -> 19        -0.13993
      17 -> 20        -0.20194
      18 -> 24         0.16228
 
 Excited State  12:      Singlet-A     10.3432 eV  119.87 nm  f=0.0039  <S**2>=0.000
      14 -> 19        -0.17315
      18 -> 23         0.10971
      18 -> 24         0.66015
 
 Excited State  13:      Singlet-A     10.6418 eV  116.51 nm  f=0.0009  <S**2>=0.000
      13 -> 19         0.67123
      16 -> 20        -0.14937
 
 Excited State  14:      Singlet-A     10.8063 eV  114.73 nm  f=0.0088  <S**2>=0.000
      17 -> 22         0.18304
      18 -> 25         0.65499
      18 -> 26         0.11208
 
 Excited State  15:      Singlet-A     10.9063 eV  113.68 nm  f=0.0004  <S**2>=0.000
      17 -> 22         0.66435
      18 -> 25        -0.16676
      18 -> 26        -0.11684
 SavETr:  write IOETrn=   770 NScale= 10 NData=  16 NLR=1 NState=   15 LETran=     280.
 The selected state is a singlet
 CISAX will form     1 AO SS matrices at one time.
 NMat=     1 NSing=     1 JSym2X= 0.
 CISAX will form     1 AO SS matrices at one time.
 NMat=     1 NSing=     1 JSym2X= 0.
 Leave Link  914 at Tue Dec 15 16:12:47 2015, MaxMem=    33554432 cpu:        33.5
 (Enter /home/Applications/g09/g09/l1002.exe)
 Minotr:  Closed shell wavefunction.
          Computing CIS/TD-HF/TD-KS derivatives.
          Using Z-Vector for PSCF gradient.
          Skipping F1 and S1 gradient terms here.
          IDoAtm=111111111
          Frozen-core window.
          Direct CPHF calculation.
          Differentiating once with respect to electric field.
                with respect to dipole field.
          Differentiating once with respect to nuclear coordinates.
          Requested convergence is 1.0D-10 RMS, and 1.0D-09 maximum.
          NewPWx=F KeepS1=T KeepF1=T KeepIn=T MapXYZ=F SortEE=F KeepMc=T.
          MDV=      33554290 using IRadAn=       0.
 Using stored XC quadrature information.
 Keep R1 ints in memory in canonical form, NReq=1898913.
 FoFCou: FMM=F IPFlag=           0 FMFlag=           0 FMFlg1=           0
         NFxFlg=           0 DoJE=F BraDBF=F KetDBF=F FulRan=T
         wScrn=  0.000000 ICntrl=     600 IOpCl=  0 I1Cent=           0 NGrid=           0
         NMat0=    1 NMatS0=   1431 NMatT0=    0 NMatD0=    1 NMtDS0=    0 NMtDT0=    0
 Symmetry not used in FoFCou.
          Solving linear equations separately, MaxMat=       0.
          There are     1 degrees of freedom in the 1st order CPHF.  IDoFFX=0 NUNeed=     1.
 LinEq1:  Iter=  0 NonCon=     1 RMS=2.88D-02 Max=4.37D-01 NDo=     1
 AX will form     1 AO Fock derivatives at one time.
 LinEq1:  Iter=  1 NonCon=     1 RMS=2.55D-02 Max=4.99D-01 NDo=     1
 LinEq1:  Iter=  2 NonCon=     1 RMS=1.40D-02 Max=2.29D-01 NDo=     1
 LinEq1:  Iter=  3 NonCon=     1 RMS=4.20D-03 Max=3.39D-02 NDo=     1
 LinEq1:  Iter=  4 NonCon=     1 RMS=2.82D-03 Max=2.64D-02 NDo=     1
 LinEq1:  Iter=  5 NonCon=     1 RMS=9.79D-04 Max=1.34D-02 NDo=     1
 LinEq1:  Iter=  6 NonCon=     1 RMS=6.16D-04 Max=5.83D-03 NDo=     1
 LinEq1:  Iter=  7 NonCon=     1 RMS=1.80D-04 Max=1.53D-03 NDo=     1
 LinEq1:  Iter=  8 NonCon=     1 RMS=6.92D-05 Max=4.96D-04 NDo=     1
 LinEq1:  Iter=  9 NonCon=     1 RMS=1.44D-05 Max=1.11D-04 NDo=     1
 LinEq1:  Iter= 10 NonCon=     1 RMS=1.40D-06 Max=7.66D-06 NDo=     1
 LinEq1:  Iter= 11 NonCon=     1 RMS=1.48D-07 Max=9.95D-07 NDo=     1
 LinEq1:  Iter= 12 NonCon=     1 RMS=1.39D-08 Max=9.04D-08 NDo=     1
 LinEq1:  Iter= 13 NonCon=     1 RMS=2.12D-09 Max=1.44D-08 NDo=     1
 LinEq1:  Iter= 14 NonCon=     1 RMS=3.30D-10 Max=1.83D-09 NDo=     1
 LinEq1:  Iter= 15 NonCon=     0 RMS=3.40D-11 Max=2.23D-10 NDo=     1
 Linear equations converged to 1.000D-10 1.000D-09 after    15 iterations.
 End of Minotr F.D. properties file   721 does not exist.
 End of Minotr F.D. properties file   722 does not exist.
 End of Minotr F.D. properties file   788 does not exist.
 Leave Link 1002 at Tue Dec 15 16:12:58 2015, MaxMem=    33554432 cpu:        10.5
 (Enter /home/Applications/g09/g09/l601.exe)
 Copying SCF densities to generalized density rwf, IOpCl= 0 IROHF=0.

 **********************************************************************

            Population analysis using the SCF density.

 **********************************************************************

 Orbital symmetries:
       Occupied  (A) (A) (A) (A) (A) (A) (A) (A) (A) (A) (A) (A)
                 (A) (A) (A) (A) (A) (A)
       Virtual   (A) (A) (A) (A) (A) (A) (A) (A) (A) (A) (A) (A)
                 (A) (A) (A) (A) (A) (A) (A) (A) (A) (A) (A) (A)
                 (A) (A) (A) (A) (A) (A) (A) (A) (A) (A) (A)
 The electronic state is 1-A.
 Alpha  occ. eigenvalues --  -19.11636 -10.17508 -10.17456 -10.12823 -10.11881
 Alpha  occ. eigenvalues --   -1.12476  -0.82612  -0.73925  -0.60126  -0.57062
 Alpha  occ. eigenvalues --   -0.54540  -0.44770  -0.42738  -0.41365  -0.41188
 Alpha  occ. eigenvalues --   -0.37616  -0.29028  -0.22863
 Alpha virt. eigenvalues --    0.01605   0.09094   0.11969   0.15528   0.16791
 Alpha virt. eigenvalues --    0.19099   0.21611   0.23016   0.33999   0.44237
 Alpha virt. eigenvalues --    0.47900   0.67422   0.69974   0.72310   0.75623
 Alpha virt. eigenvalues --    0.76852   0.78720   0.81561   0.82284   0.83939
 Alpha virt. eigenvalues --    0.95647   0.98249   0.99421   1.02758   1.18793
 Alpha virt. eigenvalues --    1.20086   1.33611   1.35627   1.49821   1.57798
 Alpha virt. eigenvalues --    1.62898   1.72155   1.96196   2.18383   3.16607
     Molecular Orbital Coefficients:
                           1         2         3         4         5
                           O         O         O         O         O
     Eigenvalues --   -19.11636 -10.17508 -10.17456 -10.12823 -10.11881
   1 1   C  1S          0.00019   0.00561  -0.01075   0.98397   0.06345
   2        2S          0.00089   0.00268  -0.00488   0.11056   0.00252
   3        2PX         0.00011  -0.00040   0.00176  -0.00231   0.00106
   4        2PY         0.00132  -0.00083   0.00198   0.00069  -0.00144
   5        2PZ        -0.00001  -0.00001   0.00000   0.00003   0.00002
   6        3S         -0.00319  -0.03471   0.02539  -0.11179   0.03679
   7        3PX         0.00735   0.01896  -0.00997   0.03538  -0.01771
   8        3PY        -0.00244   0.00665  -0.00814  -0.01005   0.01696
   9        3PZ         0.00006   0.00005   0.00003  -0.00009  -0.00005
  10 2   C  1S         -0.00049  -0.45828   0.87244   0.01176   0.00071
  11        2S         -0.00079  -0.05270   0.09273  -0.00321  -0.00071
  12        2PX        -0.00225   0.00034  -0.00114  -0.00138  -0.00120
  13        2PY         0.00110  -0.00215   0.00156  -0.00162  -0.00044
  14        2PZ         0.00002   0.00000   0.00003   0.00001   0.00000
  15        3S          0.01580   0.05165  -0.05799   0.04092  -0.00643
  16        3PX        -0.00666   0.00952  -0.00802   0.01206   0.00092
  17        3PY         0.01149   0.02662  -0.00570   0.02335  -0.00331
  18        3PZ         0.00003  -0.00002  -0.00007  -0.00002   0.00002
  19 3   O  1S          0.98277   0.00014   0.00031   0.00008   0.00010
  20        2S          0.10760   0.00084   0.00239   0.00041   0.00049
  21        2PX         0.00397  -0.00013   0.00110  -0.00003  -0.00002
  22        2PY         0.00178   0.00082   0.00003   0.00003  -0.00006
  23        2PZ        -0.00002   0.00000  -0.00001   0.00000   0.00000
  24        3S         -0.05976  -0.00024  -0.00003  -0.00322  -0.00431
  25        3PX        -0.01256  -0.00094  -0.00408  -0.00254  -0.00155
  26        3PY        -0.00595  -0.00165  -0.00177   0.00105  -0.00246
  27        3PZ         0.00007   0.00003   0.00001   0.00002  -0.00001
  28 4   C  1S         -0.00043   0.87302   0.45716  -0.00055   0.00876
  29        2S         -0.00055   0.09626   0.04634  -0.00028  -0.00397
  30        2PX        -0.00078   0.00132  -0.00040  -0.00082  -0.00262
  31        2PY        -0.00254  -0.00274  -0.00071  -0.00055   0.00002
  32        2PZ         0.00000  -0.00002  -0.00003   0.00000  -0.00001
  33        3S          0.01848  -0.07733  -0.01751  -0.01156   0.04367
  34        3PX         0.00298  -0.02752   0.00617  -0.00478   0.02619
  35        3PY        -0.01414   0.00867  -0.00853   0.00428  -0.00816
  36        3PZ         0.00003   0.00009   0.00012   0.00003   0.00001
  37 5   C  1S          0.00019  -0.00811  -0.00422  -0.06391   0.98393
  38        2S          0.00091  -0.00494  -0.00251  -0.01182   0.11049
  39        2PX         0.00099   0.00262   0.00189  -0.00028  -0.00113
  40        2PY        -0.00085  -0.00028   0.00010   0.00200  -0.00172
  41        2PZ        -0.00001  -0.00001   0.00000   0.00001   0.00001
  42        3S         -0.00409   0.04506   0.00107   0.05074  -0.10988
  43        3PX         0.00442  -0.02305  -0.00055  -0.00154   0.01887
  44        3PY         0.00882  -0.00794   0.00412  -0.02787   0.02962
  45        3PZ        -0.00001   0.00002  -0.00004  -0.00009   0.00001
  46 6   H  1S         -0.00113  -0.00080  -0.00088  -0.00008  -0.00408
  47        2S         -0.00376   0.00276  -0.00054   0.00483   0.00426
  48 7   H  1S         -0.00024  -0.00356  -0.00024  -0.00016   0.00001
  49        2S          0.00241   0.00278   0.00960  -0.00067   0.00571
  50 8   H  1S         -0.00009   0.00300  -0.00251  -0.00004  -0.00013
  51        2S          0.00261   0.00326   0.01012   0.00566   0.00007
  52 9   H  1S         -0.00094   0.00009  -0.00112  -0.00332  -0.00027
  53        2S         -0.00269  -0.00245   0.00105   0.00324   0.00543
                           6         7         8         9        10
                           O         O         O         O         O
     Eigenvalues --    -1.12476  -0.82612  -0.73925  -0.60126  -0.57062
   1 1   C  1S         -0.02786   0.14626  -0.07330  -0.10641   0.05826
   2        2S          0.02691  -0.15846   0.07902   0.10775  -0.05881
   3        2PX        -0.03344   0.08746  -0.04150   0.02130  -0.10151
   4        2PY        -0.00158  -0.04838  -0.08661  -0.09946  -0.18647
   5        2PZ         0.00017  -0.00091   0.00053   0.00145  -0.00173
   6        3S          0.03500  -0.28033   0.15789   0.38453  -0.20163
   7        3PX        -0.03520   0.03778  -0.00260  -0.03857  -0.04302
   8        3PY         0.01024  -0.00837   0.01558  -0.02935  -0.06309
   9        3PZ        -0.00023  -0.00067   0.00056   0.00118  -0.00138
  10 2   C  1S         -0.07126   0.05330  -0.14707   0.02095  -0.10504
  11        2S          0.07935  -0.06192   0.15709  -0.01715   0.11629
  12        2PX        -0.05730  -0.10030  -0.00464   0.20805   0.06825
  13        2PY         0.05977  -0.06214   0.01955   0.06039  -0.06297
  14        2PZ         0.00043   0.00007   0.00069  -0.00060  -0.00049
  15        3S          0.06474  -0.07713   0.37036  -0.12213   0.31945
  16        3PX         0.00712  -0.02142   0.01932   0.06877   0.05788
  17        3PY        -0.02580  -0.02719   0.03811  -0.00493  -0.02071
  18        3PZ         0.00012   0.00006   0.00026  -0.00033  -0.00003
  19 3   O  1S         -0.20898  -0.08964  -0.00371   0.00397   0.06964
  20        2S          0.19027   0.08600   0.00308  -0.00284  -0.06935
  21        2PX         0.10407  -0.01641   0.07385  -0.09447   0.04978
  22        2PY         0.05014  -0.00055  -0.18553   0.24333   0.02757
  23        2PZ        -0.00059  -0.00005  -0.00028   0.00049  -0.00117
  24        3S          0.66468   0.32313   0.01392  -0.01690  -0.28994
  25        3PX         0.13173   0.00168   0.06291  -0.08399   0.03876
  26        3PY         0.06111   0.00526  -0.15233   0.21038   0.02188
  27        3PZ        -0.00078  -0.00013  -0.00028   0.00039  -0.00110
  28 4   C  1S         -0.07957   0.05213   0.14407  -0.01857  -0.10805
  29        2S          0.08827  -0.06166  -0.15521   0.01540   0.12020
  30        2PX        -0.00190  -0.12623  -0.01276  -0.18940   0.01822
  31        2PY        -0.09280  -0.03285   0.01569  -0.11151   0.08609
  32        2PZ        -0.00010   0.00040   0.00075  -0.00008  -0.00207
  33        3S          0.06082  -0.06847  -0.36237   0.11233   0.33222
  34        3PX        -0.01462  -0.03114  -0.04173  -0.04020   0.03405
  35        3PY         0.03066   0.00112   0.00837  -0.05238   0.05148
  36        3PZ        -0.00027   0.00012   0.00065  -0.00007  -0.00149
  37 5   C  1S         -0.02972   0.15157   0.07445   0.10022   0.05879
  38        2S          0.02863  -0.16331  -0.08055  -0.10086  -0.05814
  39        2PX        -0.02707   0.02707   0.09125   0.05779  -0.22406
  40        2PY        -0.02331   0.09163  -0.03617  -0.10366   0.04476
  41        2PZ         0.00004  -0.00014  -0.00025  -0.00058  -0.00065
  42        3S          0.04500  -0.29886  -0.15549  -0.36749  -0.21322
  43        3PX        -0.02303   0.02536  -0.01292   0.04672  -0.08024
  44        3PY        -0.04460   0.03883   0.01105  -0.00094   0.01119
  45        3PZ         0.00009  -0.00002  -0.00018  -0.00041  -0.00039
  46 6   H  1S          0.00869  -0.05834  -0.04292  -0.10808  -0.08492
  47        2S          0.01783  -0.01199  -0.01040  -0.06169  -0.04436
  48 7   H  1S          0.01484  -0.00835  -0.07993   0.04771   0.10860
  49        2S         -0.01370  -0.00139  -0.03281   0.03636   0.06083
  50 8   H  1S          0.01357  -0.01136   0.08536  -0.05215   0.11726
  51        2S         -0.01327  -0.00424   0.03509  -0.03772   0.06451
  52 9   H  1S          0.00686  -0.04904   0.03907   0.10227  -0.06592
  53        2S          0.01199  -0.00929   0.01166   0.06273  -0.03477
                          11        12        13        14        15
                           O         O         O         O         O
     Eigenvalues --    -0.54540  -0.44770  -0.42738  -0.41365  -0.41188
   1 1   C  1S          0.02908   0.00152   0.04158  -0.01832   0.00668
   2        2S         -0.02550  -0.00193  -0.04241   0.02471  -0.00277
   3        2PX        -0.17317   0.00634  -0.14542  -0.21020  -0.16933
   4        2PY         0.04530  -0.00622   0.03839   0.23948  -0.17161
   5        2PZ        -0.00206   0.12216  -0.00532   0.00054  -0.00034
   6        3S         -0.14851  -0.00385  -0.14882   0.07687  -0.04953
   7        3PX        -0.10174   0.00439  -0.12150  -0.15606  -0.09567
   8        3PY         0.04144  -0.00396   0.03916   0.13971  -0.05792
   9        3PZ        -0.00157   0.08742  -0.00442   0.00026  -0.00016
  10 2   C  1S          0.02842   0.00032  -0.04199  -0.00962  -0.03411
  11        2S         -0.03003  -0.00036   0.04651   0.01012   0.04243
  12        2PX        -0.00904   0.00244   0.12151  -0.02878   0.10981
  13        2PY         0.19539  -0.00601  -0.16584  -0.00217   0.27905
  14        2PZ        -0.00074   0.18238  -0.00368   0.00661   0.00209
  15        3S         -0.10662  -0.00091   0.13263   0.02103   0.12717
  16        3PX         0.03120   0.00247   0.08457  -0.06465   0.08738
  17        3PY         0.14913  -0.00445  -0.12034  -0.02081   0.21099
  18        3PZ        -0.00054   0.17367  -0.00285   0.00728   0.00255
  19 3   O  1S          0.03003   0.00011   0.00993  -0.00083   0.00243
  20        2S         -0.02918  -0.00021  -0.00849   0.00585  -0.00472
  21        2PX         0.15497   0.00306  -0.07773  -0.13054   0.08115
  22        2PY         0.04696   0.00650   0.26174  -0.11391  -0.01515
  23        2PZ        -0.00048   0.36965  -0.00283   0.01624   0.00649
  24        3S         -0.10641   0.00019  -0.04187  -0.03233   0.00423
  25        3PX         0.14201   0.00307  -0.07552  -0.13894   0.08220
  26        3PY         0.04304   0.00638   0.25258  -0.11349  -0.00683
  27        3PZ        -0.00060   0.37114  -0.00307   0.01685   0.00668
  28 4   C  1S          0.02330  -0.00091   0.03655   0.00582   0.02911
  29        2S         -0.02376   0.00136  -0.03915  -0.01157  -0.03643
  30        2PX         0.14745   0.00977  -0.03249  -0.20145  -0.16603
  31        2PY        -0.13510  -0.00689  -0.21907   0.12888   0.07568
  32        2PZ         0.00067   0.19995   0.00028   0.00525   0.00315
  33        3S         -0.09435   0.00243  -0.12074  -0.03035  -0.09517
  34        3PX         0.13661   0.00924   0.00352  -0.19229  -0.09363
  35        3PY        -0.07756  -0.00516  -0.14069   0.07726   0.06827
  36        3PZ         0.00084   0.18589  -0.00030   0.00590   0.00319
  37 5   C  1S          0.02835  -0.00010  -0.03838  -0.00630   0.01023
  38        2S         -0.02518   0.00018   0.04098   0.00729  -0.01710
  39        2PX        -0.10815  -0.00724   0.13214   0.14937   0.14253
  40        2PY        -0.16710   0.00446   0.03989  -0.23903   0.23849
  41        2PZ        -0.00099   0.12894  -0.00151   0.00134   0.00283
  42        3S         -0.14967  -0.00138   0.11891   0.05406  -0.03245
  43        3PX        -0.05254  -0.00249   0.08943   0.04397   0.07508
  44        3PY        -0.10924   0.00272   0.04876  -0.13988   0.17219
  45        3PZ        -0.00082   0.09112  -0.00085   0.00166   0.00227
  46 6   H  1S         -0.12556   0.00083   0.11619  -0.08612   0.18510
  47        2S         -0.06430   0.00016   0.08325  -0.07414   0.16515
  48 7   H  1S         -0.11596  -0.00833  -0.11975   0.16232   0.08106
  49        2S         -0.05609  -0.00550  -0.09803   0.14202   0.07601
  50 8   H  1S         -0.12055   0.00373   0.15682   0.02189  -0.16012
  51        2S         -0.05556   0.00257   0.12627   0.01511  -0.14104
  52 9   H  1S         -0.11122   0.00500  -0.14879  -0.16507  -0.08838
  53        2S         -0.06160   0.00356  -0.11526  -0.15334  -0.08360
                          16        17        18        19        20
                           O         O         O         V         V
     Eigenvalues --    -0.37616  -0.29028  -0.22863   0.01605   0.09094
   1 1   C  1S          0.01396  -0.00100   0.00098  -0.00195  -0.00387
   2        2S         -0.01301   0.00107  -0.00106   0.00199   0.00362
   3        2PX         0.12842   0.00633  -0.00319   0.00314   0.01113
   4        2PY         0.14184  -0.00117  -0.00108  -0.00005  -0.00317
   5        2PZ         0.00329  -0.28928   0.18690  -0.19578  -0.32970
   6        3S         -0.12545   0.00202  -0.00273   0.00881   0.02340
   7        3PX         0.08864   0.00573  -0.00511   0.01395   0.03975
   8        3PY         0.13251  -0.00075  -0.00040  -0.00186  -0.01543
   9        3PZ         0.00238  -0.29092   0.20644  -0.32359  -0.69182
  10 2   C  1S         -0.01798   0.00048   0.00041   0.00049   0.00287
  11        2S          0.02002  -0.00069  -0.00027  -0.00073  -0.00322
  12        2PX        -0.20897  -0.00147   0.00328   0.00117   0.00648
  13        2PY        -0.03920  -0.00097   0.00025  -0.00006  -0.00617
  14        2PZ         0.00292  -0.06755   0.33249   0.33070   0.19564
  15        3S          0.08807  -0.00037  -0.00374   0.00207  -0.00970
  16        3PX        -0.02240   0.00083   0.00234   0.00348   0.01503
  17        3PY         0.01571  -0.00020  -0.00067   0.00517  -0.00175
  18        3PZ         0.00191  -0.02489   0.35860   0.49874   0.39738
  19 3   O  1S          0.07563  -0.00015  -0.00044  -0.00029  -0.00254
  20        2S         -0.07642   0.00003   0.00053   0.00012   0.00199
  21        2PX         0.38079   0.00500  -0.00169   0.00129   0.00676
  22        2PY         0.12001   0.00037   0.00105  -0.00011  -0.00204
  23        2PZ        -0.00132   0.32055   0.01194  -0.29060   0.02102
  24        3S         -0.28691   0.00176   0.00163   0.00292   0.01919
  25        3PX         0.40686   0.00565  -0.00210   0.00184   0.01014
  26        3PY         0.13073   0.00036   0.00092   0.00092  -0.00317
  27        3PZ        -0.00149   0.35910   0.01573  -0.39848   0.03265
  28 4   C  1S         -0.02501  -0.00033   0.00128  -0.00143   0.00052
  29        2S          0.02790   0.00037  -0.00144   0.00143   0.00026
  30        2PX        -0.18124   0.00119   0.00123  -0.00191   0.00565
  31        2PY        -0.07326  -0.00055  -0.00237   0.00405  -0.00115
  32        2PZ        -0.00083  -0.05571  -0.32372   0.31080  -0.23520
  33        3S          0.11031   0.00263  -0.00436   0.00820  -0.00550
  34        3PX        -0.00735   0.00264   0.00229  -0.00749   0.01465
  35        3PY         0.02072   0.00069  -0.00375   0.01130  -0.00123
  36        3PZ        -0.00085  -0.01034  -0.34105   0.46573  -0.46943
  37 5   C  1S          0.02282   0.00018  -0.00069   0.00020   0.00002
  38        2S         -0.02301  -0.00028   0.00102  -0.00095  -0.00054
  39        2PX         0.17570  -0.00120  -0.00050   0.00098  -0.00036
  40        2PY        -0.02090   0.00298   0.00125   0.00216  -0.00031
  41        2PZ         0.00098  -0.28531  -0.19516  -0.15043   0.34921
  42        3S         -0.15431  -0.00116   0.00025   0.00806   0.00955
  43        3PX         0.14171   0.00041   0.00045  -0.00132   0.00589
  44        3PY        -0.05492   0.00118   0.00322  -0.00052  -0.01088
  45        3PZ         0.00089  -0.28972  -0.21361  -0.24833   0.73483
  46 6   H  1S          0.02599  -0.00035   0.00116  -0.00208  -0.00046
  47        2S          0.04940   0.00017   0.00081  -0.00501  -0.00546
  48 7   H  1S          0.09976  -0.00056   0.00007  -0.00336   0.00324
  49        2S          0.09617  -0.00113   0.00046  -0.01368   0.01284
  50 8   H  1S          0.06555  -0.00030   0.00076   0.00046   0.00030
  51        2S          0.06587  -0.00022   0.00086   0.00166   0.00149
  52 9   H  1S          0.04707   0.00163   0.00020  -0.00372  -0.00917
  53        2S          0.06361   0.00289   0.00067  -0.01539  -0.05310
                          21        22        23        24        25
                           V         V         V         V         V
     Eigenvalues --     0.11969   0.15528   0.16791   0.19099   0.21611
   1 1   C  1S          0.06130  -0.03089  -0.05549  -0.07958  -0.07635
   2        2S         -0.04009   0.03265   0.06051   0.06346   0.02133
   3        2PX        -0.17927   0.06844  -0.07231   0.15015   0.11813
   4        2PY        -0.00692  -0.05461   0.01224  -0.06422   0.03009
   5        2PZ        -0.01504   0.01047   0.00129   0.00961   0.00094
   6        3S         -0.68848   0.24284   0.28787   0.70148   1.41809
   7        3PX        -0.52626   0.30236   0.09597   0.86641   0.25284
   8        3PY         0.06184  -0.27118   0.05078  -0.34373   0.46550
   9        3PZ        -0.03688   0.02875   0.00452   0.03100   0.00765
  10 2   C  1S          0.02533   0.09973   0.09112   0.02776  -0.06799
  11        2S         -0.01357  -0.07299  -0.06348  -0.03905   0.05494
  12        2PX        -0.07815   0.17608   0.00470  -0.01853  -0.25971
  13        2PY         0.14000  -0.04021   0.26417  -0.08136   0.12399
  14        2PZ         0.00781  -0.00717  -0.00221  -0.00279   0.00188
  15        3S         -0.43810  -0.89273  -1.04656  -0.02303   0.60414
  16        3PX        -0.15936   0.42511   0.01014  -0.19233  -0.69478
  17        3PY         0.27514   0.09256   0.99450   0.00336   0.34455
  18        3PZ         0.01838  -0.01810  -0.00688  -0.01161   0.00204
  19 3   O  1S          0.03666  -0.08441  -0.02236   0.02715   0.04568
  20        2S         -0.02394   0.06046   0.01576  -0.01785  -0.02265
  21        2PX        -0.10472   0.17061   0.03215  -0.00848  -0.14976
  22        2PY        -0.02735  -0.00331   0.02668  -0.11430   0.24982
  23        2PZ        -0.00244  -0.00239   0.00199   0.00016   0.00124
  24        3S         -0.30972   0.70201   0.19144  -0.23997  -0.46662
  25        3PX        -0.19563   0.27144   0.04428  -0.04396  -0.34295
  26        3PY        -0.06285  -0.00684   0.06237  -0.15578   0.46599
  27        3PZ        -0.00423  -0.00428   0.00400   0.00083   0.00254
  28 4   C  1S          0.04496   0.09725  -0.02423  -0.05627   0.08788
  29        2S         -0.03182  -0.06364   0.01879   0.05950  -0.05867
  30        2PX         0.05651   0.18334  -0.10657   0.03703   0.07558
  31        2PY        -0.16516  -0.04293   0.18780  -0.13282   0.00041
  32        2PZ         0.00154   0.00934  -0.00440   0.00167   0.00041
  33        3S         -0.58622  -0.97356   0.30737   0.22339  -1.19633
  34        3PX         0.11901   0.70065  -0.37810  -0.07074   0.00808
  35        3PY        -0.40485  -0.22012   0.63012  -0.04745  -0.18138
  36        3PZ         0.00390   0.02433  -0.01128   0.00836   0.00392
  37 5   C  1S          0.02611  -0.03485   0.04149   0.09757   0.00968
  38        2S         -0.00877   0.03834  -0.04298  -0.08449  -0.00169
  39        2PX        -0.10069  -0.01095   0.01835  -0.10165  -0.12927
  40        2PY        -0.10339  -0.00874   0.06376  -0.15090   0.17877
  41        2PZ         0.00534  -0.00852   0.00197  -0.00617   0.00200
  42        3S         -0.44780   0.23567  -0.21436  -0.91342  -0.13751
  43        3PX        -0.26509   0.12502  -0.14173  -0.49427  -0.66404
  44        3PY        -0.28235   0.06939   0.04220  -0.99524   0.84379
  45        3PZ         0.01257  -0.02543   0.00535  -0.02387   0.00172
  46 6   H  1S          0.09046  -0.02092  -0.00683   0.06713  -0.01490
  47        2S          0.82390  -0.27302   0.08055   1.71309  -0.40539
  48 7   H  1S          0.06278   0.09578  -0.05062  -0.00963  -0.03373
  49        2S          0.74948   1.31642  -0.92700  -0.09684   0.64069
  50 8   H  1S          0.04514   0.04543   0.09385  -0.00051   0.03639
  51        2S          0.57817   0.64284   1.68376  -0.04928  -0.01410
  52 9   H  1S          0.11068  -0.05484  -0.00536  -0.04548   0.05128
  53        2S          1.08514  -0.60592  -0.16801  -1.30618  -0.65388
                          26        27        28        29        30
                           V         V         V         V         V
     Eigenvalues --     0.23016   0.33999   0.44237   0.47900   0.67422
   1 1   C  1S         -0.00903  -0.08806   0.00558   0.12090   0.02592
   2        2S         -0.00326   0.03921  -0.01598  -0.00680  -0.06093
   3        2PX         0.06728  -0.15683  -0.06173   0.20792   0.26250
   4        2PY        -0.21759  -0.00053  -0.26381  -0.01053   0.47795
   5        2PZ         0.00197  -0.00260  -0.00106   0.00680   0.00544
   6        3S          0.30212   1.69372   0.12681  -3.58990  -0.09433
   7        3PX         0.09855  -1.24085  -0.67977   2.41726  -0.05589
   8        3PY        -1.03016  -0.80365  -1.90475  -1.10862  -0.40679
   9        3PZ         0.00630  -0.00651  -0.00346   0.00376  -0.00308
  10 2   C  1S          0.04963   0.08299   0.02345  -0.07780  -0.04481
  11        2S         -0.02995  -0.00814  -0.00148   0.02137  -0.03638
  12        2PX        -0.08592  -0.16273  -0.16794  -0.25100  -0.29681
  13        2PY         0.07815  -0.22551  -0.00452   0.17802   0.13686
  14        2PZ        -0.00048   0.00099   0.00068   0.00175   0.00743
  15        3S         -0.90189  -1.59136  -1.02550   1.61988   0.04154
  16        3PX        -0.55735  -0.86659  -1.50622   0.80931   0.49447
  17        3PY         0.13664  -1.29965  -0.43164   1.58618   0.15608
  18        3PZ        -0.00247   0.00323   0.00532  -0.00404  -0.00529
  19 3   O  1S          0.08572  -0.03800  -0.00449  -0.00834   0.02530
  20        2S         -0.04246   0.02067   0.00063   0.00241  -0.08811
  21        2PX        -0.01283   0.14480  -0.10031  -0.05261  -0.19372
  22        2PY        -0.18987   0.07066   0.21471   0.15985  -0.08742
  23        2PZ         0.00022  -0.00027   0.00044   0.00039   0.00175
  24        3S         -0.89004   0.45200   0.07490   0.11268   0.19783
  25        3PX        -0.10249   0.39133  -0.24641  -0.02403  -0.07354
  26        3PY        -0.42365   0.19912   0.55144   0.23350  -0.04667
  27        3PZ         0.00120  -0.00093   0.00137   0.00102   0.00144
  28 4   C  1S         -0.05015   0.07480  -0.03520   0.09099  -0.04550
  29        2S          0.03890  -0.00776   0.00641  -0.01404  -0.04599
  30        2PX        -0.10894  -0.23754   0.15720   0.02974  -0.17357
  31        2PY        -0.26524   0.03480   0.11418   0.30482  -0.35395
  32        2PZ         0.00125  -0.00162   0.00138  -0.00433   0.00748
  33        3S          0.38471  -1.51195   1.41925  -2.02262   0.07649
  34        3PX        -0.44164  -1.20572   1.76374  -1.89747   0.56396
[...]
     2  C    0.461681   5.161802   0.293020  -0.180226  -0.151427   0.006431
     3  O   -0.075009   0.293020   8.087377   0.285647  -0.071301   0.001962
     4  C   -0.148907  -0.180226   0.285647   5.113158   0.465671  -0.028199
     5  C    0.422071  -0.151427  -0.071301   0.465671   5.265706   0.387095
     6  H   -0.030515   0.006431   0.001962  -0.028199   0.387095   0.472000
     7  H    0.003154   0.005023  -0.031404   0.383050  -0.034591  -0.000648
     8  H   -0.033986   0.384097  -0.027418   0.004624   0.003285  -0.000042
     9  H    0.380831  -0.028862   0.001470   0.005361  -0.024710  -0.001695
               7          8          9
     1  C    0.003154  -0.033986   0.380831
     2  C    0.005023   0.384097  -0.028862
     3  O   -0.031404  -0.027418   0.001470
     4  C    0.383050   0.004624   0.005361
     5  C   -0.034591   0.003285  -0.024710
     6  H   -0.000648  -0.000042  -0.001695
     7  H    0.467106  -0.000094  -0.000030
     8  H   -0.000094   0.459419  -0.000468
     9  H   -0.000030  -0.000468   0.474962
 Mulliken charges:
               1
     1  C   -0.227912
     2  C    0.048461
     3  O   -0.464344
     4  C    0.099820
     5  C   -0.261799
     6  H    0.193612
     7  H    0.208436
     8  H    0.210584
     9  H    0.193142
 Sum of Mulliken charges =   0.00000
 Mulliken charges with hydrogens summed into heavy atoms:
               1
     1  C   -0.034770
     2  C    0.259045
     3  O   -0.464344
     4  C    0.308256
     5  C   -0.068187
 Electronic spatial extent (au):  <R**2>=            288.4884
 Charge=              0.0000 electrons
 Dipole moment (field-independent basis, Debye):
    X=              0.8013    Y=              0.2853    Z=              0.0152  Tot=              0.8507
 Quadrupole moment (field-independent basis, Debye-Ang):
   XX=            -27.3023   YY=            -24.7701   ZZ=            -31.7462
   XY=             -1.4633   XZ=              0.1049   YZ=             -0.0366
 Traceless Quadrupole moment (field-independent basis, Debye-Ang):
   XX=              0.6372   YY=              3.1694   ZZ=             -3.8066
   XY=             -1.4633   XZ=              0.1049   YZ=             -0.0366
 Octapole moment (field-independent basis, Debye-Ang**2):
  XXX=              0.3838  YYY=             -4.0683  ZZZ=              0.0561  XYY=             -1.8568
  XXY=              2.9872  XXZ=              0.1110  XZZ=             -3.1172  YZZ=             -1.1037
  YYZ=              0.0233  XYZ=              0.0254
 Hexadecapole moment (field-independent basis, Debye-Ang**3):
 XXXX=           -154.7950 YYYY=           -147.7950 ZZZZ=            -30.7139 XXXY=             -7.0426
 XXXZ=              0.4716 YYYX=              4.7481 YYYZ=             -0.0959 ZZZX=              0.0700
 ZZZY=             -0.0574 XXYY=            -50.3756 XXZZ=            -35.7129 YYZZ=            -37.3990
 XXYZ=             -0.1480 YYXZ=              0.1510 ZZXY=              1.4421
 N-N= 1.615438628476D+02 E-N=-8.557094781311D+02  KE= 2.269975714117D+02
 Orbital energies and kinetic energies (alpha):
                                 1                 2
   1         O               -19.116364         28.829592
   2         O               -10.175082         15.806848
   3         O               -10.174558         15.795691
   4         O               -10.128229         15.804943
   5         O               -10.118806         15.803224
   6         O                -1.124755          2.492450
   7         O                -0.826123          1.833226
   8         O                -0.739248          1.781472
   9         O                -0.601256          1.661259
  10         O                -0.570624          1.604693
  11         O                -0.545402          1.128880
  12         O                -0.447700          1.552290
  13         O                -0.427384          1.553226
  14         O                -0.413650          1.409811
  15         O                -0.411878          1.376786
  16         O                -0.376160          2.254542
  17         O                -0.290280          1.581989
  18         O                -0.228628          1.227864
  19         V                 0.016047          1.838185
  20         V                 0.090942          1.500469
  21         V                 0.119686          1.170491
  22         V                 0.155282          1.758210
  23         V                 0.167910          1.244108
  24         V                 0.190987          1.351254
  25         V                 0.216111          2.082006
  26         V                 0.230162          1.870448
  27         V                 0.339988          1.916976
  28         V                 0.442367          1.828099
  29         V                 0.479003          2.482819
  30         V                 0.674223          2.531205
  31         V                 0.699739          2.499719
  32         V                 0.723099          2.833201
  33         V                 0.756228          2.767743
  34         V                 0.768522          2.500510
  35         V                 0.787201          2.572448
  36         V                 0.815606          2.469314
  37         V                 0.822835          2.575361
  38         V                 0.839391          2.622657
  39         V                 0.956472          2.875785
  40         V                 0.982489          3.303888
  41         V                 0.994213          3.145746
  42         V                 1.027576          3.226777
  43         V                 1.187925          2.773691
  44         V                 1.200858          2.848388
  45         V                 1.336111          2.580280
  46         V                 1.356275          2.843200
  47         V                 1.498209          4.953251
  48         V                 1.577980          3.380038
  49         V                 1.628984          3.557292
  50         V                 1.721548          4.505823
  51         V                 1.961960          4.214539
  52         V                 2.183826          4.127960
  53         V                 3.166074          6.830481
 Total kinetic energy from orbitals= 2.269975714117D+02
 No NMR shielding tensors so no spin-rotation constants.
 Leave Link  601 at Tue Dec 15 16:12:58 2015, MaxMem=    33554432 cpu:         0.1
 (Enter /home/Applications/g09/g09/l701.exe)
 Compute integral first derivatives.
 ... and contract with generalized density number  6.
 Leave Link  701 at Tue Dec 15 16:12:58 2015, MaxMem=    33554432 cpu:         0.1
 (Enter /home/Applications/g09/g09/l702.exe)
 L702 exits ... SP integral derivatives will be done elsewhere.
 Leave Link  702 at Tue Dec 15 16:12:58 2015, MaxMem=    33554432 cpu:         0.0
 (Enter /home/Applications/g09/g09/l703.exe)
 Compute integral first derivatives, UseDBF=F ICtDFT=           0.
 Integral derivatives from FoFJK, PRISM(SPDF).
 Calling FoFJK, ICntrl=  10005127 FMM=F ISym2X=0 I1Cent= 0 IOpClX= 0 NMat=1 NMatS=1 NMatT=0.
 FoFJK:  IHMeth= 1 ICntrl=10005127 DoSepK=F KAlg= 0 I1Cent=   0 FoldK=F
 IRaf=         0 NMat=   1 IRICut=       1 DoRegI=T DoRafI=F ISym2E= 0.
 FoFCou: FMM=F IPFlag=           0 FMFlag=      100000 FMFlg1=         800
         NFxFlg=           0 DoJE=F BraDBF=F KetDBF=F FulRan=T
         wScrn=  0.000000 ICntrl=10005127 IOpCl=  0 I1Cent=           0 NGrid=           0
         NMat0=    1 NMatS0=      1 NMatT0=    0 NMatD0=    1 NMtDS0=    0 NMtDT0=    0
 Symmetry not used in FoFCou.
 Leave Link  703 at Tue Dec 15 16:12:59 2015, MaxMem=    33554432 cpu:         1.5
 (Enter /home/Applications/g09/g09/l716.exe)
 Dipole        = 2.40397237D-01 3.35537084D-01 1.18851973D-02
 ***** Axes restored to original set *****
 -------------------------------------------------------------------
 Center     Atomic                   Forces (Hartrees/Bohr)
 Number     Number              X              Y              Z
 -------------------------------------------------------------------
      1        6           0.084348824   -0.034213713   -0.000408503
      2        6          -0.046463836   -0.087675263    0.001505515
      3        8          -0.074323361    0.001341085    0.001990287
      4        6          -0.081644667    0.104858148   -0.001883978
      5        6           0.081112597   -0.004514567   -0.000485328
      6        1           0.014884526    0.012976756    0.000115430
      7        1           0.022514682   -0.015450782    0.000359215
      8        1           0.012249689    0.005982076   -0.000657995
      9        1          -0.012678455    0.016696260   -0.000534643
 -------------------------------------------------------------------
 Cartesian Forces:  Max     0.104858148 RMS     0.042899362
 Z-matrix is all fixed cartesians, so copy forces.
 Force constants in Cartesian coordinates: 
                1             2             3             4             5 
      1  0.886979D+00
      2 -0.242846D-01  0.887209D+00
      3 -0.719907D-04 -0.102631D-01  0.227484D+00
      4 -0.495390D+00 -0.105086D+00  0.413314D-02  0.907114D+00
      5 -0.804701D-01 -0.213438D+00  0.218424D-02  0.431357D-01  0.808367D+00
      6  0.532245D-02  0.257595D-02 -0.104076D+00 -0.899499D-02 -0.699378D-02
      7 -0.817722D-02  0.275794D-01  0.202727D-04 -0.270281D+00  0.144571D+00
      8 -0.650191D-02  0.219275D-01 -0.232749D-04  0.187487D+00 -0.317117D+00
      9  0.265651D-03 -0.653269D-03  0.603400D-02  0.175240D-02  0.165506D-03
     10  0.108156D-01  0.153288D-03 -0.232025D-03  0.220793D-01  0.175542D-01
     11  0.366396D-01  0.519549D-03 -0.720084D-03 -0.185242D-01 -0.147278D-01
     12 -0.956294D-04 -0.350494D-05 -0.118163D-02 -0.199911D-03 -0.165736D-03
     13 -0.181699D+00  0.183284D-01 -0.928714D-04  0.106556D-01 -0.359308D-01
     14 -0.683664D-02 -0.509234D+00  0.392020D-02  0.151673D-03 -0.512974D-03
     15  0.303760D-03  0.229445D-02 -0.101694D+00 -0.124488D-03  0.292040D-03
     16  0.189420D-01  0.271954D-03  0.325826D-04  0.000000D+00  0.000000D+00
     17 -0.246787D-01 -0.352211D-03  0.209164D-03  0.000000D+00  0.000000D+00
     18 -0.221243D-03  0.203866D-03  0.247232D-01  0.606029D-04  0.535057D-04
     19  0.141620D-05  0.121453D-05  0.142605D-03  0.000000D+00  0.000000D+00
     20  0.277709D-05  0.238162D-05  0.279640D-03  0.132014D-05  0.000000D+00
     21  0.804102D-04  0.689594D-04  0.809693D-02  0.586569D-04  0.359340D-04
     22  0.743822D-02 -0.250593D-01  0.656582D-03 -0.168762D+00 -0.107092D+00
     23 -0.423522D-02  0.142944D-01  0.257411D-03 -0.100675D+00 -0.284466D+00
     24  0.118298D-03  0.785817D-03  0.288759D-01  0.297528D-02  0.458731D-02
     25 -0.238909D+00  0.108096D+00 -0.458830D-02 -0.541574D-02  0.182313D-01
     26  0.110365D+00 -0.200928D+00  0.415578D-02 -0.649203D-02  0.218936D-01
     27 -0.570171D-02  0.499081D-02 -0.882619D-01  0.339313D-03 -0.159024D-03
                6             7             8             9            10 
      6  0.193083D+00
      7  0.187599D-02  0.557301D+00
      8 -0.246325D-03  0.315866D-01  0.640742D+00
      9 -0.435690D-01 -0.671591D-02 -0.571185D-02  0.523396D-01
     10 -0.391563D-03 -0.310043D+00 -0.219028D+00  0.448520D-02  0.989530D+00
     11  0.284734D-03 -0.175352D+00 -0.350794D+00  0.487056D-02 -0.152719D-01
     12 -0.282235D-02  0.459894D-02  0.589480D-02 -0.468721D-01 -0.565455D-02
     13  0.173862D-03 -0.834262D-02  0.700111D-02  0.152206D-03 -0.546777D+00
     14 -0.221916D-04 -0.282713D-01  0.237205D-01  0.303268D-03  0.118264D+00
     15 -0.193067D-02  0.450504D-03 -0.192537D-03  0.828711D-02  0.381289D-02
     16  0.860340D-05  0.000000D+00  0.000000D+00  0.580621D-04 -0.549299D-02
     17  0.527599D-04  0.000000D+00  0.000000D+00  0.286954D-05  0.716037D-02
     18  0.628548D-02  0.818874D-04  0.835757D-04  0.771432D-02  0.435745D-03
     19 -0.142355D-04  0.195813D-01 -0.164155D-01  0.480056D-03 -0.160111D+00
     20  0.970770D-04  0.112588D-01 -0.943633D-02  0.390032D-03  0.911668D-01
     21  0.431335D-02 -0.232327D-03  0.286974D-03  0.466594D-02 -0.256875D-02
     22  0.284699D-02  0.199602D-01  0.158698D-01 -0.479245D-03  0.000000D+00
     23  0.428878D-02 -0.113751D-01 -0.904435D-02  0.390087D-03  0.000000D+00
     24 -0.752986D-01 -0.142494D-03 -0.126560D-03  0.535205D-02  0.486585D-04
     25 -0.827105D-03  0.000000D+00  0.000000D+00  0.158669D-05 -0.170670D-05
     26 -0.370109D-04  0.253491D-05  0.141303D-05  0.242803D-03  0.000000D+00
     27  0.240150D-01  0.631428D-04  0.351975D-04  0.604805D-02  0.643963D-04
               11            12            13            14            15 
     11  0.830181D+00
     12 -0.101488D-01  0.212026D+00
     13  0.929754D-01  0.368044D-02  0.993422D+00
     14 -0.227324D+00 -0.493289D-04  0.258794D-01  0.920941D+00
     15 -0.250186D-03 -0.119120D+00 -0.536967D-02 -0.487347D-02  0.248543D+00
     16 -0.186130D-01  0.235885D-03 -0.293535D+00 -0.134388D+00  0.143929D-02
     17  0.242556D-01 -0.163403D-04 -0.135216D+00 -0.222259D+00  0.116462D-02
     18  0.757786D-03  0.285893D-01  0.126934D-02  0.736358D-03 -0.986637D-01
     19  0.981474D-01 -0.245716D-02  0.735529D-02  0.249287D-01 -0.528072D-03
     20 -0.262111D+00  0.439517D-02  0.423515D-02  0.143338D-01  0.494848D-03
     21  0.512094D-02 -0.806821D-01  0.159464D-03 -0.281983D-03  0.327244D-01
     22  0.000000D+00  0.638399D-04  0.000000D+00  0.000000D+00  0.494452D-04
     23  0.000000D+00  0.418783D-04  0.125345D-05  0.110666D-05  0.130003D-03
     24  0.298088D-04  0.357812D-02  0.697360D-04  0.615693D-04  0.723273D-02
     25 -0.146366D-05 -0.171857D-03  0.189201D-01  0.271085D-03 -0.336542D-04
     26  0.000000D+00  0.518374D-04  0.227257D-01  0.333824D-03  0.940234D-03
     27  0.552259D-04  0.648440D-02 -0.425070D-04  0.205572D-03  0.246208D-01
               16            17            18            19            20 
     16  0.280086D+00
     17  0.152731D+00  0.198356D+00
     18 -0.166714D-02 -0.132597D-02  0.536434D-01
     19 -0.165268D-05  0.000000D+00 -0.219581D-03  0.133175D+00
     20 -0.324081D-05  0.000000D+00 -0.430584D-03 -0.106662D+00  0.257211D+00
     21 -0.938371D-04 -0.463761D-05 -0.124675D-01  0.259638D-02 -0.522619D-02
     22  0.000000D+00  0.000000D+00  0.000000D+00  0.000000D+00  0.000000D+00
     23  0.000000D+00  0.000000D+00  0.000000D+00  0.000000D+00  0.000000D+00
     24  0.000000D+00  0.000000D+00  0.000000D+00  0.000000D+00  0.000000D+00
     25  0.000000D+00  0.218563D-05  0.260382D-03  0.000000D+00  0.000000D+00
     26  0.000000D+00  0.000000D+00 -0.785393D-04  0.000000D+00  0.000000D+00
     27 -0.134476D-04 -0.824668D-04 -0.982457D-02  0.000000D+00  0.000000D+00
               21            22            23            24            25 
     21  0.433490D-01
     22  0.000000D+00  0.141362D+00
     23  0.000000D+00  0.116283D+00  0.279222D+00
     24  0.000000D+00 -0.306676D-02 -0.492187D-02  0.406239D-01
     25  0.000000D+00  0.000000D+00  0.000000D+00 -0.271900D-05  0.225406D+00
     26  0.000000D+00 -0.284441D-05 -0.747858D-05 -0.416073D-03 -0.126599D+00
     27  0.000000D+00 -0.708521D-04 -0.186286D-03 -0.103641D-01  0.536166D-02
               26            27 
     26  0.178707D+00
     27 -0.485903D-02  0.472823D-01
 Leave Link  716 at Tue Dec 15 16:12:59 2015, MaxMem=    33554432 cpu:         0.0
 (Enter /home/Applications/g09/g09/l103.exe)

 GradGradGradGradGradGradGradGradGradGradGradGradGradGradGradGradGradGrad
 Berny optimization.
 Search for a local minimum.
 Step number   1 out of a maximum of    2
 All quantities printed in internal units (Hartrees-Bohrs-Radians)
 Second derivative matrix not updated -- first step.
 ITU=  0
     Eigenvalues ---    0.02214   0.02885   0.06934   0.07283   0.07803
     Eigenvalues ---    0.08351   0.13272   0.14769   0.15995   0.21570
     Eigenvalues ---    0.26493   0.32029   0.40993   0.44703   0.61926
     Eigenvalues ---    0.83065   1.05851   1.30504   1.45146   1.59071
     Eigenvalues ---    1.69955
 Quadratic step=3.968D-01 exceeds max=3.000D-01 adjusted using Lamda=-6.149D-02.
 Angle between NR and scaled steps=  12.14 degrees.
 Angle between quadratic step and forces=  38.79 degrees.
 Linear search not attempted -- first point.
 TrRot= -0.017418 -0.003776  0.000771  0.428252  0.000484 -0.428261
 Variable       Old X    -DE/DX   Delta X   Delta X   Delta X     New X
                                 (Linear)    (Quad)   (Total)
    X1        1.86705   0.08435   0.00000   0.07692   0.05948   1.92653
    Y1       -1.25962  -0.03421   0.00000  -0.04900  -0.05279  -1.31241
    Z1       -0.01375  -0.00041   0.00000  -0.00121  -0.00103  -0.01478
    X2       -0.60241  -0.04646   0.00000  -0.04315  -0.06058  -0.66299
    Y2       -1.99183  -0.08768   0.00000  -0.10395  -0.10772  -2.09955
    Z2        0.01629   0.00151   0.00000   0.00152   0.00299   0.01928
    X3       -2.24561  -0.07432   0.00000  -0.11746  -0.13486  -2.38048
    Y3        0.07505   0.00134   0.00000   0.00489   0.00114   0.07619
    Z3        0.02142   0.00199   0.00000   0.00635   0.00814   0.02956
    X4       -0.59341  -0.08164   0.00000  -0.06778  -0.08519  -0.67860
    Y4        2.04474   0.10486   0.00000   0.10435   0.10057   2.14532
    Z4       -0.01746  -0.00188   0.00000  -0.00504  -0.00441  -0.02187
    X5        1.82992   0.08111   0.00000   0.07401   0.05659   1.88651
    Y5        1.32935  -0.00451   0.00000   0.01896   0.01517   1.34452
    Z5       -0.03543  -0.00049   0.00000   0.00025  -0.00008  -0.03552
    X6        3.40540   0.01488   0.00000   0.09487   0.07746   3.48286
    Y6        2.53871   0.01298   0.00000   0.04882   0.04500   2.58372
    Z6       -0.04774   0.00012   0.00000   0.00330   0.00201  -0.04573
    X7       -1.64573   0.02251   0.00000   0.06104   0.04362  -1.60211
    Y7        3.87401  -0.01545   0.00000   0.07998   0.07620   3.95021
    Z7       -0.06210   0.00036   0.00000  -0.00502  -0.00435  -0.06645
    X8       -1.62396   0.01225   0.00000   0.02742   0.00999  -1.61396
    Y8       -3.78485   0.00598   0.00000  -0.09185  -0.09561  -3.88046
    Z8        0.05550  -0.00066   0.00000  -0.00366  -0.00140   0.05410
    X9        3.47187  -0.01268   0.00000   0.05091   0.03348   3.50535
    Y9       -2.59560   0.01670   0.00000   0.02184   0.01804  -2.57756
    Z9        0.03946  -0.00053   0.00000  -0.00161  -0.00187   0.03759
         Item               Value     Threshold  Converged?
 Maximum Force            0.104858     0.000450     NO 
 RMS     Force            0.042899     0.000300     NO 
 Maximum Displacement     0.134865     0.001800     NO 
 RMS     Displacement     0.056810     0.001200     NO 
 Predicted change in Energy=-2.883202D-02
 GradGradGradGradGradGradGradGradGradGradGradGradGradGradGradGradGradGrad

 Leave Link  103 at Tue Dec 15 16:12:59 2015, MaxMem=    33554432 cpu:         0.0
 (Enter /home/Applications/g09/g09/l9999.exe)
 1\1\GINC-DUSTIN-DESKTOP\Force\RB3LYP-FC\3-21G\C4H4O1\DUSTIN\15-Dec-201
 5\0\\#P B3LYP/3-21G CIS(Singlets,NStates=15) pop(full) force\\FuranDFT
 \\0,1\C,0.988001,-0.666563,-0.007277\C,-0.318781,-1.054031,0.008621\O,
 -1.188327,0.039717,0.011334\C,-0.314021,1.082031,-0.009239\C,0.968351,
 0.703462,-0.01875\H,1.802061,1.343429,-0.025263\H,-0.870885,2.050039,-
 0.032863\H,-0.859361,-2.002859,0.029371\H,1.837234,-1.373533,0.020882\
 \Version=ES64L-G09RevD.01\State=1-A\HF=-228.739457\RMSD=3.299e-09\RMSF
 =4.290e-02\Dipole=0.3507831,0.2177751,0.0065159\PG=C01 [X(C4H4O1)]\\@


      LET US REMEMBER, PLEASE, THAT THE SEARCH FOR THE CONSTITUTION
      OF THE WORLD IS ONE OF THE GREATEST AND NOBLEST PROBLEMS PRESENTED 
      BY NATURE.

                                                  -- GALILEO
 Job cpu time:       0 days  0 hours  0 minutes 50.8 seconds.
 File lengths (MBytes):  RWF=     14 Int=      0 D2E=      0 Chk=      3 Scr=      1
 Normal termination of Gaussian 09 at Tue Dec 15 16:12:59 2015.
