 Entering Gaussian System, Link 0=g09
 Input=FuranAM1_40P4.com
 Output=FuranAM1_40P4.log
 Initial command:
 /home/Applications/g09/g09/l1.exe "/home/Applications/g09/scratch/Gau-7547.inp" -scrdir="/home/Applications/g09/scratch/"
 Entering Link 1 = /home/Applications/g09/g09/l1.exe PID=      7549.
  
 Copyright (c) 1988,1990,1992,1993,1995,1998,2003,2009,2013,
            Gaussian, Inc.  All Rights Reserved.
  
 This is part of the Gaussian(R) 09 program.  It is based on
 the Gaussian(R) 03 system (copyright 2003, Gaussian, Inc.),
 the Gaussian(R) 98 system (copyright 1998, Gaussian, Inc.),
 the Gaussian(R) 94 system (copyright 1995, Gaussian, Inc.),
 the Gaussian 92(TM) system (copyright 1992, Gaussian, Inc.),
 the Gaussian 90(TM) system (copyright 1990, Gaussian, Inc.),
 the Gaussian 88(TM) system (copyright 1988, Gaussian, Inc.),
 the Gaussian 86(TM) system (copyright 1986, Carnegie Mellon
 University), and the Gaussian 82(TM) system (copyright 1983,
 Carnegie Mellon University). Gaussian is a federally registered
 trademark of Gaussian, Inc.
  
 This software contains proprietary and confidential information,
 including trade secrets, belonging to Gaussian, Inc.
  
 This software is provided under written license and may be
 used, copied, transmitted, or stored only in accord with that
 written license.
  
 The following legend is applicable only to US Government
 contracts under FAR:
  
                    RESTRICTED RIGHTS LEGEND
  
 Use, reproduction and disclosure by the US Government is
 subject to restrictions as set forth in subparagraphs (a)
 and (c) of the Commercial Computer Software - Restricted
 Rights clause in FAR 52.227-19.
  
 Gaussian, Inc.
 340 Quinnipiac St., Bldg. 40, Wallingford CT 06492
  
  
 ---------------------------------------------------------------
 Warning -- This program may not be used in any manner that
 competes with the business of Gaussian, Inc. or will provide
 assistance to any competitor of Gaussian, Inc.  The licensee
 of this program is prohibited from giving any competitor of
 Gaussian, Inc. access to this program.  By using this program,
 the user acknowledges that Gaussian, Inc. is engaged in the
 business of creating and licensing software in the field of
 computational chemistry and represents and warrants to the
 licensee that it is not a competitor of Gaussian, Inc. and that
 it will not use this program in any manner prohibited above.
 ---------------------------------------------------------------
  

 Cite this work as:
 Gaussian 09, Revision D.01,
 M. J. Frisch, G. W. Trucks, H. B. Schlegel, G. E. Scuseria, 
 M. A. Robb, J. R. Cheeseman, G. Scalmani, V. Barone, B. Mennucci, 
 G. A. Petersson, H. Nakatsuji, M. Caricato, X. Li, H. P. Hratchian, 
 A. F. Izmaylov, J. Bloino, G. Zheng, J. L. Sonnenberg, M. Hada, 
 M. Ehara, K. Toyota, R. Fukuda, J. Hasegawa, M. Ishida, T. Nakajima, 
 Y. Honda, O. Kitao, H. Nakai, T. Vreven, J. A. Montgomery, Jr., 
 J. E. Peralta, F. Ogliaro, M. Bearpark, J. J. Heyd, E. Brothers, 
 K. N. Kudin, V. N. Staroverov, T. Keith, R. Kobayashi, J. Normand, 
 K. Raghavachari, A. Rendell, J. C. Burant, S. S. Iyengar, J. Tomasi, 
 M. Cossi, N. Rega, J. M. Millam, M. Klene, J. E. Knox, J. B. Cross, 
 V. Bakken, C. Adamo, J. Jaramillo, R. Gomperts, R. E. Stratmann, 
 O. Yazyev, A. J. Austin, R. Cammi, C. Pomelli, J. W. Ochterski, 
 R. L. Martin, K. Morokuma, V. G. Zakrzewski, G. A. Voth, 
 P. Salvador, J. J. Dannenberg, S. Dapprich, A. D. Daniels, 
 O. Farkas, J. B. Foresman, J. V. Ortiz, J. Cioslowski, 
 and D. J. Fox, Gaussian, Inc., Wallingford CT, 2013.
 
 ******************************************
 Gaussian 09:  ES64L-G09RevD.01 24-Apr-2013
                15-Dec-2015 
 ******************************************
 ------------------------------------------------------------
 #P AM1(Input,print) CIS(Singlets,NStates=15) pop(full) force
 ------------------------------------------------------------
 1/10=7,30=1,38=1/1,3;
 2/12=2,17=6,18=5,40=1/2;
 3/5=2,16=1,25=1,41=700000,71=1,135=100,136=1/1,2,8,3;
 4/35=1/1;
 5/5=2,35=1,38=5/2;
 8/6=1,10=1,108=15/1;
 9/15=2,41=15,42=1,48=1,49=10/14;
 10/5=4/2;
 6/7=3,18=1/1;
 7/12=6,13=5,29=1/1,2,3,16;
 1/10=7,30=1/3;
 99//99;
 Leave Link    1 at Tue Dec 15 17:05:36 2015, MaxMem=           0 cpu:         0.0
 (Enter /home/Applications/g09/g09/l101.exe)
 -----------------
 AM1-Reparam Input
 -----------------
 Symbolic Z-matrix:
 Charge =  0 Multiplicity = 1
 6                     0.92717  -0.68771   0.01289 
 6                    -0.38679  -1.12275  -0.03524 
 8                    -1.14603   0.03063   0.04149 
 6                    -0.35811   1.12342   0.03171 
 6                     0.90754   0.6742    0.00124 
 1                     1.78436   1.33051  -0.02416 
 1                    -0.85338   2.06298   0.00557 
 1                    -0.87683  -2.08169   0.01036 
 1                     1.84905  -1.33801   0.01072 
 
 NAtoms=      9 NQM=        9 NQMF=       0 NMMI=      0 NMMIF=      0
                NMic=       0 NMicF=      0.
                    Isotopes and Nuclear Properties:
 (Nuclear quadrupole moments (NQMom) in fm**2, nuclear magnetic moments (NMagM)
  in nuclear magnetons)

  Atom         1           2           3           4           5           6           7           8           9
 IAtWgt=          12          12          16          12          12           1           1           1           1
 AtmWgt=  12.0000000  12.0000000  15.9949146  12.0000000  12.0000000   1.0078250   1.0078250   1.0078250   1.0078250
 NucSpn=           0           0           0           0           0           1           1           1           1
 AtZEff=   0.0000000   0.0000000   0.0000000   0.0000000   0.0000000   0.0000000   0.0000000   0.0000000   0.0000000
 NQMom=    0.0000000   0.0000000   0.0000000   0.0000000   0.0000000   0.0000000   0.0000000   0.0000000   0.0000000
 NMagM=    0.0000000   0.0000000   0.0000000   0.0000000   0.0000000   2.7928460   2.7928460   2.7928460   2.7928460
 AtZNuc=   6.0000000   6.0000000   8.0000000   6.0000000   6.0000000   1.0000000   1.0000000   1.0000000   1.0000000
 Leave Link  101 at Tue Dec 15 17:05:36 2015, MaxMem=    33554432 cpu:         0.0
 (Enter /home/Applications/g09/g09/l103.exe)

 GradGradGradGradGradGradGradGradGradGradGradGradGradGradGradGradGradGrad
 Berny optimization.
 Initialization pass.
 Trust Radius=3.00D-01 FncErr=1.00D-07 GrdErr=1.00D-07
 Number of steps in this run=      2 maximum allowed number of steps=      2.
 GradGradGradGradGradGradGradGradGradGradGradGradGradGradGradGradGradGrad

 Leave Link  103 at Tue Dec 15 17:05:36 2015, MaxMem=    33554432 cpu:         0.0
 (Enter /home/Applications/g09/g09/l202.exe)
                          Input orientation:                          
 ---------------------------------------------------------------------
 Center     Atomic      Atomic             Coordinates (Angstroms)
 Number     Number       Type             X           Y           Z
 ---------------------------------------------------------------------
      1          6           0        0.927166   -0.687706    0.012885
      2          6           0       -0.386786   -1.122751   -0.035244
      3          8           0       -1.146026    0.030634    0.041487
      4          6           0       -0.358111    1.123416    0.031710
      5          6           0        0.907536    0.674202    0.001240
      6          1           0        1.784357    1.330512   -0.024162
      7          1           0       -0.853376    2.062978    0.005566
      8          1           0       -0.876825   -2.081689    0.010361
      9          1           0        1.849051   -1.338008    0.010722
 ---------------------------------------------------------------------
                    Distance matrix (angstroms):
                    1          2          3          4          5
     1  C    0.000000
     2  C    1.384937   0.000000
     3  O    2.194301   1.382979   0.000000
     4  C    2.220913   2.247348   1.347248   0.000000
     5  C    1.362099   2.214868   2.152421   1.343348   0.000000
     6  H    2.193024   3.276047   3.206421   2.153179   1.095538
     7  H    3.276682   3.219975   2.053620   1.062425   2.242661
     8  H    2.279820   1.077859   2.129635   3.246878   3.283133
     9  H    1.128171   2.246645   3.293116   3.306148   2.221605
                    6          7          8          9
     6  H    0.000000
     7  H    2.737704   0.000000
     8  H    4.327378   4.144736   0.000000
     9  H    2.669532   4.343943   2.825502   0.000000
 Stoichiometry    C4H4O
 Framework group  C1[X(C4H4O)]
 Deg. of freedom    21
 Full point group                 C1      NOp   1
 Largest Abelian subgroup         C1      NOp   1
 Largest concise Abelian subgroup C1      NOp   1
                         Standard orientation:                         
 ---------------------------------------------------------------------
 Center     Atomic      Atomic             Coordinates (Angstroms)
 Number     Number       Type             X           Y           Z
 ---------------------------------------------------------------------
      1          6           0       -0.791361    0.865569   -0.019063
      2          6           0       -1.080120   -0.487728    0.038010
      3          8           0        0.150444   -1.116339   -0.018479
      4          6           0        1.149966   -0.213091   -0.005149
      5          6           0        0.564242    0.995773    0.007387
      6          1           0        1.120018    1.939580    0.030739
      7          1           0        2.137831   -0.601887    0.036199
      8          1           0       -1.978883   -1.080538   -0.012795
      9          1           0       -1.538885    1.710418   -0.033425
 ---------------------------------------------------------------------
 Rotational constants (GHZ):      9.6488583      9.3757955      4.7579628
 Leave Link  202 at Tue Dec 15 17:05:36 2015, MaxMem=    33554432 cpu:         0.0
 (Enter /home/Applications/g09/g09/l301.exe)

 Semi-emprical parameters in input format:
 Method=8 CoreType=1 PeptideFC=0.0108360000 RIJScale=0.5404210000
 ****
 H       
 PQN=1 NValence=1 F0ss=0.4721550000 ZetaOverlap=1.0856700000 U=-0.4188110000
 Beta=-0.2268830000 CoreKO=1.0354420000 KON=0,0,0,1.0458670000 KON=1,0,1,1.0589200000
 KON=0,1,1,1.0589200000 KON=2,1,1,1.0697690000 EISol=-0.4188110042 EHeat=0.0830298228
 Alpha=1.4609850000
 GCore=0.0085280000,1.4001430000,2.2676710000
 GCore=0.0003530000,1.4368830000,3.4779940000
 GCore=-0.0011900000,0.5600570000,3.5861320000
 ****
 C       
 PQN=2,2 NValence=4 F0ss=0.4494440000 F0sp=0.4261420000 F0pp=0.3497590000 F2pp=0.1878900000
 G1sp=0.2503010000
 ZetaOverlap=1.8632470000,1.4040900000
 U=-1.7215630000,-1.4557970000
 Beta=-0.5453250000,-0.3063130000 DDN=0,1,0.7474020000 DDN=1,1,0.7268010000
 CoreKO=1.0436360000 KON=0,0,0,1.1124280000 KON=1,0,1,0.8998210000 KON=0,1,1,1.1124280000
 KON=2,1,1,0.8516400000 EISol=-4.4398989268 EHeat=0.2723305520 Alpha=1.4989150000
 DipHyp=1.4947180026
 GCore=0.0007890000,1.3361580000,2.6678360000
 GCore=0.0028980000,1.4001430000,3.7217330000
 GCore=-0.0013930000,1.3827320000,3.8739390000
 GCore=-0.0001030000,1.4001430000,4.6088130000
 ****
 O       
 PQN=2,2 NValence=6 F0ss=0.5666750000 F0sp=0.5772260000 F0pp=0.4958710000 F2pp=0.2358080000
 G1sp=0.4210010000
 ZetaOverlap=2.6354490000,2.5240390000
 U=-3.5951870000,-2.4766000000
 Beta=-1.1573400000,-1.2994290000 DDN=0,1,0.4953610000 DDN=1,1,0.4852320000
 CoreKO=0.8515990000 KON=0,0,0,0.9256950000 KON=1,0,1,0.5019540000 KON=0,1,1,0.8593090000
 KON=2,1,1,0.5515580000 EISol=-11.6164441184 EHeat=0.0949133088 Alpha=2.4031680000
 DipHyp=0.9906650029
 GCore=0.0204720000,1.2640290000,1.6023330000
 GCore=0.0047010000,1.8659010000,2.7307880000
 ****
 
 Standard basis: VSTO-6G (5D, 7F)
 Ernie: Thresh=  0.10000D-02 Tol=  0.10000D-05 Strict=F.
  NNHCO=     0 NNPyr=     0 NCTC=     0               EPep=         0.000000000
    EC=        70.075577161  ECS=         1.565122169   EG=         0.355694137
   EHC=         0.000000000  EAt=       -31.051283842  AtH=         1.516354808
 EPDDG=         0.000000000  ECC=        71.996393468 EAtT=        32.567638650
 There are    24 symmetry adapted cartesian basis functions of A   symmetry.
 There are    24 symmetry adapted basis functions of A   symmetry.
    24 basis functions,   144 primitive gaussians,    24 cartesian basis functions
    13 alpha electrons       13 beta electrons
       nuclear repulsion energy       104.5640321181 Hartrees.
 IExCor=    0 DFT=F Ex=HF Corr=None ExCW=0 ScaHFX=  1.000000
 ScaDFX=  1.000000  1.000000  1.000000  1.000000 ScalE2=  1.000000  1.000000
 IRadAn=      0 IRanWt=     -1 IRanGd=            0 ICorTp=0 IEmpDi=  4
 Integral buffers will be    131072 words long.
 Regular integral format.
 Two-electron integral symmetry is turned off.
 Leave Link  301 at Tue Dec 15 17:05:36 2015, MaxMem=    33554432 cpu:         0.0
 (Enter /home/Applications/g09/g09/l302.exe)
 Do NDO integrals.
 NPDir=0 NMtPBC=     1 NCelOv=     1 NCel=       1 NClECP=     1 NCelD=      1
         NCelK=      1 NCelE2=     1 NClLst=     1 CellRange=     0.0.
 One-electron integrals computed using PRISM.
 NBasis=    24 RedAO= F EigKep=  0.00D+00  NBF=    24
 NBsUse=    24 1.00D-04 EigRej=  0.00D+00 NBFU=    24
 Leave Link  302 at Tue Dec 15 17:05:36 2015, MaxMem=    33554432 cpu:         0.0
 (Enter /home/Applications/g09/g09/l308.exe)
 Leave Link  308 at Tue Dec 15 17:05:36 2015, MaxMem=    33554432 cpu:         0.0
 (Enter /home/Applications/g09/g09/l303.exe)
 DipDrv:  MaxL=1.
 Leave Link  303 at Tue Dec 15 17:05:36 2015, MaxMem=    33554432 cpu:         0.0
 (Enter /home/Applications/g09/g09/l401.exe)
 Simple Huckel Guess.
 JPrj=0 DoOrth=F DoCkMO=F.
 Leave Link  401 at Tue Dec 15 17:05:36 2015, MaxMem=    33554432 cpu:         0.0
 (Enter /home/Applications/g09/g09/l502.exe)
 Closed shell SCF:
 Using DIIS extrapolation, IDIIS=  1040.
 Overlap will be assumed to be unity.
 Two-electron integral symmetry not used.
 Keep J ints in memory in canonical form, NReq=888082.
 IVT=       79475 IEndB=       79475 NGot=    33554432 MDV=    33473473
 LenX=    33473473 LenY=    33472456
 Requested convergence on RMS density matrix=1.00D-08 within 128 cycles.
 Requested convergence on MAX density matrix=1.00D-06.
 Requested convergence on             energy=1.00D-06.
 No special actions if energy rises.
 FoFCou: FMM=F IPFlag=           0 FMFlag=           0 FMFlg1=           0
         NFxFlg=           0 DoJE=F BraDBF=F KetDBF=F FulRan=T
         wScrn=  0.000000 ICntrl=     600 IOpCl=  2 I1Cent=           0 NGrid=           0
         NMat0=    1 NMatS0=     54 NMatT0=    0 NMatD0=    1 NMtDS0=    0 NMtDT0=    0
 Symmetry not used in FoFCou.

 Cycle   1  Pass 1  IDiag  1:
 E=  2.00198505668719    
 DIIS: error= 7.86D-02 at cycle   1 NSaved=   1.
 NSaved= 1 IEnMin= 1 EnMin=  2.00198505668719     IErMin= 1 ErrMin= 7.86D-02
 ErrMax= 7.86D-02  0.00D+00 EMaxC= 1.00D-01 BMatC= 1.79D-01 BMatP= 1.79D-01
 IDIUse=3 WtCom= 2.14D-01 WtEn= 7.86D-01
 Coeff-Com:  0.100D+01
 Coeff-En:   0.100D+01
 Coeff:      0.100D+01
 GapD=    2.000 DampG=2.000 DampE=0.500 DampFc=1.0000 IDamp=-1.
 RMSDP=4.17D-02 MaxDP=4.64D-01              OVMax= 0.00D+00

 Cycle   2  Pass 1  IDiag  1:
 E=  1.23497122452963     Delta-E=       -0.767013832158 Rises=F Damp=F
 DIIS: error= 4.24D-02 at cycle   2 NSaved=   2.
 NSaved= 2 IEnMin= 2 EnMin=  1.23497122452963     IErMin= 2 ErrMin= 4.24D-02
 ErrMax= 4.24D-02  0.00D+00 EMaxC= 1.00D-01 BMatC= 2.80D-02 BMatP= 1.79D-01
 IDIUse=3 WtCom= 5.76D-01 WtEn= 4.24D-01
 Coeff-Com: -0.940D-01 0.109D+01
 Coeff-En:   0.000D+00 0.100D+01
 Coeff:     -0.542D-01 0.105D+01
 RMSDP=1.48D-02 MaxDP=1.37D-01 DE=-7.67D-01 OVMax= 0.00D+00

 Cycle   3  Pass 1  IDiag  1:
 E=  1.12090717165799     Delta-E=       -0.114064052872 Rises=F Damp=F
 DIIS: error= 1.43D-02 at cycle   3 NSaved=   3.
 NSaved= 3 IEnMin= 3 EnMin=  1.12090717165799     IErMin= 3 ErrMin= 1.43D-02
 ErrMax= 1.43D-02  0.00D+00 EMaxC= 1.00D-01 BMatC= 4.88D-03 BMatP= 2.80D-02
 IDIUse=3 WtCom= 8.57D-01 WtEn= 1.43D-01
 Coeff-Com: -0.491D-01-0.385D+00 0.143D+01
 Coeff-En:   0.000D+00 0.000D+00 0.100D+01
 Coeff:     -0.421D-01-0.330D+00 0.137D+01
 RMSDP=8.94D-03 MaxDP=8.99D-02 DE=-1.14D-01 OVMax= 0.00D+00

 Cycle   4  Pass 1  IDiag  3:
 E=  1.09519569505090     Delta-E=       -0.025711476607 Rises=F Damp=F
 DIIS: error= 3.43D-03 at cycle   4 NSaved=   4.
 NSaved= 4 IEnMin= 4 EnMin=  1.09519569505090     IErMin= 4 ErrMin= 3.43D-03
 ErrMax= 3.43D-03  0.00D+00 EMaxC= 1.00D-01 BMatC= 3.51D-04 BMatP= 4.88D-03
 IDIUse=3 WtCom= 9.66D-01 WtEn= 3.43D-02
 Coeff-Com:  0.310D-01 0.143D+00-0.739D+00 0.157D+01
 Coeff-En:   0.000D+00 0.000D+00 0.000D+00 0.100D+01
 Coeff:      0.299D-01 0.138D+00-0.714D+00 0.155D+01
 Gap=     0.431 Goal=   None    Shift=    0.000
 RMSDP=2.74D-03 MaxDP=2.36D-02 DE=-2.57D-02 OVMax= 2.24D-02

 Cycle   5  Pass 1  IDiag  3:
 E=  1.09325934149923     Delta-E=       -0.001936353552 Rises=F Damp=F
 DIIS: error= 6.20D-04 at cycle   5 NSaved=   5.
 NSaved= 5 IEnMin= 5 EnMin=  1.09325934149923     IErMin= 5 ErrMin= 6.20D-04
 ErrMax= 6.20D-04  0.00D+00 EMaxC= 1.00D-01 BMatC= 1.14D-05 BMatP= 3.51D-04
 IDIUse=3 WtCom= 9.94D-01 WtEn= 6.20D-03
 Coeff-Com: -0.360D-02-0.230D-01 0.652D-01-0.220D+00 0.118D+01
 Coeff-En:   0.000D+00 0.000D+00 0.000D+00 0.000D+00 0.100D+01
 Coeff:     -0.357D-02-0.228D-01 0.648D-01-0.219D+00 0.118D+01
 Gap=     0.434 Goal=   None    Shift=    0.000
 RMSDP=5.27D-04 MaxDP=4.31D-03 DE=-1.94D-03 OVMax= 4.34D-03

 Cycle   6  Pass 1  IDiag  3:
 E=  1.09320035240100     Delta-E=       -0.000058989098 Rises=F Damp=F
 DIIS: error= 1.32D-04 at cycle   6 NSaved=   6.
 NSaved= 6 IEnMin= 6 EnMin=  1.09320035240100     IErMin= 6 ErrMin= 1.32D-04
 ErrMax= 1.32D-04  0.00D+00 EMaxC= 1.00D-01 BMatC= 6.13D-07 BMatP= 1.14D-05
 IDIUse=3 WtCom= 9.99D-01 WtEn= 1.32D-03
 Coeff-Com: -0.726D-03 0.139D-02 0.244D-01-0.325D-01-0.371D+00 0.138D+01
 Coeff-En:   0.000D+00 0.000D+00 0.000D+00 0.000D+00 0.000D+00 0.100D+01
 Coeff:     -0.725D-03 0.139D-02 0.244D-01-0.325D-01-0.370D+00 0.138D+01
 Gap=     0.434 Goal=   None    Shift=    0.000
 RMSDP=9.57D-05 MaxDP=7.45D-04 DE=-5.90D-05 OVMax= 7.11D-04

 Cycle   7  Pass 1  IDiag  3:
 E=  1.09319768155221     Delta-E=       -0.000002670849 Rises=F Damp=F
 DIIS: error= 1.99D-05 at cycle   7 NSaved=   7.
 NSaved= 7 IEnMin= 7 EnMin=  1.09319768155221     IErMin= 7 ErrMin= 1.99D-05
 ErrMax= 1.99D-05  0.00D+00 EMaxC= 1.00D-01 BMatC= 1.80D-08 BMatP= 6.13D-07
 IDIUse=1 WtCom= 1.00D+00 WtEn= 0.00D+00
 Coeff-Com:  0.303D-03 0.749D-03-0.137D-01 0.229D-01 0.109D+00-0.536D+00
 Coeff-Com:  0.142D+01
 Coeff:      0.303D-03 0.749D-03-0.137D-01 0.229D-01 0.109D+00-0.536D+00
 Coeff:      0.142D+01
 Gap=     0.434 Goal=   None    Shift=    0.000
 RMSDP=1.68D-05 MaxDP=1.03D-04 DE=-2.67D-06 OVMax= 1.01D-04

 Cycle   8  Pass 1  IDiag  3:
 E=  1.09319760249186     Delta-E=       -0.000000079060 Rises=F Damp=F
 DIIS: error= 3.98D-06 at cycle   8 NSaved=   8.
 NSaved= 8 IEnMin= 8 EnMin=  1.09319760249186     IErMin= 8 ErrMin= 3.98D-06
 ErrMax= 3.98D-06  0.00D+00 EMaxC= 1.00D-01 BMatC= 7.39D-10 BMatP= 1.80D-08
 IDIUse=1 WtCom= 1.00D+00 WtEn= 0.00D+00
 Coeff-Com: -0.532D-04-0.478D-03 0.404D-02-0.675D-02-0.224D-01 0.116D+00
 Coeff-Com: -0.371D+00 0.128D+01
 Coeff:     -0.532D-04-0.478D-03 0.404D-02-0.675D-02-0.224D-01 0.116D+00
 Coeff:     -0.371D+00 0.128D+01
 Gap=     0.434 Goal=   None    Shift=    0.000
 RMSDP=3.17D-06 MaxDP=1.98D-05 DE=-7.91D-08 OVMax= 2.00D-05

 Cycle   9  Pass 1  IDiag  3:
 E=  1.09319759911023     Delta-E=       -0.000000003382 Rises=F Damp=F
 DIIS: error= 1.26D-06 at cycle   9 NSaved=   9.
 NSaved= 9 IEnMin= 9 EnMin=  1.09319759911023     IErMin= 9 ErrMin= 1.26D-06
 ErrMax= 1.26D-06  0.00D+00 EMaxC= 1.00D-01 BMatC= 6.03D-11 BMatP= 7.39D-10
 IDIUse=1 WtCom= 1.00D+00 WtEn= 0.00D+00
 Coeff-Com:  0.125D-05 0.129D-03-0.985D-03 0.151D-02 0.654D-02-0.286D-01
 Coeff-Com:  0.831D-01-0.562D+00 0.150D+01
 Coeff:      0.125D-05 0.129D-03-0.985D-03 0.151D-02 0.654D-02-0.286D-01
 Coeff:      0.831D-01-0.562D+00 0.150D+01
 Gap=     0.434 Goal=   None    Shift=    0.000
 RMSDP=1.38D-06 MaxDP=1.05D-05 DE=-3.38D-09 OVMax= 1.17D-05

 Cycle  10  Pass 1  IDiag  3:
 E=  1.09319759868225     Delta-E=       -0.000000000428 Rises=F Damp=F
 DIIS: error= 4.00D-07 at cycle  10 NSaved=  10.
 NSaved=10 IEnMin=10 EnMin=  1.09319759868225     IErMin=10 ErrMin= 4.00D-07
 ErrMax= 4.00D-07  0.00D+00 EMaxC= 1.00D-01 BMatC= 4.88D-12 BMatP= 6.03D-11
 IDIUse=1 WtCom= 1.00D+00 WtEn= 0.00D+00
 Coeff-Com:  0.221D-05-0.284D-04 0.211D-03-0.292D-03-0.165D-02 0.594D-02
 Coeff-Com: -0.125D-01 0.198D+00-0.820D+00 0.163D+01
 Coeff:      0.221D-05-0.284D-04 0.211D-03-0.292D-03-0.165D-02 0.594D-02
 Coeff:     -0.125D-01 0.198D+00-0.820D+00 0.163D+01
 Gap=     0.434 Goal=   None    Shift=    0.000
 RMSDP=4.48D-07 MaxDP=3.89D-06 DE=-4.28D-10 OVMax= 4.57D-06

 Cycle  11  Pass 1  IDiag  3:
 E=  1.09319759864630     Delta-E=       -0.000000000036 Rises=F Damp=F
 DIIS: error= 7.79D-08 at cycle  11 NSaved=  11.
 NSaved=11 IEnMin=11 EnMin=  1.09319759864630     IErMin=11 ErrMin= 7.79D-08
 ErrMax= 7.79D-08  0.00D+00 EMaxC= 1.00D-01 BMatC= 2.61D-13 BMatP= 4.88D-12
 IDIUse=1 WtCom= 1.00D+00 WtEn= 0.00D+00
 Coeff-Com: -0.300D-06 0.205D-05-0.161D-04 0.233D-04 0.731D-04-0.469D-04
 Coeff-Com: -0.165D-02-0.404D-01 0.228D+00-0.629D+00 0.144D+01
 Coeff:     -0.300D-06 0.205D-05-0.161D-04 0.233D-04 0.731D-04-0.469D-04
 Coeff:     -0.165D-02-0.404D-01 0.228D+00-0.629D+00 0.144D+01
 Gap=     0.434 Goal=   None    Shift=    0.000
 RMSDP=8.67D-08 MaxDP=8.84D-07 DE=-3.60D-11 OVMax= 8.60D-07

 Cycle  12  Pass 1  IDiag  3:
 E=  1.09319759864481     Delta-E=       -0.000000000001 Rises=F Damp=F
 DIIS: error= 1.83D-08 at cycle  12 NSaved=  12.
 NSaved=12 IEnMin=12 EnMin=  1.09319759864481     IErMin=12 ErrMin= 1.83D-08
 ErrMax= 1.83D-08  0.00D+00 EMaxC= 1.00D-01 BMatC= 1.64D-14 BMatP= 2.61D-13
 IDIUse=1 WtCom= 1.00D+00 WtEn= 0.00D+00
 Coeff-Com: -0.236D-07 0.322D-07 0.210D-05-0.516D-05 0.221D-04-0.139D-03
 Coeff-Com:  0.962D-03 0.132D-01-0.790D-01 0.231D+00-0.706D+00 0.154D+01
 Coeff:     -0.236D-07 0.322D-07 0.210D-05-0.516D-05 0.221D-04-0.139D-03
 Coeff:      0.962D-03 0.132D-01-0.790D-01 0.231D+00-0.706D+00 0.154D+01
 Gap=     0.434 Goal=   None    Shift=    0.000
 RMSDP=2.30D-08 MaxDP=1.74D-07 DE=-1.49D-12 OVMax= 1.93D-07

 Cycle  13  Pass 1  IDiag  3:
 E=  1.09319759864459     Delta-E=        0.000000000000 Rises=F Damp=F
 DIIS: error= 4.05D-09 at cycle  13 NSaved=  13.
 NSaved=13 IEnMin=13 EnMin=  1.09319759864459     IErMin=13 ErrMin= 4.05D-09
 ErrMax= 4.05D-09  0.00D+00 EMaxC= 1.00D-01 BMatC= 8.92D-16 BMatP= 1.64D-14
 IDIUse=1 WtCom= 1.00D+00 WtEn= 0.00D+00
 Coeff-Com:  0.163D-07-0.141D-06 0.897D-06-0.297D-06-0.257D-04 0.113D-03
 Coeff-Com: -0.459D-03-0.319D-02 0.215D-01-0.669D-01 0.229D+00-0.691D+00
 Coeff-Com:  0.151D+01
 Coeff:      0.163D-07-0.141D-06 0.897D-06-0.297D-06-0.257D-04 0.113D-03
 Coeff:     -0.459D-03-0.319D-02 0.215D-01-0.669D-01 0.229D+00-0.691D+00
 Coeff:      0.151D+01
 Gap=     0.434 Goal=   None    Shift=    0.000
 RMSDP=5.71D-09 MaxDP=4.17D-08 DE=-2.13D-13 OVMax= 4.69D-08

 Cycle  14  Pass 2  IDiag  1:
 SCF Done:  E(RAM1) =   1.09319759864     A.U. after   14 cycles
            NFock= 13  Conv=0.57D-08     -V/T= 1.0729
 KE=-1.498971061395D+01 PE=-1.714736638339D+02 EE= 8.299253992835D+01
 Leave Link  502 at Tue Dec 15 17:05:36 2015, MaxMem=    33554432 cpu:         0.0
 (Enter /home/Applications/g09/g09/l801.exe)
 Range of M.O.s used for correlation:     1    24
 NBasis=    24 NAE=    13 NBE=    13 NFC=     0 NFV=     0
 NROrb=     24 NOA=    13 NOB=    13 NVA=    11 NVB=    11
 Leave Link  801 at Tue Dec 15 17:05:36 2015, MaxMem=    33554432 cpu:         0.0
 (Enter /home/Applications/g09/g09/l914.exe)
 RHF ground state
 MDV=    33554432 DFT=F DoStab=F Mixed=F DoRPA=F DoScal=F NonHer=F
 Making orbital integer symmetry assigments:
 Orbital symmetries:
       Occupied  (A) (A) (A) (A) (A) (A) (A) (A) (A) (A) (A) (A)
                 (A)
       Virtual   (A) (A) (A) (A) (A) (A) (A) (A) (A) (A) (A)
    60 initial guesses have been made.
 Convergence on wavefunction:    0.000001000000000
 Davidson Disk Diagonalization:  ConvIn= 1.00D-06 SkipCon=T Conv= 1.00D-06.
 Max sub-space:   240 roots to seek:    60 dimension of matrix:          286
 Iteration     1 Dimension    60 NMult     0 NNew     60
 CISAX will form    60 AO SS matrices at one time.
 NMat=    60 NSing=    60 JSym2X= 0.
 FoFJK:  IHMeth= 8 ICntrl=       0 DoSepK=F KAlg= 0 I1Cent=   0 FoldK=F
 IRaf=         1 NMat= 120 IRICut=       1 DoRegI=T DoRafI=F ISym2E= 0.
 FoFCou: FMM=F IPFlag=           0 FMFlag=      100000 FMFlg1=           0
         NFxFlg=           0 DoJE=F BraDBF=F KetDBF=F FulRan=T
         wScrn=  0.000000 ICntrl=       0 IOpCl=  0 I1Cent=           0 NGrid=           0
         NMat0=  120 NMatS0=     60 NMatT0=    0 NMatD0=  120 NMtDS0=    0 NMtDT0=    0
 Symmetry not used in FoFCou.
 New state      2 was old state      3
 New state      3 was old state      4
 New state      4 was old state      5
 New state      5 was old state      6
 New state      6 was old state      7
 New state      7 was old state      2
 New state      8 was old state     10
 New state      9 was old state     12
 New state     10 was old state      9
 New state     12 was old state      8
 New state     13 was old state     15
 New state     15 was old state     18
 Excitation Energies [eV] at current iteration:
 Root      1 :     5.802229320435672
 Root      2 :     6.715267103194107
 Root      3 :     7.154401108453633
 Root      4 :     7.398287050892165
 Root      5 :     7.458549748561632
 Root      6 :     7.685102099178909
 Root      7 :     8.168541212187291
 Root      8 :     8.359306510247141
 Root      9 :     8.466705504651321
 Root     10 :     8.653408209997060
 Root     11 :     8.672655384515830
 Root     12 :     8.914751067780156
 Root     13 :     9.103374280908834
 Root     14 :     9.344748979284331
 Root     15 :     9.610426626619754
 Root     16 :     9.671881502167412
 Root     17 :     9.964207231678660
 Root     18 :    10.015402601820760
 Root     19 :    10.173229583850880
 Root     20 :    10.598891620778880
 Root     21 :    10.661960734426680
 Root     22 :    10.838202414750350
 Root     23 :    10.860234066100310
 Root     24 :    11.013607061985970
 Root     25 :    11.073092068765610
 Root     26 :    11.181508847319150
 Root     27 :    11.268907931494210
 Root     28 :    11.291325658566520
 Root     29 :    11.377654135029800
 Root     30 :    11.397836761788560
 Root     31 :    11.833789472730630
 Root     32 :    11.907358977367440
 Root     33 :    11.927130969572630
 Root     34 :    12.088450548254360
 Root     35 :    12.113224850426630
 Root     36 :    12.146811112079490
 Root     37 :    12.223876415355090
 Root     38 :    12.290644389536290
 Root     39 :    12.564685106923310
 Root     40 :    12.837656978034920
 Root     41 :    13.083614531514190
 Root     42 :    13.194101197745700
 Root     43 :    13.327850089096410
 Root     44 :    13.442435341478910
 Root     45 :    13.619934634250020
 Root     46 :    13.698396061797640
 Root     47 :    13.763466674203700
 Root     48 :    13.821966927174860
 Root     49 :    13.996160745317410
 Root     50 :    14.039895995884580
 Root     51 :    14.186006487232770
 Root     52 :    14.238888758022540
 Root     53 :    14.624485688017810
 Root     54 :    14.744273720728240
 Root     55 :    14.838108445890680
 Root     56 :    14.896248283376940
 Root     57 :    15.042730388193650
 Root     58 :    15.694628595615190
 Root     59 :    15.841871719307420
 Root     60 :    15.978381712825140
 Iteration     2 Dimension   120 NMult    60 NNew     60
 CISAX will form    60 AO SS matrices at one time.
 NMat=    60 NSing=    60 JSym2X= 0.
 Root      1 not converged, maximum delta is    0.024922841793678
 Root      2 not converged, maximum delta is    0.051771227548660
 Root      3 not converged, maximum delta is    0.031282597504652
 Root      4 not converged, maximum delta is    0.032434080970030
 Root      5 not converged, maximum delta is    0.022789351752044
 Root      6 not converged, maximum delta is    0.017355649754042
 Root      7 not converged, maximum delta is    0.033678455815804
 New state      8 was old state      9
 Root      8 not converged, maximum delta is    0.339414741303478
 New state      9 was old state      8
 Root      9 not converged, maximum delta is    0.380889583427320
 Root     10 not converged, maximum delta is    0.253574764420514
 Root     11 not converged, maximum delta is    0.247928710357168
 Root     12 not converged, maximum delta is    0.037292044520449
 Root     13 not converged, maximum delta is    0.033998143926612
 Root     14 not converged, maximum delta is    0.094755840467980
 Root     15 not converged, maximum delta is    0.166755215937626
 Excitation Energies [eV] at current iteration:
 Root      1 :     5.741429520744246   Change is   -0.060799799691426
 Root      2 :     6.618489419539242   Change is   -0.096777683654865
 Root      3 :     7.073840435661605   Change is   -0.080560672792028
 Root      4 :     7.331621488125097   Change is   -0.066665562767068
 Root      5 :     7.430399303852851   Change is   -0.028150444708780
 Root      6 :     7.666737497317307   Change is   -0.018364601861602
 Root      7 :     8.054533072945176   Change is   -0.114008139242114
 Root      8 :     8.233676069572956   Change is   -0.233029435078365
 Root      9 :     8.258949953719075   Change is   -0.100356556528066
 Root     10 :     8.527741541208828   Change is   -0.125666668788233
 Root     11 :     8.574575756735634   Change is   -0.098079627780195
 Root     12 :     8.811845736336121   Change is   -0.102905331444035
 Root     13 :     8.957404454215441   Change is   -0.145969826693395
 Root     14 :     9.104819531144484   Change is   -0.239929448139847
 Root     15 :     9.297528407381034   Change is   -0.312898219238721
 Root     16 :     9.535764174393206   Change is   -0.136117327774207
 Root     17 :     9.852308419272488   Change is   -0.111898812406172
 Root     18 :     9.878765030945932   Change is   -0.136637570874826
 Root     19 :    10.096514228045030   Change is   -0.076715355805848
 Root     20 :    10.366058634929860   Change is   -0.494175431170448
 Root     21 :    10.503264789089520   Change is   -0.095626831689360
 Root     22 :    10.558021231075030   Change is   -0.103939503351647
 Root     23 :    10.747810129835790   Change is   -0.265796932150184
 Root     24 :    10.774754636391100   Change is   -0.063447778359255
 Root     25 :    10.964472865108330   Change is   -0.108619203657272
 Root     26 :    11.076989567713740   Change is   -0.104519279605408
 Root     27 :    11.109733523834270   Change is   -0.181592134732253
 Root     28 :    11.148713318326100   Change is   -0.228940816703704
 Root     29 :    11.216174199654320   Change is   -0.052733731839893
 Root     30 :    11.347771825680210   Change is   -0.050064936108348
 Root     31 :    11.565075969224400   Change is   -0.362055000348229
 Root     32 :    11.705289325144400   Change is   -0.202069652223040
 Root     33 :    11.750395613383000   Change is   -0.338054934871361
 Root     34 :    11.773330443427970   Change is   -0.060459029302661
 Root     35 :    11.924237098863490   Change is   -0.222574013216002
 Root     36 :    11.936041298793700   Change is   -0.177183551632933
 Root     37 :    11.999729712794680   Change is   -0.290914676741610
 Root     38 :    12.060979155711040   Change is   -0.162897259644049
 Root     39 :    12.291691513572780   Change is   -0.272993593350531
 Root     40 :    12.598498416472010   Change is   -0.239158561562907
 Root     41 :    12.724426427652060   Change is   -0.359188103862127
 Root     42 :    12.845659897256170   Change is   -0.596775444222747
 Root     43 :    12.981446897283710   Change is   -0.346403191812699
 Root     44 :    13.087493177509680   Change is   -0.106608020236013
 Root     45 :    13.290623104230070   Change is   -0.407772957567575
 Root     46 :    13.431601967557960   Change is   -0.188332666692054
 Root     47 :    13.501012014423770   Change is   -0.320954912751092
 Root     48 :    13.635018107182990   Change is   -0.603870650839543
 Root     49 :    13.684485516537810   Change is   -0.078981157665887
 Root     50 :    13.823636583383640   Change is   -0.216259412500946
 Root     51 :    13.901340144611610   Change is   -0.094820600705794
 Root     52 :    13.960621024310160   Change is   -0.663864663707651
 Root     53 :    14.180323593785890   Change is   -0.005682893446885
 Root     54 :    14.328081332706000   Change is   -0.416192388022249
 Root     55 :    14.586853167603730   Change is   -0.251255278286944
 Root     56 :    14.725685737159260   Change is   -0.317044651034391
 Root     57 :    14.746254960600330   Change is   -0.149993322776618
 Root     58 :    14.799810572090020   Change is   -1.042061147217403
 Root     59 :    15.490844983816290   Change is   -0.203783611798905
 Root     60 :    15.561327184950110
 Iteration     3 Dimension   135 NMult   120 NNew     15
 CISAX will form    15 AO SS matrices at one time.
 NMat=    15 NSing=    15 JSym2X= 0.
 Root      1 not converged, maximum delta is    0.001382881946579
 Root      2 not converged, maximum delta is    0.000189490652536
 Root      3 not converged, maximum delta is    0.001922708125114
 Root      4 not converged, maximum delta is    0.000161414976955
 Root      5 not converged, maximum delta is    0.000243047913766
 Root      6 not converged, maximum delta is    0.000265520283435
 Root      7 not converged, maximum delta is    0.001958970280601
 Root      8 not converged, maximum delta is    0.000640360918370
 Root      9 not converged, maximum delta is    0.000337402988605
 Root     10 not converged, maximum delta is    0.000490413076047
 Root     11 not converged, maximum delta is    0.000388739706233
 Root     12 not converged, maximum delta is    0.002666768997285
 Root     13 not converged, maximum delta is    0.001508411092403
 Root     14 not converged, maximum delta is    0.000284656902974
 Root     15 not converged, maximum delta is    0.003313265196339
 Excitation Energies [eV] at current iteration:
 Root      1 :     5.741020838566414   Change is   -0.000408682177832
 Root      2 :     6.618479474341648   Change is   -0.000009945197595
 Root      3 :     7.073282877734460   Change is   -0.000557557927145
 Root      4 :     7.331615123964582   Change is   -0.000006364160515
 Root      5 :     7.430389961085306   Change is   -0.000009342767545
 Root      6 :     7.666725857257717   Change is   -0.000011640059590
 Root      7 :     8.053962378621605   Change is   -0.000570694323572
 Root      8 :     8.233642667010171   Change is   -0.000033402562785
 Root      9 :     8.258925421981649   Change is   -0.000024531737425
 Root     10 :     8.527718389420730   Change is   -0.000023151788099
 Root     11 :     8.574537316948639   Change is   -0.000038439786995
 Root     12 :     8.811167404941123   Change is   -0.000678331394997
 Root     13 :     8.956865041899162   Change is   -0.000539412316278
 Root     14 :     9.104797885924434   Change is   -0.000021645220050
 Root     15 :     9.295550545318893   Change is   -0.001977862062141
 Iteration     4 Dimension   143 NMult   135 NNew      8
 CISAX will form     8 AO SS matrices at one time.
 NMat=     8 NSing=     8 JSym2X= 0.
 Root      1 not converged, maximum delta is    0.000072650560702
 Root      2 not converged, maximum delta is    0.000008139245982
 Root      3 not converged, maximum delta is    0.000055734848274
 Root      4 not converged, maximum delta is    0.000006964877910
 Root      5 not converged, maximum delta is    0.000008883180542
 Root      6 not converged, maximum delta is    0.000013224792619
 Root      7 not converged, maximum delta is    0.000088555606000
 Root      8 not converged, maximum delta is    0.000026746873059
 Root      9 not converged, maximum delta is    0.000017946235999
 Root     10 not converged, maximum delta is    0.000021826570043
 Root     11 not converged, maximum delta is    0.000026912172313
 Root     12 not converged, maximum delta is    0.000135317618946
 Root     13 not converged, maximum delta is    0.000057164398517
 Root     14 not converged, maximum delta is    0.000019060626991
 Root     15 not converged, maximum delta is    0.000101545930438
 Excitation Energies [eV] at current iteration:
 Root      1 :     5.741019756974337   Change is   -0.000001081592077
 Root      2 :     6.618479457283373   Change is   -0.000000017058275
 Root      3 :     7.073281579361755   Change is   -0.000001298372706
 Root      4 :     7.331615107319562   Change is   -0.000000016645020
 Root      5 :     7.430389932294433   Change is   -0.000000028790874
 Root      6 :     7.666725804541199   Change is   -0.000000052716517
 Root      7 :     8.053960048150913   Change is   -0.000002330470692
 Root      8 :     8.233642538757133   Change is   -0.000000128253039
 Root      9 :     8.258925327365827   Change is   -0.000000094615824
 Root     10 :     8.527718293548720   Change is   -0.000000095872010
 Root     11 :     8.574537114651283   Change is   -0.000000202297356
 Root     12 :     8.811163491054042   Change is   -0.000003913887081
 Root     13 :     8.956864081024356   Change is   -0.000000960874805
 Root     14 :     9.104797753573884   Change is   -0.000000132350551
 Root     15 :     9.295547964797507   Change is   -0.000002580521385
 Convergence achieved on expansion vectors.
 ***********************************************************************
 Excited states from <AA,BB:AA,BB> singles matrix:
 ***********************************************************************
 
 1PDM for each excited state written to RWF  633
 Ground to excited state transition densities written to RWF  633
 Ground to excited state transition electric dipole moments (Au):
       state          X           Y           Z        Dip. S.      Osc.
         1         1.0802      0.1220      0.0457      1.1838      0.1665
         2        -0.1071      0.0432      0.1455      0.0345      0.0056
         3         0.0476     -0.1138     -0.0020      0.0152      0.0026
         4        -0.0075     -0.0028      0.0140      0.0003      0.0000
         5         0.0334     -0.0677      0.0301      0.0066      0.0012
         6        -0.0680     -0.1140     -0.0695      0.0225      0.0042
         7         0.1603     -1.0133      0.0594      1.0560      0.2084
         8        -0.1236     -0.0321      0.2579      0.0828      0.0167
         9         0.0064      0.1352      0.1781      0.0500      0.0101
        10         0.1077      0.1403     -0.0257      0.0319      0.0067
        11        -0.1390     -0.1477     -0.0290      0.0420      0.0088
        12        -1.0639     -0.1685      0.0215      1.1607      0.2506
        13        -0.0486      0.5008      0.0445      0.2551      0.0560
        14         0.0375      0.0772      0.1009      0.0175      0.0039
        15        -0.6733      0.0097      0.0017      0.4534      0.1033
 Ground to excited state transition velocity dipole moments (Au):
       state          X           Y           Z        Dip. S.      Osc.
         1        -0.1495     -0.0156     -0.0208      0.0230      0.0728
         2         0.0174     -0.0043     -0.1601      0.0260      0.0712
         3        -0.0001     -0.0146     -0.0109      0.0003      0.0009
         4         0.0018     -0.0060     -0.0097      0.0001      0.0003
         5        -0.0064      0.0158     -0.0024      0.0003      0.0007
         6         0.0122      0.0260      0.0345      0.0020      0.0048
         7        -0.0409      0.2638     -0.0163      0.0715      0.1612
         8         0.0276     -0.0042      0.0201      0.0012      0.0026
         9         0.0035     -0.0372     -0.0170      0.0017      0.0037
        10        -0.0172     -0.0200      0.1003      0.0108      0.0229
        11         0.0288      0.0465      0.0757      0.0087      0.0185
        12         0.2032      0.0306     -0.0042      0.0422      0.0870
        13         0.0132     -0.0787     -0.0275      0.0071      0.0144
        14        -0.0072     -0.0119      0.1735      0.0303      0.0604
        15         0.0789      0.0180     -0.0040      0.0066      0.0128
 Ground to excited state transition magnetic dipole moments (Au):
       state          X           Y           Z
         1         0.0287     -0.0121      0.4915
         2        -0.0281      0.0536     -0.0435
         3         0.0280     -0.0188      0.0065
         4         0.0411     -0.2563     -0.0182
         5        -0.3107      0.6686      0.0336
         6         1.0482      0.3198     -0.0504
         7        -0.0384     -0.0920      0.0336
         8         0.6116     -0.2178      0.0288
         9         0.1998      0.4916     -0.0110
        10         0.5318      0.0083      0.0160
        11         0.1867      0.3169      0.0066
        12        -0.1236      0.0254      0.0898
        13         0.0965     -0.0662      0.0663
        14        -0.5085     -0.0987     -0.0452
        15         0.0154      0.0535     -0.2332
 Ground to excited state transition velocity quadrupole moments (Au):
       state          XX          YY          ZZ          XY          XZ          YZ
         1         0.1203     -0.0929      0.0046     -0.4301      0.0087     -0.0345
         2        -0.0358      0.0301     -0.0070      0.0526     -0.0123     -0.0136
         3         0.2093     -0.3679      0.0898      0.1284      0.0087     -0.0353
         4        -0.0180      0.0406     -0.0224     -0.0114      0.1423      0.0389
         5        -0.0290     -0.0351      0.0065     -0.0111      0.1985      0.0665
         6        -0.0431      0.0182      0.0055      0.0413      0.0717     -0.1304
         7        -0.2842     -0.0252      0.0290     -0.0667     -0.0494     -0.0418
         8         0.0136      0.0543     -0.0145     -0.0356      0.3067     -0.0507
         9         0.0881      0.0374     -0.0157      0.0127     -0.4427     -0.1868
        10        -0.0134     -0.0732      0.0073     -0.0058     -0.0644      0.3079
        11        -0.0354     -0.0085      0.0001     -0.0731     -0.1837      0.1424
        12         0.0903     -0.0872      0.0053     -0.2370     -0.0096     -0.0322
        13        -0.2768     -0.3105     -0.0401     -0.1043      0.0181     -0.0207
        14        -0.0703     -0.0342      0.0099      0.0311      0.0486     -0.3113
        15        -0.1237      0.0225     -0.0022      0.2319      0.0173      0.0267
 <0|del|b> * <b|rxdel|0> + <0|del|b> * <b|delr+rdel|0>
 Rotatory Strengths (R) in cgs (10**-40 erg-esu-cm/Gauss)
       state          XX          YY          ZZ    R(velocity)    E-M Angle
         1        -1.5988    -30.7395    -15.7458    -16.0280      101.07
         2        -2.5261     21.3197     -0.6242      6.0565       58.65
         3        -1.4628      1.8154      0.1903      0.1810       71.44
         4         3.5329      0.2803      0.9074      1.5736       53.34
         5         9.5311      1.8915     20.8429     10.7552       10.96
         6         7.6909     10.1086     30.8535     16.2177       66.84
         7       -12.7645      1.9615    -44.7421    -18.5150      145.74
         8         2.4308     19.5994     20.9135     14.3145       34.77
         9       -40.5155      0.5237     -0.5208    -13.5042      142.95
        10        -0.4934    -13.8152     -3.0740     -5.7942       98.03
        11        20.4451     17.4036      8.3750     15.4079       53.17
        12         1.8460    -36.0705    -19.7446    -17.9897      140.93
        13         8.2477     -3.9601      5.7237      3.3371       65.76
        14        -0.7384     -7.7506      2.1332     -2.1186       91.90
        15         0.6801      5.3439      0.3945      2.1395       80.82
 1/2[<0|r|b>*<b|rxdel|0> + (<0|rxdel|b>*<b|r|0>)*]
 Rotatory Strengths (R) in cgs (10**-40 erg-esu-cm/Gauss)
       state          XX          YY          ZZ     R(length)
         1       -21.9419      1.0429    -15.8775    -12.2588
         2        -2.1317     -1.6373      4.4768      0.2359
         3        -0.9422     -1.5098      0.0094     -0.8142
         4         0.2181     -0.5028      0.1809     -0.0346
         5         7.3474     31.9919     -0.7147     12.8749
         6        50.4273     25.7912     -2.4799     24.5795
         7         4.3496    -65.9113     -1.4093    -20.9903
         8        53.4724     -4.9398     -5.2494     14.4277
         9        -0.9018    -46.9945      1.3842    -15.5040
        10       -40.4947     -0.8203      0.2900    -13.6750
        11        18.3487     33.0920      0.1347     17.1918
        12       -92.9655      3.0233     -1.3664    -30.4362
        13         3.3163     23.4351     -2.0846      8.2222
        14        13.4860      5.3896      3.2268      7.3675
        15         7.3345     -0.3679      0.2824      2.4163
  1/2[<0|del|b>*<b|r|0> + (<0|r|b>*<b|del|0>)*] (Au)
       state          X           Y           Z        Dip. S.   Osc.(frdel)
         1        -0.1615     -0.0019     -0.0010      0.1644      0.1096
         2        -0.0019     -0.0002     -0.0233      0.0253      0.0169
         3         0.0000      0.0017      0.0000     -0.0017     -0.0011
         4         0.0000      0.0000     -0.0001      0.0001      0.0001
         5        -0.0002     -0.0011     -0.0001      0.0014      0.0009
         6        -0.0008     -0.0030     -0.0024      0.0062      0.0041
         7        -0.0065     -0.2673     -0.0010      0.2749      0.1832
         8        -0.0034      0.0001      0.0052     -0.0019     -0.0013
         9         0.0000     -0.0050     -0.0030      0.0080      0.0054
        10        -0.0019     -0.0028     -0.0026      0.0072      0.0048
        11        -0.0040     -0.0069     -0.0022      0.0131      0.0087
        12        -0.2162     -0.0052     -0.0001      0.2214      0.1476
        13        -0.0006     -0.0394     -0.0012      0.0413      0.0275
        14        -0.0003     -0.0009      0.0175     -0.0163     -0.0109
        15        -0.0532      0.0002      0.0000      0.0530      0.0353

 Excitation energies and oscillator strengths:
 
 Excited State   1:      Singlet-A      5.7410 eV  215.96 nm  f=0.1665  <S**2>=0.000
      12 -> 15         0.13738
      13 -> 14         0.67122
 This state for optimization and/or second-order correction.
 Total Energy, E(CIS) =   1.30417620181    
 Copying the excited state density for this state as the 1-particle RhoCI density.
 
 Excited State   2:      Singlet-A      6.6185 eV  187.33 nm  f=0.0056  <S**2>=0.000
      13 -> 15        -0.36664
      13 -> 16         0.57055
      13 -> 20         0.14362
 
 Excited State   3:      Singlet-A      7.0733 eV  175.29 nm  f=0.0026  <S**2>=0.000
      12 -> 14        -0.42632
      13 -> 15         0.45298
      13 -> 16         0.30674
 
 Excited State   4:      Singlet-A      7.3316 eV  169.11 nm  f=0.0000  <S**2>=0.000
      12 -> 16        -0.12851
      13 -> 17         0.64248
      13 -> 18         0.13465
      13 -> 21         0.16140
 
 Excited State   5:      Singlet-A      7.4304 eV  166.86 nm  f=0.0012  <S**2>=0.000
       9 -> 14         0.18137
      11 -> 14         0.66247
 
 Excited State   6:      Singlet-A      7.6667 eV  161.72 nm  f=0.0042  <S**2>=0.000
      10 -> 14         0.66269
      11 -> 15         0.15019
 
 Excited State   7:      Singlet-A      8.0540 eV  153.94 nm  f=0.2084  <S**2>=0.000
      11 -> 16         0.13622
      11 -> 20         0.10609
      12 -> 14         0.52817
      13 -> 15         0.33396
      13 -> 16         0.18504
 
 Excited State   8:      Singlet-A      8.2336 eV  150.58 nm  f=0.0167  <S**2>=0.000
       9 -> 15        -0.15936
      10 -> 14        -0.16103
      11 -> 15         0.48879
      11 -> 16         0.17948
      12 -> 15         0.23109
      12 -> 16        -0.17426
      13 -> 18        -0.24276
 
 Excited State   9:      Singlet-A      8.2589 eV  150.12 nm  f=0.0101  <S**2>=0.000
       9 -> 15        -0.10198
      11 -> 15         0.33366
      12 -> 15        -0.15735
      12 -> 16         0.32358
      13 -> 18         0.42121
      13 -> 23        -0.11800
 
 Excited State  10:      Singlet-A      8.5277 eV  145.39 nm  f=0.0067  <S**2>=0.000
      12 -> 15        -0.16494
      12 -> 16         0.25182
      13 -> 18        -0.16616
      13 -> 19         0.52376
      13 -> 20         0.22173
 
 Excited State  11:      Singlet-A      8.5745 eV  144.60 nm  f=0.0088  <S**2>=0.000
      12 -> 15         0.26385
      12 -> 16        -0.25613
      13 -> 17        -0.17049
      13 -> 18         0.40981
      13 -> 19         0.29804
      13 -> 20         0.16777
      13 -> 22         0.10455
 
 Excited State  12:      Singlet-A      8.8112 eV  140.71 nm  f=0.2506  <S**2>=0.000
      12 -> 15         0.51159
      12 -> 16         0.40035
      13 -> 14        -0.13743
 
 Excited State  13:      Singlet-A      8.9569 eV  138.42 nm  f=0.0560  <S**2>=0.000
       9 -> 16        -0.19606
      10 -> 17         0.16429
      11 -> 15        -0.19292
      11 -> 16         0.53210
      11 -> 20         0.15070
      13 -> 15        -0.12127
 
 Excited State  14:      Singlet-A      9.1048 eV  136.17 nm  f=0.0039  <S**2>=0.000
      12 -> 17         0.60130
      13 -> 19        -0.18082
      13 -> 20         0.25440
 
 Excited State  15:      Singlet-A      9.2955 eV  133.38 nm  f=0.1033  <S**2>=0.000
       9 -> 17        -0.20067
      10 -> 15        -0.22795
      10 -> 16         0.41847
      10 -> 17         0.11530
      10 -> 19        -0.23475
      11 -> 18        -0.28855
      13 -> 14        -0.11542
 SavETr:  write IOETrn=   770 NScale= 10 NData=  16 NLR=1 NState=   15 LETran=     280.
 The selected state is a singlet
 CISAX will form     1 AO SS matrices at one time.
 NMat=     1 NSing=     1 JSym2X= 0.
 Leave Link  914 at Tue Dec 15 17:05:36 2015, MaxMem=    33554432 cpu:         0.1
 (Enter /home/Applications/g09/g09/l1002.exe)
 Minotr:  Closed shell wavefunction.
          Computing CIS/TD-HF/TD-KS derivatives.
          Using Z-Vector for PSCF gradient.
          Skipping F1 and S1 gradient terms here.
          IDoAtm=111111111
          Direct CPHF calculation.
          Differentiating once with respect to electric field.
                with respect to dipole field.
          Differentiating once with respect to nuclear coordinates.
          Electric field/nuclear overlap derivatives assumed to be zero.
          Requested convergence is 1.0D-10 RMS, and 1.0D-09 maximum.
          NewPWx=T KeepS1=F KeepF1=F KeepIn=T MapXYZ=F SortEE=F KeepMc=T.
          MDV=      33495423 using IRadAn=       0.
 Keep J ints in memory in canonical form, NReq=871704.
 FoFCou: FMM=F IPFlag=           0 FMFlag=           0 FMFlg1=           0
         NFxFlg=           0 DoJE=F BraDBF=F KetDBF=F FulRan=T
         wScrn=  0.000000 ICntrl=     600 IOpCl=  2 I1Cent=           0 NGrid=           0
         NMat0=    1 NMatS0=     54 NMatT0=    0 NMatD0=    1 NMtDS0=    0 NMtDT0=    0
 Symmetry not used in FoFCou.
          Solving linear equations separately, MaxMat=       0.
          There are     1 degrees of freedom in the 1st order CPHF.  IDoFFX=0 NUNeed=     1.
 LinEq1:  Iter=  0 NonCon=     1 RMS=9.44D-03 Max=7.46D-02 NDo=     1
 AX will form     1 AO Fock derivatives at one time.
 LinEq1:  Iter=  1 NonCon=     1 RMS=1.19D-03 Max=7.58D-03 NDo=     1
 LinEq1:  Iter=  2 NonCon=     1 RMS=1.58D-04 Max=9.64D-04 NDo=     1
 LinEq1:  Iter=  3 NonCon=     1 RMS=1.58D-05 Max=6.12D-05 NDo=     1
 LinEq1:  Iter=  4 NonCon=     1 RMS=2.36D-06 Max=1.36D-05 NDo=     1
 LinEq1:  Iter=  5 NonCon=     1 RMS=3.89D-07 Max=2.10D-06 NDo=     1
 LinEq1:  Iter=  6 NonCon=     1 RMS=8.96D-08 Max=6.85D-07 NDo=     1
 LinEq1:  Iter=  7 NonCon=     1 RMS=1.06D-08 Max=4.86D-08 NDo=     1
 LinEq1:  Iter=  8 NonCon=     1 RMS=1.21D-09 Max=4.76D-09 NDo=     1
 LinEq1:  Iter=  9 NonCon=     1 RMS=1.22D-10 Max=4.21D-10 NDo=     1
 LinEq1:  Iter= 10 NonCon=     0 RMS=1.58D-11 Max=6.51D-11 NDo=     1
 Linear equations converged to 1.000D-10 1.000D-09 after    10 iterations.
 End of Minotr F.D. properties file   721 does not exist.
 End of Minotr F.D. properties file   722 does not exist.
 End of Minotr F.D. properties file   788 does not exist.
 Leave Link 1002 at Tue Dec 15 17:05:36 2015, MaxMem=    33554432 cpu:         0.0
 (Enter /home/Applications/g09/g09/l601.exe)
 Copying SCF densities to generalized density rwf, IOpCl= 0 IROHF=0.

 **********************************************************************

            Population analysis using the SCF density.

 **********************************************************************

 Orbital symmetries:
       Occupied  (A) (A) (A) (A) (A) (A) (A) (A) (A) (A) (A) (A)
                 (A)
       Virtual   (A) (A) (A) (A) (A) (A) (A) (A) (A) (A) (A)
 The electronic state is 1-A.
 Alpha  occ. eigenvalues --   -1.83407  -1.20267  -0.99541  -0.86959  -0.81854
 Alpha  occ. eigenvalues --   -0.73447  -0.72139  -0.62213  -0.56457  -0.51047
 Alpha  occ. eigenvalues --   -0.49659  -0.47224  -0.39702
 Alpha virt. eigenvalues --    0.03671   0.09173   0.09784   0.11804   0.17355
 Alpha virt. eigenvalues --    0.18043   0.19210   0.21486   0.26285   0.27082
 Alpha virt. eigenvalues --    0.27671
     Molecular Orbital Coefficients:
                           1         2         3         4         5
                           O         O         O         O         O
     Eigenvalues --    -1.83407  -1.20267  -0.99541  -0.86959  -0.81854
   1 1   C  1S          0.10520   0.45601  -0.22387  -0.28436   0.18237
   2        1PX         0.07932   0.20259   0.15153   0.24128   0.18641
   3        1PY        -0.11476  -0.08941   0.15422   0.04153   0.42313
   4        1PZ         0.00120   0.00843  -0.00048  -0.00375  -0.00482
   5 2   C  1S          0.23583   0.17848  -0.47887   0.02865  -0.36414
   6        1PX         0.26012   0.08048  -0.05000   0.21243   0.08385
   7        1PY        -0.06391   0.29859   0.05220  -0.44216   0.03356
   8        1PZ        -0.01230  -0.00553   0.02708  -0.00133   0.00980
   9 3   O  1S          0.80175  -0.33568  -0.01963   0.03275   0.24003
  10        1PX        -0.00593  -0.02737   0.37251  -0.35716   0.04933
  11        1PY         0.11382   0.18603   0.04934  -0.06251  -0.18228
  12        1PZ         0.00358   0.00175   0.00074   0.01004  -0.00966
  13 4   C  1S          0.25867   0.19424   0.51082  -0.05164  -0.30716
  14        1PX        -0.24612  -0.15296   0.01571   0.10589  -0.09481
  15        1PY        -0.13836   0.30193  -0.07105   0.48580  -0.01960
  16        1PZ        -0.00135   0.00294   0.00376   0.01126  -0.01435
  17 5   C  1S          0.11276   0.48259   0.19993   0.26682   0.18405
  18        1PX        -0.04931  -0.15970   0.23448   0.26807  -0.26436
  19        1PY        -0.13813  -0.13055  -0.12514   0.04130   0.36950
  20        1PZ        -0.00162  -0.00333   0.00093   0.00281  -0.00813
  21 6   H  1S          0.00889   0.15010   0.10439   0.21715   0.18940
  22 7   H  1S          0.05548   0.00843   0.27301  -0.04187  -0.21102
  23 8   H  1S          0.04571   0.00748  -0.23138   0.02644  -0.24216
  24 9   H  1S          0.00673   0.13037  -0.10225  -0.20175   0.18810
                           6         7         8         9        10
                           O         O         O         O         O
     Eigenvalues --    -0.73447  -0.72139  -0.62213  -0.56457  -0.51047
   1 1   C  1S          0.20479   0.02529   0.11708  -0.00291   0.08315
   2        1PX        -0.18195  -0.02057  -0.01322  -0.43339  -0.23099
   3        1PY         0.15463   0.02110  -0.06792  -0.14922   0.47646
   4        1PZ        -0.03735   0.38140  -0.02259   0.01908  -0.04171
   5 2   C  1S          0.18683   0.03703  -0.00339  -0.10938  -0.09462
   6        1PX        -0.36335   0.00183   0.54678  -0.03253   0.08210
   7        1PY        -0.07231   0.00071   0.19548   0.44648  -0.30551
   8        1PZ        -0.05891   0.48797  -0.04101   0.00030  -0.00340
   9 3   O  1S          0.16103   0.01355  -0.00644   0.24539  -0.03711
  10        1PX         0.02195  -0.00311  -0.21168   0.01766  -0.12027
  11        1PY        -0.25564  -0.03132  -0.02394  -0.14013   0.04429
  12        1PZ        -0.04244   0.36763  -0.00926  -0.01661   0.02661
  13 4   C  1S          0.14783   0.00317  -0.00946  -0.09564   0.13936
  14        1PX         0.41405   0.05590   0.55348  -0.06353  -0.05281
  15        1PY         0.00084  -0.01985  -0.06056   0.42820   0.22188
  16        1PZ        -0.04220   0.55024  -0.01172   0.00568   0.03761
  17 5   C  1S          0.17131   0.01115  -0.12112  -0.02870  -0.08751
  18        1PX         0.12708  -0.00458  -0.06610   0.43145  -0.06286
  19        1PY         0.21743   0.03262   0.02528  -0.08534  -0.41777
  20        1PZ        -0.03359   0.40691  -0.01975   0.02522  -0.01785
  21 6   H  1S          0.25520   0.02770  -0.07361   0.08154  -0.35566
  22 7   H  1S          0.32636   0.04773   0.35246  -0.20049   0.01297
  23 8   H  1S          0.31909   0.01456  -0.36793  -0.20968  -0.00466
  24 9   H  1S          0.26082   0.02939   0.03607   0.12022   0.44433
                          11        12        13        14        15
                           O         O         O         V         V
     Eigenvalues --    -0.49659  -0.47224  -0.39702   0.03671   0.09173
   1 1   C  1S         -0.06206  -0.00064  -0.01200  -0.01942   0.06796
   2        1PX        -0.31825  -0.03558  -0.00283  -0.00141   0.00407
   3        1PY         0.15190   0.02480   0.04221   0.03511  -0.10693
   4        1PZ        -0.03698   0.28040   0.55743   0.66947   0.10102
   5 2   C  1S          0.15599   0.03931  -0.00878  -0.00090   0.01715
   6        1PX         0.31042   0.03819   0.00959  -0.00293   0.03296
   7        1PY        -0.10478  -0.01768  -0.02319   0.02156  -0.12468
   8        1PZ        -0.05860   0.67435  -0.31363  -0.25451  -0.33318
   9 3   O  1S         -0.21781  -0.01336  -0.00990   0.00451  -0.05732
  10        1PX        -0.04133  -0.01080  -0.01710  -0.00629   0.06190
  11        1PY         0.38313   0.02363   0.02289   0.01637  -0.19955
  12        1PZ         0.01832  -0.00394  -0.41363   0.01973   0.73216
  13 4   C  1S          0.11299   0.01705   0.01469   0.00115   0.03613
  14        1PX        -0.24603   0.00436   0.00133  -0.00748   0.08538
  15        1PY        -0.26209  -0.00246  -0.00131   0.00935  -0.16483
  16        1PZ         0.03105  -0.64527  -0.26529   0.23334  -0.34016
  17 5   C  1S         -0.05219  -0.00886  -0.00175  -0.00572   0.07686
  18        1PX         0.30210   0.02351  -0.01870   0.00650   0.06914
  19        1PY         0.36308   0.01196  -0.01676   0.01802  -0.14963
  20        1PZ         0.01044  -0.20453   0.58698  -0.65473   0.10050
  21 6   H  1S          0.33967   0.01080  -0.01402  -0.01517   0.07061
  22 7   H  1S         -0.04121   0.00182   0.00719   0.00973  -0.22225
  23 8   H  1S         -0.05010  -0.00341   0.00289   0.01193  -0.09331
  24 9   H  1S          0.22490   0.03369   0.01497  -0.01037   0.07106
                          16        17        18        19        20
                           V         V         V         V         V
     Eigenvalues --     0.09784   0.11804   0.17355   0.18043   0.19210
   1 1   C  1S         -0.12702  -0.03771   0.04544  -0.15003  -0.01220
   2        1PX        -0.00264   0.27570   0.45629   0.16515   0.03512
   3        1PY         0.24920   0.27712  -0.25915  -0.26161   0.05398
   4        1PZ         0.00877  -0.01983   0.01165   0.01482  -0.00492
   5 2   C  1S         -0.05723  -0.00319   0.03158  -0.28443   0.16465
   6        1PX        -0.03070   0.26066  -0.07549  -0.12365  -0.38815
   7        1PY         0.29060   0.31931  -0.06732  -0.01333  -0.05503
   8        1PZ        -0.15006   0.02158  -0.00597  -0.00241  -0.00151
   9 3   O  1S          0.11143   0.02716  -0.00779   0.09705   0.14300
  10        1PX        -0.05708   0.11828   0.04655  -0.06686  -0.06104
  11        1PY         0.32248   0.10326  -0.02681   0.40505   0.48436
  12        1PZ         0.38737  -0.04312   0.00804   0.03240   0.02061
  13 4   C  1S         -0.05043   0.01310  -0.02489  -0.31174   0.23666
  14        1PX        -0.12671   0.33294  -0.12086   0.11761   0.37932
  15        1PY         0.33131  -0.12381   0.04483  -0.01774   0.10510
  16        1PZ        -0.18635   0.02388  -0.00528  -0.00994   0.00484
  17 5   C  1S         -0.13717  -0.01696  -0.06162  -0.11927  -0.03601
  18        1PX        -0.11605   0.27953   0.38453  -0.08842  -0.11007
  19        1PY         0.28486  -0.09903   0.32888  -0.31325   0.15570
  20        1PZ         0.07955   0.00401   0.01135  -0.00694   0.00499
  21 6   H  1S         -0.16680  -0.09549  -0.43947   0.41198  -0.07473
  22 7   H  1S          0.36836  -0.42399   0.11308   0.13339  -0.38516
  23 8   H  1S          0.25168   0.49283  -0.10100   0.12351  -0.38982
  24 9   H  1S         -0.17627   0.02842   0.46349   0.41444  -0.03374
                          21        22        23        24
                           V         V         V         V
     Eigenvalues --     0.21486   0.26285   0.27082   0.27671
   1 1   C  1S          0.00528   0.55722  -0.39184  -0.19546
   2        1PX         0.23467  -0.16484  -0.21042  -0.14155
   3        1PY         0.41345  -0.06685  -0.07076   0.00907
   4        1PZ        -0.01164   0.01406  -0.01072  -0.00330
   5 2   C  1S          0.37164  -0.34607  -0.09540   0.29507
   6        1PX        -0.24468  -0.04601  -0.08532   0.15365
   7        1PY         0.18143  -0.24247   0.18939  -0.14738
   8        1PZ        -0.00775   0.00946   0.00696  -0.01226
   9 3   O  1S          0.00770   0.05602   0.01270   0.01535
  10        1PX        -0.16180  -0.04039  -0.38250   0.68020
  11        1PY         0.00638   0.31403   0.03422   0.15015
  12        1PZ         0.01318   0.00423   0.00954  -0.01159
  13 4   C  1S         -0.30956  -0.25658  -0.06041  -0.38792
  14        1PX        -0.12413   0.06762   0.01596   0.14314
  15        1PY        -0.22183  -0.12575  -0.30595   0.13627
  16        1PZ        -0.01180  -0.00183  -0.00578   0.00368
  17 5   C  1S          0.00501   0.18163   0.61724   0.30914
  18        1PX         0.30851   0.32349  -0.06968  -0.06014
  19        1PY        -0.31647  -0.01585   0.03570  -0.03241
  20        1PZ         0.00658   0.00171  -0.00008  -0.00207
  21 6   H  1S          0.08567  -0.19060  -0.30423  -0.12844
  22 7   H  1S          0.21129   0.06042  -0.01072   0.09278
  23 8   H  1S         -0.30733   0.07578   0.03960  -0.08252
  24 9   H  1S         -0.11833  -0.32198   0.13467   0.04285
     Density Matrix:
                           1         2         3         4         5
   1 1   C  1S          0.90091
   2        1PX        -0.01056   1.08141
   3        1PY         0.06469  -0.07470   1.05885
   4        1PZ        -0.00896   0.00152   0.00558   1.08060
   5 2   C  1S          0.32099  -0.19026  -0.48863   0.02622   1.06673
   6        1PX         0.01462   0.10010  -0.00252   0.00453   0.10233
   7        1PY         0.47557  -0.23086  -0.53888   0.01944  -0.12516
   8        1PZ        -0.01111   0.00188   0.01413   0.41140   0.01430
   9 3   O  1S          0.02509  -0.02436  -0.04922   0.00236   0.04993
  10        1PX        -0.02716   0.01207   0.03422  -0.00444  -0.41086
  11        1PY        -0.01126  -0.03947  -0.07721   0.00327   0.24758
  12        1PZ         0.00401  -0.00363  -0.00384  -0.18349   0.03191
  13 4   C  1S         -0.01197   0.02673   0.04412   0.00087   0.00928
  14        1PX         0.03097  -0.01238  -0.03331   0.00775  -0.00806
  15        1PY         0.04675   0.00143  -0.00895   0.00329  -0.06567
  16        1PZ         0.00644   0.00058  -0.00932  -0.23934  -0.01178
  17 5   C  1S          0.32423   0.51095   0.10604   0.00876  -0.01323
  18        1PX        -0.52359  -0.55376  -0.13847  -0.02078  -0.03542
  19        1PY         0.00217  -0.00107   0.13461  -0.00603   0.03709
  20        1PZ        -0.02440  -0.01601   0.02212   0.85518  -0.00431
  21 6   H  1S          0.02485   0.05394   0.01102   0.00247   0.08673
  22 7   H  1S          0.07084   0.05988   0.00334   0.00182   0.07065
  23 8   H  1S          0.06855  -0.02834  -0.09366   0.00388   0.57732
  24 9   H  1S          0.51109  -0.55651   0.62182  -0.01020   0.06065
                           6         7         8         9        10
   6        1PX         1.33100
   7        1PY        -0.05237   1.28110
   8        1PZ        -0.00063   0.00144   1.60168
   9 3   O  1S          0.13670  -0.05524  -0.00357   1.90003
  10        1PX        -0.48337   0.35561   0.03612   0.04046   0.66346
  11        1PY         0.44307  -0.06208  -0.03185  -0.35883   0.00243
  12        1PZ         0.03537  -0.02143   0.61607  -0.01285  -0.00221
  13 4   C  1S          0.02437  -0.05927  -0.00074   0.05405   0.33682
  14        1PX         0.02250   0.02522   0.00104  -0.12366  -0.24783
  15        1PY        -0.03443   0.03770   0.00701  -0.09091  -0.40745
  16        1PZ        -0.00765   0.00440  -0.16493   0.00001   0.00449
  17 5   C  1S         -0.04194   0.03812   0.00208   0.02725   0.03209
  18        1PX        -0.01930  -0.00321   0.00448   0.03580   0.00556
  19        1PY         0.03188  -0.00328  -0.00378  -0.04729  -0.01108
  20        1PZ         0.00020   0.00424  -0.24246  -0.00065  -0.00890
  21 6   H  1S          0.02425   0.07365  -0.00408   0.01686   0.03581
  22 7   H  1S          0.08804  -0.03873  -0.00891  -0.01119   0.06911
  23 8   H  1S         -0.63387  -0.42905  -0.01241  -0.00996  -0.04860
  24 9   H  1S          0.03818   0.02062  -0.00119   0.01556  -0.04719
                          11        12        13        14        15
  11        1PY         0.64700
  12        1PZ         0.00484   0.61935
  13 4   C  1S          0.35187   0.00059   1.05276
  14        1PX        -0.50689  -0.01346  -0.06907   1.30540
  15        1PY        -0.27740  -0.01436  -0.14314   0.06266   1.31417
  16        1PZ        -0.02447   0.63638  -0.01021  -0.00771   0.00176
  17 5   C  1S          0.00181  -0.00360   0.33141  -0.12772   0.46234
  18        1PX         0.05909   0.00567   0.29399   0.02227   0.34629
  19        1PY        -0.08173   0.00480  -0.43542   0.13073  -0.44999
  20        1PZ         0.01027  -0.18279  -0.00063  -0.00688  -0.00479
  21 6   H  1S          0.04907   0.00384   0.06979  -0.04388   0.01909
  22 7   H  1S         -0.03568   0.00480   0.56791   0.72001  -0.26987
  23 8   H  1S         -0.05118  -0.00183   0.06505  -0.07019  -0.05091
  24 9   H  1S          0.03996   0.00671   0.08483  -0.03814   0.06494
                          16        17        18        19        20
  16        1PZ         1.58841
  17 5   C  1S          0.00763   0.89214
  18        1PX        -0.00113  -0.01195   1.05496
  19        1PY        -0.01044   0.05992   0.07449   1.10614
  20        1PZ         0.40349  -0.00019  -0.00344  -0.00014   1.10927
  21 6   H  1S          0.00053   0.50207   0.41210   0.72982   0.00863
  22 7   H  1S          0.01377   0.07078   0.04519  -0.08915   0.00273
  23 8   H  1S          0.00047   0.06688  -0.05447  -0.00922   0.00173
  24 9   H  1S         -0.00315   0.02053  -0.05184   0.00104  -0.00161
                          21        22        23        24
  21 6   H  1S          0.87334
  22 7   H  1S          0.00964   0.79821
  23 8   H  1S          0.02726   0.01726   0.79789
  24 9   H  1S         -0.01238   0.02822   0.01164   0.87519
    Full Mulliken population analysis:
                           1         2         3         4         5
   1 1   C  1S          0.90091
   2        1PX         0.00000   1.08141
   3        1PY         0.00000   0.00000   1.05885
   4        1PZ         0.00000   0.00000   0.00000   1.08060
   5 2   C  1S          0.00000   0.00000   0.00000   0.00000   1.06673
   6        1PX         0.00000   0.00000   0.00000   0.00000   0.00000
   7        1PY         0.00000   0.00000   0.00000   0.00000   0.00000
   8        1PZ         0.00000   0.00000   0.00000   0.00000   0.00000
   9 3   O  1S          0.00000   0.00000   0.00000   0.00000   0.00000
  10        1PX         0.00000   0.00000   0.00000   0.00000   0.00000
  11        1PY         0.00000   0.00000   0.00000   0.00000   0.00000
  12        1PZ         0.00000   0.00000   0.00000   0.00000   0.00000
  13 4   C  1S          0.00000   0.00000   0.00000   0.00000   0.00000
  14        1PX         0.00000   0.00000   0.00000   0.00000   0.00000
  15        1PY         0.00000   0.00000   0.00000   0.00000   0.00000
  16        1PZ         0.00000   0.00000   0.00000   0.00000   0.00000
  17 5   C  1S          0.00000   0.00000   0.00000   0.00000   0.00000
  18        1PX         0.00000   0.00000   0.00000   0.00000   0.00000
  19        1PY         0.00000   0.00000   0.00000   0.00000   0.00000
  20        1PZ         0.00000   0.00000   0.00000   0.00000   0.00000
  21 6   H  1S          0.00000   0.00000   0.00000   0.00000   0.00000
  22 7   H  1S          0.00000   0.00000   0.00000   0.00000   0.00000
  23 8   H  1S          0.00000   0.00000   0.00000   0.00000   0.00000
  24 9   H  1S          0.00000   0.00000   0.00000   0.00000   0.00000
                           6         7         8         9        10
   6        1PX         1.33100
   7        1PY         0.00000   1.28110
   8        1PZ         0.00000   0.00000   1.60168
   9 3   O  1S          0.00000   0.00000   0.00000   1.90003
  10        1PX         0.00000   0.00000   0.00000   0.00000   0.66346
  11        1PY         0.00000   0.00000   0.00000   0.00000   0.00000
  12        1PZ         0.00000   0.00000   0.00000   0.00000   0.00000
  13 4   C  1S          0.00000   0.00000   0.00000   0.00000   0.00000
  14        1PX         0.00000   0.00000   0.00000   0.00000   0.00000
  15        1PY         0.00000   0.00000   0.00000   0.00000   0.00000
  16        1PZ         0.00000   0.00000   0.00000   0.00000   0.00000
  17 5   C  1S          0.00000   0.00000   0.00000   0.00000   0.00000
  18        1PX         0.00000   0.00000   0.00000   0.00000   0.00000
  19        1PY         0.00000   0.00000   0.00000   0.00000   0.00000
  20        1PZ         0.00000   0.00000   0.00000   0.00000   0.00000
  21 6   H  1S          0.00000   0.00000   0.00000   0.00000   0.00000
  22 7   H  1S          0.00000   0.00000   0.00000   0.00000   0.00000
  23 8   H  1S          0.00000   0.00000   0.00000   0.00000   0.00000
  24 9   H  1S          0.00000   0.00000   0.00000   0.00000   0.00000
                          11        12        13        14        15
  11        1PY         0.64700
  12        1PZ         0.00000   0.61935
  13 4   C  1S          0.00000   0.00000   1.05276
  14        1PX         0.00000   0.00000   0.00000   1.30540
  15        1PY         0.00000   0.00000   0.00000   0.00000   1.31417
  16        1PZ         0.00000   0.00000   0.00000   0.00000   0.00000
  17 5   C  1S          0.00000   0.00000   0.00000   0.00000   0.00000
  18        1PX         0.00000   0.00000   0.00000   0.00000   0.00000
  19        1PY         0.00000   0.00000   0.00000   0.00000   0.00000
  20        1PZ         0.00000   0.00000   0.00000   0.00000   0.00000
  21 6   H  1S          0.00000   0.00000   0.00000   0.00000   0.00000
  22 7   H  1S          0.00000   0.00000   0.00000   0.00000   0.00000
  23 8   H  1S          0.00000   0.00000   0.00000   0.00000   0.00000
  24 9   H  1S          0.00000   0.00000   0.00000   0.00000   0.00000
                          16        17        18        19        20
  16        1PZ         1.58841
  17 5   C  1S          0.00000   0.89214
  18        1PX         0.00000   0.00000   1.05496
  19        1PY         0.00000   0.00000   0.00000   1.10614
  20        1PZ         0.00000   0.00000   0.00000   0.00000   1.10927
  21 6   H  1S          0.00000   0.00000   0.00000   0.00000   0.00000
  22 7   H  1S          0.00000   0.00000   0.00000   0.00000   0.00000
  23 8   H  1S          0.00000   0.00000   0.00000   0.00000   0.00000
  24 9   H  1S          0.00000   0.00000   0.00000   0.00000   0.00000
                          21        22        23        24
  21 6   H  1S          0.87334
  22 7   H  1S          0.00000   0.79821
  23 8   H  1S          0.00000   0.00000   0.79789
  24 9   H  1S          0.00000   0.00000   0.00000   0.87519
     Gross orbital populations:
                           1
   1 1   C  1S          0.90091
   2        1PX         1.08141
   3        1PY         1.05885
   4        1PZ         1.08060
   5 2   C  1S          1.06673
   6        1PX         1.33100
   7        1PY         1.28110
   8        1PZ         1.60168
   9 3   O  1S          1.90003
  10        1PX         0.66346
  11        1PY         0.64700
  12        1PZ         0.61935
  13 4   C  1S          1.05276
  14        1PX         1.30540
  15        1PY         1.31417
  16        1PZ         1.58841
  17 5   C  1S          0.89214
  18        1PX         1.05496
  19        1PY         1.10614
  20        1PZ         1.10927
  21 6   H  1S          0.87334
  22 7   H  1S          0.79821
  23 8   H  1S          0.79789
  24 9   H  1S          0.87519
          Condensed to atoms (all electrons):
               1          2          3          4          5          6
     1  C    4.121768   0.000000   0.000000   0.000000   0.000000   0.000000
     2  C    0.000000   5.280508   0.000000   0.000000   0.000000   0.000000
     3  O    0.000000   0.000000   3.829851   0.000000   0.000000   0.000000
     4  C    0.000000   0.000000   0.000000   5.260741   0.000000   0.000000
     5  C    0.000000   0.000000   0.000000   0.000000   4.162502   0.000000
     6  H    0.000000   0.000000   0.000000   0.000000   0.000000   0.873343
     7  H    0.000000   0.000000   0.000000   0.000000   0.000000   0.000000
     8  H    0.000000   0.000000   0.000000   0.000000   0.000000   0.000000
     9  H    0.000000   0.000000   0.000000   0.000000   0.000000   0.000000
               7          8          9
     1  C    0.000000   0.000000   0.000000
     2  C    0.000000   0.000000   0.000000
     3  O    0.000000   0.000000   0.000000
     4  C    0.000000   0.000000   0.000000
     5  C    0.000000   0.000000   0.000000
     6  H    0.000000   0.000000   0.000000
     7  H    0.798209   0.000000   0.000000
     8  H    0.000000   0.797887   0.000000
     9  H    0.000000   0.000000   0.875190
 Mulliken charges:
               1
     1  C   -0.121768
     2  C   -1.280508
     3  O    2.170149
     4  C   -1.260741
     5  C   -0.162502
     6  H    0.126657
     7  H    0.201791
     8  H    0.202113
     9  H    0.124810
 Sum of Mulliken charges =   0.00000
 Mulliken charges with hydrogens summed into heavy atoms:
               1
     1  C    0.003041
     2  C   -1.078396
     3  O    2.170149
     4  C   -1.058950
     5  C   -0.035845
 Charge=              0.0000 electrons
 Dipole moment (field-independent basis, Debye):
    X=              1.0373    Y=             -6.6072    Z=             -0.3169  Tot=              6.6956
 N-N= 1.045640321181D+02 E-N=-1.714736638127D+02  KE=-1.498971061395D+01
 Orbital energies and kinetic energies (alpha):
                                 1                 2
   1         O                -1.834074         -1.249872
   2         O                -1.202668         -0.967971
   3         O                -0.995407         -0.808120
   4         O                -0.869589         -0.628535
   5         O                -0.818535         -0.668990
   6         O                -0.734468         -0.606006
   7         O                -0.721391         -0.519951
   8         O                -0.622129         -0.433644
   9         O                -0.564567         -0.347082
  10         O                -0.510466         -0.423091
  11         O                -0.496589         -0.265136
  12         O                -0.472243         -0.320319
  13         O                -0.397022         -0.256138
  14         V                 0.036710         -0.158537
  15         V                 0.091725          0.091267
  16         V                 0.097837         -0.048566
  17         V                 0.118045         -0.154560
  18         V                 0.173547         -0.151896
  19         V                 0.180430         -0.080397
  20         V                 0.192099         -0.005253
  21         V                 0.214863         -0.067767
  22         V                 0.262846         -0.035323
  23         V                 0.270820          0.002049
  24         V                 0.276707          0.197746
 Total kinetic energy from orbitals=-1.498971061395D+01
 Leave Link  601 at Tue Dec 15 17:05:36 2015, MaxMem=    33554432 cpu:         0.0
 (Enter /home/Applications/g09/g09/l701.exe)
 Compute integral first derivatives.
 ... and contract with generalized density number  6.
 Leave Link  701 at Tue Dec 15 17:05:36 2015, MaxMem=    33554432 cpu:         0.0
 (Enter /home/Applications/g09/g09/l702.exe)
 L702 exits ... SP integral derivatives will be done elsewhere.
 Leave Link  702 at Tue Dec 15 17:05:36 2015, MaxMem=    33554432 cpu:         0.0
 (Enter /home/Applications/g09/g09/l703.exe)
 Compute integral first derivatives, UseDBF=F ICtDFT=           0.
 Integral derivatives from FoFJK, PRISM(SPDF).
 Calling FoFJK, ICntrl=  10005127 FMM=F ISym2X=0 I1Cent= 0 IOpClX= 0 NMat=1 NMatS=1 NMatT=0.
 FoFJK:  IHMeth= 8 ICntrl=10005127 DoSepK=F KAlg= 0 I1Cent=   0 FoldK=F
 IRaf=         0 NMat=   1 IRICut=       1 DoRegI=T DoRafI=F ISym2E= 0.
 FoFCou: FMM=F IPFlag=           0 FMFlag=      100000 FMFlg1=         800
         NFxFlg=           0 DoJE=F BraDBF=F KetDBF=F FulRan=T
         wScrn=  0.000000 ICntrl=10005127 IOpCl=  0 I1Cent=           0 NGrid=           0
         NMat0=    1 NMatS0=      1 NMatT0=    0 NMatD0=    1 NMtDS0=    0 NMtDT0=    0
 Symmetry not used in FoFCou.
 Leave Link  703 at Tue Dec 15 17:05:36 2015, MaxMem=    33554432 cpu:         0.0
 (Enter /home/Applications/g09/g09/l716.exe)
 Dipole        = 4.37668290D-01-2.93395358D+00-1.20666219D-01
 ***** Axes restored to original set *****
 -------------------------------------------------------------------
 Center     Atomic                   Forces (Hartrees/Bohr)
 Number     Number              X              Y              Z
 -------------------------------------------------------------------
      1        6          -0.010658225   -0.050325658   -0.009964574
      2        6          -0.048120370    0.154659594    0.016875139
      3        8           0.113077955   -0.034604566   -0.011352626
      4        6          -0.088851960   -0.124859480    0.003378336
      5        6           0.027475603    0.024265161    0.003406422
      6        1           0.018393379    0.011809027   -0.004620300
      7        1          -0.005239974    0.042599349    0.000398936
      8        1          -0.001630138   -0.024005105   -0.003269817
      9        1          -0.004446270    0.000461678    0.005148483
 -------------------------------------------------------------------
 Cartesian Forces:  Max     0.154659594 RMS     0.051354714
 Z-matrix is all fixed cartesians, so copy forces.
 Force constants in Cartesian coordinates: 
                1             2             3             4             5 
      1  0.844781D+00
      2 -0.120670D-01  0.873469D+00
      3  0.134682D-01  0.173310D-02  0.214537D+00
      4 -0.450892D+00 -0.104515D+00 -0.175766D-01  0.836660D+00
      5 -0.779817D-01 -0.208528D+00 -0.645620D-02  0.418745D-01  0.873444D+00
      6 -0.141132D-01 -0.485978D-02 -0.980816D-01 -0.832369D-02  0.145898D-01
      7 -0.965795D-02  0.288872D-01  0.236214D-02 -0.251372D+00  0.143835D+00
      8 -0.629883D-02  0.189225D-01  0.977875D-03  0.188002D+00 -0.366283D+00
      9 -0.972248D-03  0.137036D-02  0.538203D-02  0.200155D-01 -0.218193D-01
     10  0.127665D-01  0.192413D-03 -0.696570D-03  0.253587D-01  0.167215D-01
     11  0.360181D-01  0.498024D-03 -0.153457D-02 -0.183010D-01 -0.120724D-01
     12 -0.784743D-03  0.243805D-03 -0.850649D-03 -0.226478D-02 -0.169494D-02
     13 -0.182990D+00  0.167079D-01  0.167875D-03  0.116142D-01 -0.351535D-01
     14 -0.663190D-02 -0.525124D+00  0.435760D-02  0.175346D-03 -0.529524D-03
     15 -0.426496D-04  0.588658D-02 -0.968816D-01  0.530240D-03 -0.244830D-02
     16  0.180011D-01  0.260410D-03  0.111048D-03 -0.542560D-05  0.110306D-05
     17 -0.240240D-01 -0.340122D-03  0.719383D-03 -0.215579D-05  0.000000D+00
     18  0.650083D-03  0.201070D-03  0.224198D-01 -0.242979D-03  0.493993D-04
     19  0.979645D-05  0.321526D-05  0.359518D-03 -0.449174D-05  0.250420D-05
     20  0.116908D-04  0.383701D-05  0.429040D-03  0.589552D-05 -0.328683D-05
     21  0.234564D-03  0.769854D-04  0.860821D-02  0.296963D-03 -0.165561D-03
     22  0.830141D-02 -0.252593D-01  0.168827D-02 -0.166182D+00 -0.104934D+00
     23 -0.424882D-02  0.127924D-01  0.362809D-03 -0.999052D-01 -0.308184D+00
     24 -0.138910D-03 -0.243136D-02  0.257697D-01  0.924372D-02  0.154526D-01
     25 -0.240320D+00  0.957897D-01  0.116138D-03 -0.517774D-02  0.156346D-01
     26  0.952225D-01 -0.171693D+00 -0.589038D-03 -0.733451D-02  0.221557D-01
     27  0.169893D-02 -0.222077D-02 -0.809026D-01 -0.167834D-02  0.249247D-02
                6             7             8             9            10 
      6  0.183709D+00
      7  0.152612D-01  0.521403D+00
      8 -0.203981D-01  0.359108D-01  0.743514D+00
      9 -0.442569D-01 -0.213650D-01  0.177371D-01  0.566714D-01
     10 -0.609417D-03 -0.294447D+00 -0.223675D+00  0.297467D-02  0.960112D+00
     11  0.322565D-03 -0.179523D+00 -0.401380D+00  0.217402D-03 -0.423435D-01
     12 -0.350009D-02  0.555468D-02  0.341228D-02 -0.474246D-01 -0.106046D-01
     13  0.490214D-03 -0.104845D-01  0.755286D-02  0.743032D-03 -0.520894D+00
     14  0.588808D-04 -0.295606D-01  0.213234D-01  0.782815D-03  0.132907D+00
     15 -0.122737D-02  0.429153D-03  0.111276D-03  0.921724D-02  0.114195D-01
     16  0.138151D-03  0.374808D-05 -0.115693D-05  0.172742D-03 -0.606723D-02
     17  0.548928D-04  0.000000D+00  0.000000D+00  0.298818D-04  0.815134D-02
     18  0.618695D-02  0.146127D-03 -0.451053D-04  0.673474D-02  0.117819D-02
     19 -0.820870D-04  0.224633D-01 -0.161893D-01  0.790360D-03 -0.176854D+00
     20  0.107741D-03  0.118330D-01 -0.852713D-02  0.526119D-03  0.108045D+00
     21  0.542703D-02 -0.282461D-03  0.238868D-03  0.393527D-02 -0.408020D-02
     22  0.720689D-02  0.220894D-01  0.146893D-01 -0.223176D-02  0.240556D-04
     23  0.101562D-01 -0.113853D-01 -0.758466D-02  0.135346D-02  0.000000D+00
     24 -0.715470D-01 -0.204275D-02 -0.164262D-02  0.447841D-02  0.246554D-03
     25  0.319139D-04  0.152551D-05  0.946902D-05 -0.127239D-03  0.145485D-05
     26 -0.322240D-04  0.237246D-05  0.147261D-04 -0.197881D-03  0.149070D-05
     27  0.232900D-01 -0.630924D-04 -0.391622D-03  0.526239D-02  0.171888D-03
               11            12            13            14            15 
     11  0.945946D+00
     12 -0.558872D-02  0.218292D+00
     13  0.106502D+00  0.102490D-01  0.934357D+00
     14 -0.234677D+00 -0.255772D-02 -0.121035D-01  0.918072D+00
     15 -0.284279D-02 -0.117329D+00 -0.159400D-01 -0.496316D-02  0.236152D+00
     16 -0.171571D-01  0.927242D-03 -0.257688D+00 -0.111170D+00  0.475366D-02
     17  0.229777D-01 -0.169746D-03 -0.112207D+00 -0.193170D+00  0.338817D-02
     18  0.144601D-02  0.276206D-01  0.444143D-02  0.291685D-02 -0.901783D-01
     19  0.114818D+00 -0.356977D-02  0.926418D-02  0.261454D-01 -0.646702D-03
     20 -0.321293D+00  0.631070D-02  0.489695D-02  0.137589D-01  0.561325D-03
     21  0.806115D-02 -0.876221D-01  0.488153D-03 -0.823940D-03  0.324238D-01
     22 -0.134113D-04  0.439618D-03  0.159741D-04 -0.324764D-05 -0.406747D-03
     23  0.000000D+00 -0.103687D-04 -0.202137D-04  0.410959D-05  0.514700D-03
     24 -0.137457D-03  0.450580D-02 -0.253388D-03  0.515156D-04  0.645200D-02
     25  0.000000D+00  0.533911D-04  0.168050D-01  0.241396D-03 -0.964430D-04
     26  0.000000D+00  0.547069D-04  0.238245D-01  0.341620D-03 -0.207804D-03
     27  0.564149D-04  0.630809D-02 -0.386273D-03  0.177168D-03  0.213713D-01
               16            17            18            19            20 
     16  0.245770D+00
     17  0.128084D+00  0.170536D+00
     18 -0.559343D-02 -0.388955D-02  0.482375D-01
     19 -0.129158D-04 -0.223424D-05 -0.503552D-03  0.145135D+00
     20 -0.154134D-04 -0.266629D-05 -0.600927D-03 -0.124777D+00  0.316064D+00
     21 -0.309253D-03 -0.534962D-04 -0.120569D-01  0.365224D-02 -0.733400D-02
     22  0.000000D+00  0.000000D+00  0.000000D+00  0.000000D+00  0.000000D+00
     23  0.000000D+00  0.000000D+00  0.000000D+00  0.000000D+00  0.000000D+00
     24  0.000000D+00  0.000000D+00  0.000000D+00  0.000000D+00  0.000000D+00
     25 -0.169421D-05  0.000000D+00 -0.758733D-04  0.000000D+00  0.000000D+00
     26 -0.173597D-05  0.000000D+00 -0.777432D-04  0.000000D+00  0.000000D+00
     27 -0.200169D-03 -0.795348D-04 -0.896434D-02  0.000000D+00  0.000000D+00
               21            22            23            24            25 
     21  0.492847D-01
     22  0.000000D+00  0.135765D+00
     23  0.000000D+00  0.115542D+00  0.302944D+00
     24  0.000000D+00 -0.727854D-02 -0.116400D-01  0.395772D-01
     25  0.000000D+00 -0.140786D-04  0.178152D-04  0.223322D-03  0.228706D+00
     26  0.000000D+00 -0.218950D-04  0.277060D-04  0.347308D-03 -0.111693D+00
     27  0.000000D+00  0.582268D-03 -0.736805D-03 -0.923619D-02 -0.125209D-03
               26            27 
     26  0.149154D+00
     27  0.702676D-03  0.428713D-01
 Leave Link  716 at Tue Dec 15 17:05:36 2015, MaxMem=    33554432 cpu:         0.0
 (Enter /home/Applications/g09/g09/l103.exe)

 GradGradGradGradGradGradGradGradGradGradGradGradGradGradGradGradGradGrad
 Berny optimization.
 Search for a local minimum.
 Step number   1 out of a maximum of    2
 All quantities printed in internal units (Hartrees-Bohrs-Radians)
 Second derivative matrix not updated -- first step.
 ITU=  0
     Eigenvalues ---    0.02139   0.03313   0.06816   0.07572   0.07616
     Eigenvalues ---    0.08552   0.13165   0.15511   0.17109   0.24317
     Eigenvalues ---    0.24933   0.31416   0.42910   0.43395   0.63274
     Eigenvalues ---    0.80582   1.09848   1.35924   1.45458   1.56714
     Eigenvalues ---    1.67646
 Quadratic step=3.749D-01 exceeds max=3.000D-01 adjusted using Lamda=-3.430D-02.
 Angle between NR and scaled steps=  14.64 degrees.
 Angle between quadratic step and forces=  36.29 degrees.
 Linear search not attempted -- first point.
 TrRot=  0.003223 -0.006168 -0.000543 -0.024349 -0.000655  0.026464
 Variable       Old X    -DE/DX   Delta X   Delta X   Delta X     New X
                                 (Linear)    (Quad)   (Total)
    X1        1.75209  -0.01066   0.00000  -0.00523   0.00077   1.75286
    Y1       -1.29958  -0.05033   0.00000  -0.02087  -0.02334  -1.32291
    Z1        0.02435  -0.00996   0.00000  -0.01065  -0.01003   0.01432
    X2       -0.73092  -0.04812   0.00000  -0.02885  -0.02145  -0.75237
    Y2       -2.12169   0.15466   0.00000   0.15992   0.15215  -1.96954
    Z2       -0.06660   0.01688   0.00000   0.03124   0.03023  -0.03637
    X3       -2.16568   0.11308   0.00000   0.07204   0.07523  -2.09045
    Y3        0.05789  -0.03460   0.00000  -0.05339  -0.06398  -0.00609
    Z3        0.07840  -0.01135   0.00000  -0.02570  -0.02761   0.05079
    X4       -0.67673  -0.08885   0.00000  -0.07790  -0.07894  -0.75567
    Y4        2.12295  -0.12486   0.00000  -0.12995  -0.13772   1.98523
    Z4        0.05992   0.00338   0.00000   0.01398   0.01291   0.07283
    X5        1.71499   0.02748   0.00000   0.03641   0.03689   1.75189
    Y5        1.27406   0.02427   0.00000   0.02010   0.01763   1.29169
    Z5        0.00234   0.00341   0.00000   0.00006   0.00065   0.00299
    X6        3.37195   0.01839   0.00000   0.06409   0.06189   3.43384
    Y6        2.51430   0.01181   0.00000   0.07247   0.07356   2.58787
    Z6       -0.04566  -0.00462   0.00000  -0.04311  -0.04145  -0.08711
    X7       -1.61265  -0.00524   0.00000  -0.03380  -0.03886  -1.65151
    Y7        3.89846   0.04260   0.00000   0.01023   0.00057   3.89904
    Z7        0.01052   0.00040   0.00000   0.02592   0.02424   0.03475
    X8       -1.65696  -0.00163   0.00000   0.00408   0.01549  -1.64147
    Y8       -3.93382  -0.02401   0.00000   0.06607   0.05641  -3.87741
    Z8        0.01958  -0.00327   0.00000  -0.02298  -0.02454  -0.00496
    X9        3.49420  -0.00445   0.00000  -0.05971  -0.05103   3.44317
    Y9       -2.52847   0.00046   0.00000  -0.07640  -0.07529  -2.60376
    Z9        0.02026   0.00515   0.00000   0.03385   0.03560   0.05587
         Item               Value     Threshold  Converged?
 Maximum Force            0.154660     0.000450     NO 
 RMS     Force            0.051355     0.000300     NO 
 Maximum Displacement     0.152152     0.001800     NO 
 RMS     Displacement     0.057525     0.001200     NO 
 Predicted change in Energy=-3.383262D-02
 GradGradGradGradGradGradGradGradGradGradGradGradGradGradGradGradGradGrad

 Leave Link  103 at Tue Dec 15 17:05:36 2015, MaxMem=    33554432 cpu:         0.0
 (Enter /home/Applications/g09/g09/l9999.exe)
 1\1\GINC-DUSTIN-DESKTOP\Force\RAM1-FC\STO-3G\C4H4O1\DUSTIN\15-Dec-2015
 \0\\#P AM1(Input,print) CIS(Singlets,NStates=15) pop(full) force\\AM1-
 Reparam Input\\0,1\C,0.927166,-0.687706,0.012885\C,-0.386786,-1.122751
 ,-0.035244\O,-1.146026,0.030634,0.041487\C,-0.358111,1.123416,0.03171\
 C,0.907536,0.674202,0.00124\H,1.784357,1.330512,-0.024162\H,-0.853376,
 2.062978,0.005566\H,-0.876825,-2.081689,0.010361\H,1.849051,-1.338008,
 0.010722\\Version=ES64L-G09RevD.01\State=1-A\HF=1.0931976\RMSD=5.708e-
 09\RMSF=5.135e-02\Dipole=-2.9628547,0.1113984,0.1525766\PG=C01 [X(C4H4
 O1)]\\@


 "WOULD YOU TELL ME PLEASE, WHICH WAY I OUGHT TO WALK FROM HERE?"
 "THAT DEPENDS A GREAT DEAL ON WHERE YOU WANT TO GO," SAID THE CAT.
 "I DON'T MUCH CARE WHERE -- ", SAID ALICE.
 "THEN IT DOESN'T MATTER WHICH WAY YOU WALK," SAID THE CAT.

                                      -- LEWIS CARROLL
 Job cpu time:       0 days  0 hours  0 minutes  0.7 seconds.
 File lengths (MBytes):  RWF=      7 Int=      0 D2E=      0 Chk=      2 Scr=      1
 Normal termination of Gaussian 09 at Tue Dec 15 17:05:37 2015.
