 Entering Gaussian System, Link 0=g09
 Input=FuranAM1Test_0.com
 Output=FuranAM1Test_0.log
 Initial command:
 /home/Applications/g09/g09/l1.exe "/home/Applications/g09/scratch/Gau-14477.inp" -scrdir="/home/Applications/g09/scratch/"
 Entering Link 1 = /home/Applications/g09/g09/l1.exe PID=     14479.
  
 Copyright (c) 1988,1990,1992,1993,1995,1998,2003,2009,2013,
            Gaussian, Inc.  All Rights Reserved.
  
 This is part of the Gaussian(R) 09 program.  It is based on
 the Gaussian(R) 03 system (copyright 2003, Gaussian, Inc.),
 the Gaussian(R) 98 system (copyright 1998, Gaussian, Inc.),
 the Gaussian(R) 94 system (copyright 1995, Gaussian, Inc.),
 the Gaussian 92(TM) system (copyright 1992, Gaussian, Inc.),
 the Gaussian 90(TM) system (copyright 1990, Gaussian, Inc.),
 the Gaussian 88(TM) system (copyright 1988, Gaussian, Inc.),
 the Gaussian 86(TM) system (copyright 1986, Carnegie Mellon
 University), and the Gaussian 82(TM) system (copyright 1983,
 Carnegie Mellon University). Gaussian is a federally registered
 trademark of Gaussian, Inc.
  
 This software contains proprietary and confidential information,
 including trade secrets, belonging to Gaussian, Inc.
  
 This software is provided under written license and may be
 used, copied, transmitted, or stored only in accord with that
 written license.
  
 The following legend is applicable only to US Government
 contracts under FAR:
  
                    RESTRICTED RIGHTS LEGEND
  
 Use, reproduction and disclosure by the US Government is
 subject to restrictions as set forth in subparagraphs (a)
 and (c) of the Commercial Computer Software - Restricted
 Rights clause in FAR 52.227-19.
  
 Gaussian, Inc.
 340 Quinnipiac St., Bldg. 40, Wallingford CT 06492
  
  
 ---------------------------------------------------------------
 Warning -- This program may not be used in any manner that
 competes with the business of Gaussian, Inc. or will provide
 assistance to any competitor of Gaussian, Inc.  The licensee
 of this program is prohibited from giving any competitor of
 Gaussian, Inc. access to this program.  By using this program,
 the user acknowledges that Gaussian, Inc. is engaged in the
 business of creating and licensing software in the field of
 computational chemistry and represents and warrants to the
 licensee that it is not a competitor of Gaussian, Inc. and that
 it will not use this program in any manner prohibited above.
 ---------------------------------------------------------------
  

 Cite this work as:
 Gaussian 09, Revision D.01,
 M. J. Frisch, G. W. Trucks, H. B. Schlegel, G. E. Scuseria, 
 M. A. Robb, J. R. Cheeseman, G. Scalmani, V. Barone, B. Mennucci, 
 G. A. Petersson, H. Nakatsuji, M. Caricato, X. Li, H. P. Hratchian, 
 A. F. Izmaylov, J. Bloino, G. Zheng, J. L. Sonnenberg, M. Hada, 
 M. Ehara, K. Toyota, R. Fukuda, J. Hasegawa, M. Ishida, T. Nakajima, 
 Y. Honda, O. Kitao, H. Nakai, T. Vreven, J. A. Montgomery, Jr., 
 J. E. Peralta, F. Ogliaro, M. Bearpark, J. J. Heyd, E. Brothers, 
 K. N. Kudin, V. N. Staroverov, T. Keith, R. Kobayashi, J. Normand, 
 K. Raghavachari, A. Rendell, J. C. Burant, S. S. Iyengar, J. Tomasi, 
 M. Cossi, N. Rega, J. M. Millam, M. Klene, J. E. Knox, J. B. Cross, 
 V. Bakken, C. Adamo, J. Jaramillo, R. Gomperts, R. E. Stratmann, 
 O. Yazyev, A. J. Austin, R. Cammi, C. Pomelli, J. W. Ochterski, 
 R. L. Martin, K. Morokuma, V. G. Zakrzewski, G. A. Voth, 
 P. Salvador, J. J. Dannenberg, S. Dapprich, A. D. Daniels, 
 O. Farkas, J. B. Foresman, J. V. Ortiz, J. Cioslowski, 
 and D. J. Fox, Gaussian, Inc., Wallingford CT, 2013.
 
 ******************************************
 Gaussian 09:  ES64L-G09RevD.01 24-Apr-2013
                 6-Oct-2015 
 ******************************************
 ------------------------------------------------------------
 #P AM1(Input,print) CIS(Singlets,NStates=15) pop(full) force
 ------------------------------------------------------------
 1/10=7,30=1,38=1/1,3;
 2/12=2,17=6,18=5,40=1/2;
 3/5=2,16=1,25=1,41=700000,71=1,135=100,136=1/1,2,8,3;
 4/35=1/1;
 5/5=2,35=1,38=5/2;
 8/6=1,10=1,108=15/1;
 9/15=2,41=15,42=1,48=1,49=10/14;
 10/5=4/2;
 6/7=3,18=1/1;
 7/12=6,13=5,29=1/1,2,3,16;
 1/10=7,30=1/3;
 99//99;
 Leave Link    1 at Tue Oct  6 15:41:38 2015, MaxMem=           0 cpu:         0.0
 (Enter /home/Applications/g09/g09/l101.exe)
 -----------------
 AM1-Reparam Input
 -----------------
 Symbolic Z-matrix:
 Charge =  0 Multiplicity = 1
 6                     0.95548  -0.71596   0. 
 6                    -0.34563  -1.09282   0. 
 8                    -1.15731   0.        0. 
 6                    -0.34563   1.09282   0. 
 6                     0.95548   0.71596   0. 
 1                     1.81044   1.36938   0. 
 1                    -0.84031   2.04688   0. 
 1                    -0.84031  -2.04688   0. 
 1                     1.81044  -1.36938   0. 
 
 NAtoms=      9 NQM=        9 NQMF=       0 NMMI=      0 NMMIF=      0
                NMic=       0 NMicF=      0.
                    Isotopes and Nuclear Properties:
 (Nuclear quadrupole moments (NQMom) in fm**2, nuclear magnetic moments (NMagM)
  in nuclear magnetons)

  Atom         1           2           3           4           5           6           7           8           9
 IAtWgt=          12          12          16          12          12           1           1           1           1
 AtmWgt=  12.0000000  12.0000000  15.9949146  12.0000000  12.0000000   1.0078250   1.0078250   1.0078250   1.0078250
 NucSpn=           0           0           0           0           0           1           1           1           1
 AtZEff=   0.0000000   0.0000000   0.0000000   0.0000000   0.0000000   0.0000000   0.0000000   0.0000000   0.0000000
 NQMom=    0.0000000   0.0000000   0.0000000   0.0000000   0.0000000   0.0000000   0.0000000   0.0000000   0.0000000
 NMagM=    0.0000000   0.0000000   0.0000000   0.0000000   0.0000000   2.7928460   2.7928460   2.7928460   2.7928460
 AtZNuc=   6.0000000   6.0000000   8.0000000   6.0000000   6.0000000   1.0000000   1.0000000   1.0000000   1.0000000
 Leave Link  101 at Tue Oct  6 15:41:39 2015, MaxMem=    33554432 cpu:         0.0
 (Enter /home/Applications/g09/g09/l103.exe)

 GradGradGradGradGradGradGradGradGradGradGradGradGradGradGradGradGradGrad
 Berny optimization.
 Initialization pass.
 Trust Radius=3.00D-01 FncErr=1.00D-07 GrdErr=1.00D-07
 Number of steps in this run=      2 maximum allowed number of steps=      2.
 GradGradGradGradGradGradGradGradGradGradGradGradGradGradGradGradGradGrad

 Leave Link  103 at Tue Oct  6 15:41:39 2015, MaxMem=    33554432 cpu:         0.0
 (Enter /home/Applications/g09/g09/l202.exe)
                          Input orientation:                          
 ---------------------------------------------------------------------
 Center     Atomic      Atomic             Coordinates (Angstroms)
 Number     Number       Type             X           Y           Z
 ---------------------------------------------------------------------
      1          6           0        0.955475   -0.715963    0.000000
      2          6           0       -0.345627   -1.092818    0.000000
      3          8           0       -1.157305    0.000000    0.000000
      4          6           0       -0.345627    1.092818    0.000000
      5          6           0        0.955475    0.715963    0.000000
      6          1           0        1.810438    1.369382    0.000000
      7          1           0       -0.840307    2.046884    0.000000
      8          1           0       -0.840307   -2.046884    0.000000
      9          1           0        1.810438   -1.369382    0.000000
 ---------------------------------------------------------------------
                    Distance matrix (angstroms):
                    1          2          3          4          5
     1  C    0.000000
     2  C    1.354580   0.000000
     3  O    2.230794   1.361276   0.000000
     4  C    2.228128   2.185636   1.361276   0.000000
     5  C    1.431926   2.228128   2.230794   1.354580   0.000000
     6  H    2.253802   3.272773   3.268441   2.173730   1.076066
     7  H    3.295172   3.178433   2.071285   1.074686   2.235214
     8  H    2.235214   1.074686   2.071285   3.178433   3.295172
     9  H    1.076066   2.173730   3.268441   3.272773   2.253802
                    6          7          8          9
     6  H    0.000000
     7  H    2.735957   0.000000
     8  H    4.324040   4.093768   0.000000
     9  H    2.738764   4.324040   2.735957   0.000000
 Stoichiometry    C4H4O
 Framework group  C2V[C2(O),SGV(C4H4)]
 Deg. of freedom     8
 Full point group                 C2V     NOp   4
 Largest Abelian subgroup         C2V     NOp   4
 Largest concise Abelian subgroup C2      NOp   2
                         Standard orientation:                         
 ---------------------------------------------------------------------
 Center     Atomic      Atomic             Coordinates (Angstroms)
 Number     Number       Type             X           Y           Z
 ---------------------------------------------------------------------
      1          6           0        0.000000    0.715963   -0.955475
      2          6           0        0.000000    1.092818    0.345627
      3          8           0        0.000000    0.000000    1.157305
      4          6           0        0.000000   -1.092818    0.345627
      5          6           0        0.000000   -0.715963   -0.955475
      6          1           0        0.000000   -1.369382   -1.810438
      7          1           0        0.000000   -2.046884    0.840307
      8          1           0        0.000000    2.046884    0.840307
      9          1           0        0.000000    1.369382   -1.810438
 ---------------------------------------------------------------------
 Rotational constants (GHZ):      9.5015164      9.3284592      4.7070963
 Leave Link  202 at Tue Oct  6 15:41:39 2015, MaxMem=    33554432 cpu:         0.0
 (Enter /home/Applications/g09/g09/l301.exe)

 Semi-emprical parameters in input format:
 Method=8 CoreType=1 PeptideFC=0.0114505045 RIJScale=0.5291772086
 ****
 H       
 PQN=1 NValence=1 F0ss=0.4910802479 ZetaOverlap=1.1716084924 U=-0.4158349538
 Beta=-0.2218027015 CoreKO=1.0700961987 KON=0,0,0,1.0589197790 KON=1,0,1,1.0235463973
 KON=0,1,1,1.0530114284 KON=2,1,1,1.0583964043 EISol=-0.4188110042 EHeat=0.0830298228
 Alpha=1.5252601686
 GCore=0.0086720163,1.4301527614,2.2676713595
 GCore=0.0003372405,1.4275218050,3.4015070392
 GCore=-0.0012891467,0.5674994555,3.9684248791
 ****
 C       
 PQN=2,2 NValence=4 F0ss=0.4544161778 F0sp=0.4376528444 F0pp=0.3672039097 F2pp=0.1990972175
 G1sp=0.2763840092
 ZetaOverlap=1.7999833390,1.6458107732
 U=-1.9120180828,-1.4557965594
 Beta=-0.5959868680,-0.2914914995 DDN=0,1,0.8601398383 DDN=1,1,0.7268015000
 CoreKO=1.0956204192 KON=0,0,0,1.0734248343 KON=1,0,1,0.8059902852 KON=0,1,1,1.0594821711
 KON=2,1,1,0.7783928119 EISol=-4.4398989268 EHeat=0.2723305520 Alpha=1.4288981777
 DipHyp=1.7201807075
 GCore=0.0007903914,1.4534868302,2.9019268393
 GCore=0.0032506043,1.4403750411,3.7047921174
 GCore=-0.0013844768,1.4098691996,3.8830527880
 GCore=-0.0000841890,1.4121890676,4.6114749156
 ****
 O       
 PQN=2,2 NValence=6 F0ss=0.5558840537 F0sp=0.5321302318 F0pp=0.4958708974 F2pp=0.2241807199
 G1sp=0.4257938433
 ZetaOverlap=3.1873394913,2.5240390000
 U=-3.5951865036,-2.8760896690
 Beta=-1.0757546603,-1.1957845166 DDN=0,1,0.4935393666 DDN=1,1,0.5182723685
 CoreKO=0.8537043927 KON=0,0,0,0.8822957477 KON=1,0,1,0.5019543089 KON=0,1,1,0.8395870333
 KON=2,1,1,0.5698124379 EISol=-11.6164441184 EHeat=0.0949133088 Alpha=2.5144245018
 DipHyp=0.9870219456
 GCore=0.0195117322,1.4001425905,1.6023328031
 GCore=0.0058337642,1.8606393420,2.7307884326
 ****
 
 Standard basis: VSTO-6G (5D, 7F)
 Ernie: Thresh=  0.10000D-02 Tol=  0.10000D-05 Strict=F.
  NNHCO=     0 NNPyr=     0 NCTC=     0               EPep=         0.000000000
    EC=        69.123186158  ECS=         1.727016152   EG=         0.363914934
   EHC=         0.000000000  EAt=       -31.051283842  AtH=         1.516354808
 EPDDG=         0.000000000  ECC=        71.214117244 EAtT=        32.567638650
 There are    10 symmetry adapted cartesian basis functions of A1  symmetry.
 There are     2 symmetry adapted cartesian basis functions of A2  symmetry.
 There are     3 symmetry adapted cartesian basis functions of B1  symmetry.
 There are     9 symmetry adapted cartesian basis functions of B2  symmetry.
 There are    10 symmetry adapted basis functions of A1  symmetry.
 There are     2 symmetry adapted basis functions of A2  symmetry.
 There are     3 symmetry adapted basis functions of B1  symmetry.
 There are     9 symmetry adapted basis functions of B2  symmetry.
    24 basis functions,   144 primitive gaussians,    24 cartesian basis functions
    13 alpha electrons       13 beta electrons
       nuclear repulsion energy       103.7817558948 Hartrees.
 IExCor=    0 DFT=F Ex=HF Corr=None ExCW=0 ScaHFX=  1.000000
 ScaDFX=  1.000000  1.000000  1.000000  1.000000 ScalE2=  1.000000  1.000000
 IRadAn=      0 IRanWt=     -1 IRanGd=            0 ICorTp=0 IEmpDi=  4
 Integral buffers will be    131072 words long.
 Regular integral format.
 Two-electron integral symmetry is turned off.
 Leave Link  301 at Tue Oct  6 15:41:39 2015, MaxMem=    33554432 cpu:         0.0
 (Enter /home/Applications/g09/g09/l302.exe)
 Do NDO integrals.
 NPDir=0 NMtPBC=     1 NCelOv=     1 NCel=       1 NClECP=     1 NCelD=      1
         NCelK=      1 NCelE2=     1 NClLst=     1 CellRange=     0.0.
 One-electron integrals computed using PRISM.
 NBasis=    24 RedAO= T EigKep=  1.00D+00  NBF=    10     2     3     9
 NBsUse=    24 1.00D-06 EigRej= -1.00D+00 NBFU=    10     2     3     9
 Leave Link  302 at Tue Oct  6 15:41:39 2015, MaxMem=    33554432 cpu:         0.0
 (Enter /home/Applications/g09/g09/l308.exe)
 Leave Link  308 at Tue Oct  6 15:41:39 2015, MaxMem=    33554432 cpu:         0.0
 (Enter /home/Applications/g09/g09/l303.exe)
 DipDrv:  MaxL=1.
 Leave Link  303 at Tue Oct  6 15:41:39 2015, MaxMem=    33554432 cpu:         0.0
 (Enter /home/Applications/g09/g09/l401.exe)
 Simple Huckel Guess.
 JPrj=0 DoOrth=F DoCkMO=F.
 Initial guess orbital symmetries:
       Occupied  (A1) (A1) (B2) (B2) (A1) (A1) (B1) (B2) (A1) (B2)
                 (A1) (B1) (A2)
       Virtual   (B1) (A2) (B2) (B2) (A1) (A1) (B2) (B2) (A1) (A1)
                 (B2)
 The electronic state of the initial guess is 1-A1.
 Leave Link  401 at Tue Oct  6 15:41:39 2015, MaxMem=    33554432 cpu:         0.0
 (Enter /home/Applications/g09/g09/l502.exe)
 Closed shell SCF:
 Using DIIS extrapolation, IDIIS=  1040.
 Overlap will be assumed to be unity.
 Two-electron integral symmetry not used.
 Keep J ints in memory in canonical form, NReq=888094.
 IVT=       79487 IEndB=       79487 NGot=    33554432 MDV=    33473461
 LenX=    33473461 LenY=    33472444
 Requested convergence on RMS density matrix=1.00D-08 within 128 cycles.
 Requested convergence on MAX density matrix=1.00D-06.
 Requested convergence on             energy=1.00D-06.
 No special actions if energy rises.
 FoFCou: FMM=F IPFlag=           0 FMFlag=           0 FMFlg1=           0
         NFxFlg=           0 DoJE=F BraDBF=F KetDBF=F FulRan=T
         wScrn=  0.000000 ICntrl=     600 IOpCl=  2 I1Cent=           0 NGrid=           0
         NMat0=    1 NMatS0=     54 NMatT0=    0 NMatD0=    1 NMtDS0=    0 NMtDT0=    0
 Symmetry not used in FoFCou.

 Cycle   1  Pass 1  IDiag  1:
 E=-0.120798921639249E-01
 DIIS: error= 5.68D-02 at cycle   1 NSaved=   1.
 NSaved= 1 IEnMin= 1 EnMin=-0.120798921639249E-01 IErMin= 1 ErrMin= 5.68D-02
 ErrMax= 5.68D-02  0.00D+00 EMaxC= 1.00D-01 BMatC= 1.01D-01 BMatP= 1.01D-01
 IDIUse=3 WtCom= 4.32D-01 WtEn= 5.68D-01
 Coeff-Com:  0.100D+01
 Coeff-En:   0.100D+01
 Coeff:      0.100D+01
 GapD=    2.000 DampG=2.000 DampE=0.500 DampFc=1.0000 IDamp=-1.
 RMSDP=1.91D-02 MaxDP=1.66D-01              OVMax= 0.00D+00

 Cycle   2  Pass 1  IDiag  1:
 E=-0.276560752926386     Delta-E=       -0.264480860762 Rises=F Damp=F
 DIIS: error= 2.31D-02 at cycle   2 NSaved=   2.
 NSaved= 2 IEnMin= 2 EnMin=-0.276560752926386     IErMin= 2 ErrMin= 2.31D-02
 ErrMax= 2.31D-02  0.00D+00 EMaxC= 1.00D-01 BMatC= 9.80D-03 BMatP= 1.01D-01
 IDIUse=3 WtCom= 7.69D-01 WtEn= 2.31D-01
 Coeff-Com: -0.382D+00 0.138D+01
 Coeff-En:   0.000D+00 0.100D+01
 Coeff:     -0.294D+00 0.129D+01
 RMSDP=8.48D-03 MaxDP=8.76D-02 DE=-2.64D-01 OVMax= 0.00D+00

 Cycle   3  Pass 1  IDiag  1:
 E=-0.309301474119621     Delta-E=       -0.032740721193 Rises=F Damp=F
 DIIS: error= 3.88D-03 at cycle   3 NSaved=   3.
 NSaved= 3 IEnMin= 3 EnMin=-0.309301474119621     IErMin= 3 ErrMin= 3.88D-03
 ErrMax= 3.88D-03  0.00D+00 EMaxC= 1.00D-01 BMatC= 4.77D-04 BMatP= 9.80D-03
 IDIUse=3 WtCom= 9.61D-01 WtEn= 3.88D-02
 Coeff-Com:  0.194D+00-0.800D+00 0.161D+01
 Coeff-En:   0.000D+00 0.000D+00 0.100D+01
 Coeff:      0.186D+00-0.769D+00 0.158D+01
 RMSDP=2.97D-03 MaxDP=3.64D-02 DE=-3.27D-02 OVMax= 0.00D+00

 Cycle   4  Pass 1  IDiag  3:
 E=-0.311894604292789     Delta-E=       -0.002593130173 Rises=F Damp=F
 DIIS: error= 1.06D-03 at cycle   4 NSaved=   4.
 NSaved= 4 IEnMin= 4 EnMin=-0.311894604292789     IErMin= 4 ErrMin= 1.06D-03
 ErrMax= 1.06D-03  0.00D+00 EMaxC= 1.00D-01 BMatC= 2.58D-05 BMatP= 4.77D-04
 IDIUse=3 WtCom= 9.89D-01 WtEn= 1.06D-02
 Coeff-Com:  0.181D-01-0.783D-01-0.657D-01 0.113D+01
 Coeff-En:   0.000D+00 0.000D+00 0.000D+00 0.100D+01
 Coeff:      0.179D-01-0.775D-01-0.650D-01 0.112D+01
 Fock symm off for IB=2 I1=    1 I=   11 J=    6 Cut=1.00D-07 Err=2.36D-03
 Fock matrix is not symmetric: symmetry in diagonalization turned off.
 Gap=     0.398 Goal=   None    Shift=    0.000
 RMSDP=7.04D-04 MaxDP=9.37D-03 DE=-2.59D-03 OVMax= 9.53D-03

 Cycle   5  Pass 1  IDiag  3:
 E=-0.312030591450309     Delta-E=       -0.000135987158 Rises=F Damp=F
 DIIS: error= 1.71D-04 at cycle   5 NSaved=   5.
 NSaved= 5 IEnMin= 5 EnMin=-0.312030591450309     IErMin= 5 ErrMin= 1.71D-04
 ErrMax= 1.71D-04  0.00D+00 EMaxC= 1.00D-01 BMatC= 1.41D-06 BMatP= 2.58D-05
 IDIUse=3 WtCom= 9.98D-01 WtEn= 1.71D-03
 Coeff-Com: -0.920D-02 0.406D-01-0.175D-01-0.423D+00 0.141D+01
 Coeff-En:   0.000D+00 0.000D+00 0.000D+00 0.000D+00 0.100D+01
 Coeff:     -0.918D-02 0.405D-01-0.175D-01-0.422D+00 0.141D+01
 Gap=     0.398 Goal=   None    Shift=    0.000
 RMSDP=1.80D-04 MaxDP=1.57D-03 DE=-1.36D-04 OVMax= 1.72D-03

 Cycle   6  Pass 1  IDiag  3:
 E=-0.312038784160990     Delta-E=       -0.000008192711 Rises=F Damp=F
 DIIS: error= 4.75D-05 at cycle   6 NSaved=   6.
 NSaved= 6 IEnMin= 6 EnMin=-0.312038784160990     IErMin= 6 ErrMin= 4.75D-05
 ErrMax= 4.75D-05  0.00D+00 EMaxC= 1.00D-01 BMatC= 8.57D-08 BMatP= 1.41D-06
 IDIUse=1 WtCom= 1.00D+00 WtEn= 0.00D+00
 Coeff-Com:  0.144D-02-0.597D-02 0.419D-02 0.754D-01-0.439D+00 0.136D+01
 Coeff:      0.144D-02-0.597D-02 0.419D-02 0.754D-01-0.439D+00 0.136D+01
 Gap=     0.398 Goal=   None    Shift=    0.000
 RMSDP=5.06D-05 MaxDP=3.55D-04 DE=-8.19D-06 OVMax= 6.99D-04

 Cycle   7  Pass 1  IDiag  3:
 E=-0.312039381636751     Delta-E=       -0.000000597476 Rises=F Damp=F
 DIIS: error= 2.19D-05 at cycle   7 NSaved=   7.
 NSaved= 7 IEnMin= 7 EnMin=-0.312039381636751     IErMin= 7 ErrMin= 2.19D-05
 ErrMax= 2.19D-05  0.00D+00 EMaxC= 1.00D-01 BMatC= 7.56D-09 BMatP= 8.57D-08
 IDIUse=1 WtCom= 1.00D+00 WtEn= 0.00D+00
 Coeff-Com: -0.153D-03 0.242D-03 0.642D-03-0.174D-01 0.128D+00-0.637D+00
 Coeff-Com:  0.153D+01
 Coeff:     -0.153D-03 0.242D-03 0.642D-03-0.174D-01 0.128D+00-0.637D+00
 Coeff:      0.153D+01
 Gap=     0.398 Goal=   None    Shift=    0.000
 RMSDP=1.86D-05 MaxDP=1.67D-04 DE=-5.97D-07 OVMax= 2.38D-04

 Cycle   8  Pass 1  IDiag  3:
 E=-0.312039446313364     Delta-E=       -0.000000064677 Rises=F Damp=F
 DIIS: error= 6.49D-06 at cycle   8 NSaved=   8.
 NSaved= 8 IEnMin= 8 EnMin=-0.312039446313364     IErMin= 8 ErrMin= 6.49D-06
 ErrMax= 6.49D-06  0.00D+00 EMaxC= 1.00D-01 BMatC= 6.07D-10 BMatP= 7.56D-09
 IDIUse=1 WtCom= 1.00D+00 WtEn= 0.00D+00
 Coeff-Com:  0.179D-04 0.228D-03-0.128D-02 0.118D-01-0.775D-01 0.404D+00
 Coeff-Com: -0.116D+01 0.182D+01
 Coeff:      0.179D-04 0.228D-03-0.128D-02 0.118D-01-0.775D-01 0.404D+00
 Coeff:     -0.116D+01 0.182D+01
 Gap=     0.398 Goal=   None    Shift=    0.000
 RMSDP=6.74D-06 MaxDP=6.39D-05 DE=-6.47D-08 OVMax= 8.66D-05

 Cycle   9  Pass 1  IDiag  3:
 E=-0.312039452400242     Delta-E=       -0.000000006087 Rises=F Damp=F
 DIIS: error= 7.40D-07 at cycle   9 NSaved=   9.
 NSaved= 9 IEnMin= 9 EnMin=-0.312039452400242     IErMin= 9 ErrMin= 7.40D-07
 ErrMax= 7.40D-07  0.00D+00 EMaxC= 1.00D-01 BMatC= 2.21D-11 BMatP= 6.07D-10
 IDIUse=1 WtCom= 1.00D+00 WtEn= 0.00D+00
 Coeff-Com:  0.274D-04-0.254D-03 0.741D-03-0.444D-02 0.291D-01-0.163D+00
 Coeff-Com:  0.495D+00-0.908D+00 0.155D+01
 Coeff:      0.274D-04-0.254D-03 0.741D-03-0.444D-02 0.291D-01-0.163D+00
 Coeff:      0.495D+00-0.908D+00 0.155D+01
 Gap=     0.398 Goal=   None    Shift=    0.000
 RMSDP=1.02D-06 MaxDP=8.44D-06 DE=-6.09D-09 OVMax= 1.31D-05

 Cycle  10  Pass 1  IDiag  3:
 E=-0.312039452554046     Delta-E=       -0.000000000154 Rises=F Damp=F
 DIIS: error= 9.10D-08 at cycle  10 NSaved=  10.
 NSaved=10 IEnMin=10 EnMin=-0.312039452554046     IErMin=10 ErrMin= 9.10D-08
 ErrMax= 9.10D-08  0.00D+00 EMaxC= 1.00D-01 BMatC= 5.37D-13 BMatP= 2.21D-11
 IDIUse=1 WtCom= 1.00D+00 WtEn= 0.00D+00
 Coeff-Com: -0.117D-04 0.937D-04-0.246D-03 0.132D-02-0.848D-02 0.488D-01
 Coeff-Com: -0.151D+00 0.284D+00-0.572D+00 0.140D+01
 Coeff:     -0.117D-04 0.937D-04-0.246D-03 0.132D-02-0.848D-02 0.488D-01
 Coeff:     -0.151D+00 0.284D+00-0.572D+00 0.140D+01
 Gap=     0.398 Goal=   None    Shift=    0.000
 RMSDP=1.01D-07 MaxDP=4.95D-07 DE=-1.54D-10 OVMax= 7.41D-07

 Cycle  11  Pass 1  IDiag  3:
 E=-0.312039452556164     Delta-E=       -0.000000000002 Rises=F Damp=F
 DIIS: error= 1.96D-08 at cycle  11 NSaved=  11.
 NSaved=11 IEnMin=11 EnMin=-0.312039452556164     IErMin=11 ErrMin= 1.96D-08
 ErrMax= 1.96D-08  0.00D+00 EMaxC= 1.00D-01 BMatC= 1.51D-14 BMatP= 5.37D-13
 IDIUse=1 WtCom= 1.00D+00 WtEn= 0.00D+00
 Coeff-Com:  0.267D-05-0.216D-04 0.560D-04-0.304D-03 0.189D-02-0.109D-01
 Coeff-Com:  0.335D-01-0.627D-01 0.132D+00-0.425D+00 0.133D+01
 Coeff:      0.267D-05-0.216D-04 0.560D-04-0.304D-03 0.189D-02-0.109D-01
 Coeff:      0.335D-01-0.627D-01 0.132D+00-0.425D+00 0.133D+01
 Gap=     0.398 Goal=   None    Shift=    0.000
 RMSDP=1.56D-08 MaxDP=1.04D-07 DE=-2.12D-12 OVMax= 9.67D-08

 Cycle  12  Pass 1  IDiag  3:
 E=-0.312039452556363     Delta-E=        0.000000000000 Rises=F Damp=F
 DIIS: error= 4.64D-09 at cycle  12 NSaved=  12.
 NSaved=12 IEnMin=12 EnMin=-0.312039452556363     IErMin=12 ErrMin= 4.64D-09
 ErrMax= 4.64D-09  0.00D+00 EMaxC= 1.00D-01 BMatC= 6.90D-16 BMatP= 1.51D-14
 IDIUse=1 WtCom= 1.00D+00 WtEn= 0.00D+00
 Coeff-Com: -0.315D-06 0.269D-05-0.599D-05 0.329D-04-0.203D-03 0.123D-02
 Coeff-Com: -0.380D-02 0.695D-02-0.150D-01 0.677D-01-0.398D+00 0.134D+01
 Coeff:     -0.315D-06 0.269D-05-0.599D-05 0.329D-04-0.203D-03 0.123D-02
 Coeff:     -0.380D-02 0.695D-02-0.150D-01 0.677D-01-0.398D+00 0.134D+01
 Gap=     0.398 Goal=   None    Shift=    0.000
 RMSDP=3.49D-09 MaxDP=2.49D-08 DE=-1.99D-13 OVMax= 2.39D-08

 Cycle  13  Pass 2  IDiag  1:
 SCF Done:  E(RAM1) = -0.312039452556     A.U. after   13 cycles
            NFock= 12  Conv=0.35D-08     -V/T= 0.9809
 KE=-1.636934925130D+01 PE=-1.726493303565D+02 EE= 8.492488426040D+01
 Leave Link  502 at Tue Oct  6 15:41:39 2015, MaxMem=    33554432 cpu:         0.0
 (Enter /home/Applications/g09/g09/l801.exe)
 Range of M.O.s used for correlation:     1    24
 NBasis=    24 NAE=    13 NBE=    13 NFC=     0 NFV=     0
 NROrb=     24 NOA=    13 NOB=    13 NVA=    11 NVB=    11
 Leave Link  801 at Tue Oct  6 15:41:39 2015, MaxMem=    33554432 cpu:         0.0
 (Enter /home/Applications/g09/g09/l914.exe)
 RHF ground state
 MDV=    33554432 DFT=F DoStab=F Mixed=F DoRPA=F DoScal=F NonHer=F
 Making orbital integer symmetry assigments:
 Orbital symmetries:
       Occupied  (A1) (A1) (B2) (B2) (A1) (A1) (B1) (B2) (A1) (B2)
                 (A1) (B1) (A2)
       Virtual   (B1) (A2) (A1) (B2) (A1) (B2) (A1) (B2) (A1) (B2)
                 (B2)
    60 initial guesses have been made.
 Convergence on wavefunction:    0.000001000000000
 Davidson Disk Diagonalization:  ConvIn= 1.00D-06 SkipCon=T Conv= 1.00D-06.
 Max sub-space:   240 roots to seek:    60 dimension of matrix:          286
 Iteration     1 Dimension    60 NMult     0 NNew     60
 CISAX will form    60 AO SS matrices at one time.
 NMat=    60 NSing=    60 JSym2X= 0.
 FoFJK:  IHMeth= 8 ICntrl=       0 DoSepK=F KAlg= 0 I1Cent=   0 FoldK=F
 IRaf=         1 NMat= 120 IRICut=       1 DoRegI=T DoRafI=F ISym2E= 0.
 FoFCou: FMM=F IPFlag=           0 FMFlag=      100000 FMFlg1=           0
         NFxFlg=           0 DoJE=F BraDBF=F KetDBF=F FulRan=T
         wScrn=  0.000000 ICntrl=       0 IOpCl=  0 I1Cent=           0 NGrid=           0
         NMat0=  120 NMatS0=     60 NMatT0=    0 NMatD0=  120 NMtDS0=    0 NMtDT0=    0
 Symmetry not used in FoFCou.
 New state      3 was old state      5
 New state      4 was old state      6
 New state      5 was old state      3
 New state      6 was old state      4
 New state      8 was old state     12
 New state      9 was old state     20
 New state     11 was old state      8
 New state     12 was old state     13
 New state     13 was old state     25
 New state     14 was old state     15
 New state     15 was old state     14
 Excitation Energies [eV] at current iteration:
 Root      1 :     4.788137655905982
 Root      2 :     5.400207580598949
 Root      3 :     5.722942796165962
 Root      4 :     6.530950325047752
 Root      5 :     6.751378295043944
 Root      6 :     6.777337390486228
 Root      7 :     7.289417695235595
 Root      8 :     7.577119311244526
 Root      9 :     7.632577037966626
 Root     10 :     7.873287832634541
 Root     11 :     7.937369766978829
 Root     12 :     8.096422638926308
 Root     13 :     8.185522815733098
 Root     14 :     8.188324031344878
 Root     15 :     8.632024871484003
 Root     16 :     8.661809467380378
 Root     17 :     8.878180839430245
 Root     18 :     9.095044074079823
 Root     19 :     9.186941393426141
 Root     20 :     9.444747758389763
 Root     21 :     9.510922239895020
 Root     22 :     9.576964245402301
 Root     23 :     9.647783785961932
 Root     24 :     9.867880566507228
 Root     25 :    10.038768778493050
 Root     26 :    10.075739109398700
 Root     27 :    10.295227953860110
 Root     28 :    10.351015027720640
 Root     29 :    10.478256633703780
 Root     30 :    10.571918351195070
 Root     31 :    10.584364178136800
 Root     32 :    10.842026867958860
 Root     33 :    10.908205780712290
 Root     34 :    10.973722435822990
 Root     35 :    11.188791020132020
 Root     36 :    11.207868302471300
 Root     37 :    11.366385366945370
 Root     38 :    11.525081822973990
 Root     39 :    11.572327209977560
 Root     40 :    11.655873766179220
 Root     41 :    11.881271720832640
 Root     42 :    12.064968421027390
 Root     43 :    12.125808168899480
 Root     44 :    12.299400130326120
 Root     45 :    12.528346152753330
 Root     46 :    12.681006300016690
 Root     47 :    12.702758253368530
 Root     48 :    12.797572431224480
 Root     49 :    13.067794103112670
 Root     50 :    13.082662642168420
 Root     51 :    13.286811401001540
 Root     52 :    13.331294912087560
 Root     53 :    13.474402469607100
 Root     54 :    13.729055203039360
 Root     55 :    14.014522373547940
 Root     56 :    14.088671865500270
 Root     57 :    14.253630603567280
 Root     58 :    14.431908857180230
 Root     59 :    14.591899871648970
 Root     60 :    14.936416206269270
 Iteration     2 Dimension   111 NMult    60 NNew     51
 CISAX will form    51 AO SS matrices at one time.
 NMat=    51 NSing=    51 JSym2X= 0.
 Root      1 not converged, maximum delta is    0.036595697690177
 Root      2 not converged, maximum delta is    0.015419637833925
 Root      3 not converged, maximum delta is    0.037978676423188
 Root      4 not converged, maximum delta is    0.063768681952957
 Root      5 not converged, maximum delta is    0.049452566182008
 Root      6 not converged, maximum delta is    0.031048915006871
 Root      7 not converged, maximum delta is    0.050601541398209
 New state      8 was old state      9
 Root      8 not converged, maximum delta is    0.057151015857259
 New state      9 was old state      8
 Root      9 not converged, maximum delta is    0.050543869219828
 Root     10 not converged, maximum delta is    0.037092153759538
 Root     11 not converged, maximum delta is    0.077951602234449
 Root     12 not converged, maximum delta is    0.083265726219887
 Root     13 not converged, maximum delta is    0.059060874856057
 Root     14 not converged, maximum delta is    0.070705659999329
 Root     15 not converged, maximum delta is    0.069249241742566
 Excitation Energies [eV] at current iteration:
 Root      1 :     4.719728638045775   Change is   -0.068409017860206
 Root      2 :     5.387508172355113   Change is   -0.012699408243836
 Root      3 :     5.687670149521280   Change is   -0.035272646644682
 Root      4 :     6.433583036538798   Change is   -0.097367288508953
 Root      5 :     6.587048399251011   Change is   -0.164329895792932
 Root      6 :     6.716042610559432   Change is   -0.061294779926796
 Root      7 :     7.221633478927169   Change is   -0.067784216308426
 Root      8 :     7.491040802015380   Change is   -0.141536235951245
 Root      9 :     7.513670813033969   Change is   -0.063448498210557
 Root     10 :     7.764633106345854   Change is   -0.108654726288688
 Root     11 :     7.872878239040948   Change is   -0.064491527937881
 Root     12 :     7.979743503932929   Change is   -0.116679134993378
 Root     13 :     8.100618960161245   Change is   -0.084903855571853
 Root     14 :     8.108578581386968   Change is   -0.079745449957910
 Root     15 :     8.486882181580986   Change is   -0.145142689903016
 Root     16 :     8.614286614137191   Change is   -0.047522853243188
 Root     17 :     8.837226791847804   Change is   -0.040954047582440
 Root     18 :     9.058528505262428   Change is   -0.128412888163713
 Root     19 :     9.069341574518258   Change is   -0.025702499561564
 Root     20 :     9.094042864800848   Change is   -0.350704893588914
 Root     21 :     9.288670611075466   Change is   -0.359113174886468
 Root     22 :     9.426256523237036   Change is   -0.150707722165265
 Root     23 :     9.426318236725145   Change is   -0.084604003169875
 Root     24 :     9.622667052519370   Change is   -0.416101725973684
 Root     25 :     9.843692382169044   Change is   -0.024188184338184
 Root     26 :     9.888623209055270   Change is   -0.462391818665372
 Root     27 :     9.951127865918663   Change is   -0.124611243480037
 Root     28 :    10.209513872165440   Change is   -0.085714081694665
 Root     29 :    10.309389414829000   Change is   -0.664333020993994
 Root     30 :    10.391316527338440   Change is   -0.193047650798352
 Root     31 :    10.391551872316010   Change is   -1.133529950657981
 Root     32 :    10.413043380179190   Change is   -0.065213253524596
 Root     33 :    10.449794640772920   Change is   -0.122123710422151
 Root     34 :    10.683262114722430   Change is   -0.505528905409591
 Root     35 :    10.710669507086690   Change is   -0.945204259092530
 Root     36 :    10.731606449851950   Change is   -0.176599330860341
 Root     37 :    10.805443846867120   Change is   -0.036583021091743
 Root     38 :    10.807962443962410   Change is   -0.558422922982957
 Root     39 :    10.881259547065140   Change is   -0.691067662912420
 Root     40 :    11.160480777108820   Change is   -0.047387525362477
 Root     41 :    11.552764731416170   Change is   -0.573043437483311
 Root     42 :    11.574718163965840   Change is   -0.490250257061547
 Root     43 :    11.643186941587110   Change is   -0.238084779245529
 Root     44 :    11.800588215322330   Change is   -0.902170038046205
 Root     45 :    11.998745032943140   Change is   -0.300655097382975
 Root     46 :    12.414203658293160   Change is   -0.114142494460168
 Root     47 :    12.485145518408310   Change is   -0.195860781608376
 Root     48 :    12.629341513837540   Change is   -0.438452589275129
 Root     49 :    12.734293283614790   Change is   -0.063279147609695
 Root     50 :    12.839950236322710   Change is   -0.242712405845702
 Root     51 :    12.949951853751570   Change is   -0.336859547249964
 Root     52 :    13.100179445438570   Change is   -0.231115466648990
 Root     53 :    13.351627132439360   Change is   -0.122775337167745
 Root     54 :    13.662615814184460   Change is   -0.426056051315806
 Root     55 :    13.671123551990200   Change is   -0.057931651049152
 Root     56 :    13.727557111259940   Change is   -0.286965262288004
 Root     57 :    13.975689917945090   Change is   -0.616209953703879
 Root     58 :    14.005676242308400   Change is   -0.426232614871823
 Root     59 :    14.037811926265820   Change is   -0.215818677301460
 Root     60 :    14.321506106315710
 Iteration     3 Dimension   115 NMult   111 NNew      4
 CISAX will form     4 AO SS matrices at one time.
 NMat=     4 NSing=     4 JSym2X= 0.
 Root      1 not converged, maximum delta is    0.003503816275208
 Root      2 not converged, maximum delta is    0.000438377449539
 Root      3 has converged.
 Root      4 has converged.
 Root      5 not converged, maximum delta is    0.003880730881370
 Root      6 not converged, maximum delta is    0.001706318630849
 Root      7 has converged.
 Root      8 has converged.
 Root      9 has converged.
 Root     10 has converged.
 Root     11 has converged.
 Root     12 has converged.
 Root     13 has converged.
 Root     14 has converged.
 Root     15 has converged.
 Excitation Energies [eV] at current iteration:
 Root      1 :     4.718974927390679   Change is   -0.000753710655096
 Root      2 :     5.387451782986547   Change is   -0.000056389368566
 Root      3 :     5.687670149521280   Change is    0.000000000000000
 Root      4 :     6.433583036538787   Change is   -0.000000000000012
 Root      5 :     6.585840874547462   Change is   -0.001207524703549
 Root      6 :     6.715696715800780   Change is   -0.000345894758652
 Root      7 :     7.221633478927175   Change is    0.000000000000006
 Root      8 :     7.491040802015368   Change is   -0.000000000000012
 Root      9 :     7.513670813033987   Change is    0.000000000000018
 Root     10 :     7.764633106345860   Change is    0.000000000000006
 Root     11 :     7.872878239040960   Change is    0.000000000000012
 Root     12 :     7.979743503932941   Change is    0.000000000000012
 Root     13 :     8.100618960161258   Change is    0.000000000000012
 Root     14 :     8.108578581386963   Change is   -0.000000000000006
 Root     15 :     8.486882181580981   Change is   -0.000000000000006
 Iteration     4 Dimension   119 NMult   115 NNew      4
 CISAX will form     4 AO SS matrices at one time.
 NMat=     4 NSing=     4 JSym2X= 0.
 Root      1 not converged, maximum delta is    0.000142853855907
 Root      2 not converged, maximum delta is    0.000037600614090
 Root      3 has converged.
 Root      4 has converged.
 Root      5 not converged, maximum delta is    0.000686309298534
 Root      6 not converged, maximum delta is    0.000168027086015
 Root      7 has converged.
 Root      8 has converged.
 Root      9 has converged.
 Root     10 has converged.
 Root     11 has converged.
 Root     12 has converged.
 Root     13 has converged.
 Root     14 has converged.
 Root     15 has converged.
 Excitation Energies [eV] at current iteration:
 Root      1 :     4.718970129302794   Change is   -0.000004798087885
 Root      2 :     5.387451471424629   Change is   -0.000000311561918
 Root      3 :     5.687670149521280   Change is    0.000000000000000
 Root      4 :     6.433583036538757   Change is   -0.000000000000030
 Root      5 :     6.585811893461332   Change is   -0.000028981086130
 Root      6 :     6.715691160089382   Change is   -0.000005555711398
 Root      7 :     7.221633478927114   Change is   -0.000000000000060
 Root      8 :     7.491040802015350   Change is   -0.000000000000018
 Root      9 :     7.513670813033963   Change is   -0.000000000000024
 Root     10 :     7.764633106345848   Change is   -0.000000000000012
 Root     11 :     7.872878239040942   Change is   -0.000000000000018
 Root     12 :     7.979743503932929   Change is   -0.000000000000012
 Root     13 :     8.100618960161233   Change is   -0.000000000000024
 Root     14 :     8.108578581386963   Change is    0.000000000000000
 Root     15 :     8.486882181581004   Change is    0.000000000000024
 Iteration     5 Dimension   123 NMult   119 NNew      4
 CISAX will form     4 AO SS matrices at one time.
 NMat=     4 NSing=     4 JSym2X= 0.
 Root      1 not converged, maximum delta is    0.000012029344115
 Root      2 not converged, maximum delta is    0.000002338504106
 Root      3 has converged.
 Root      4 has converged.
 Root      5 not converged, maximum delta is    0.000038897377876
 Root      6 not converged, maximum delta is    0.000022188349700
 Root      7 has converged.
 Root      8 has converged.
 Root      9 has converged.
 Root     10 has converged.
 Root     11 has converged.
 Root     12 has converged.
 Root     13 has converged.
 Root     14 has converged.
 Root     15 has converged.
 Excitation Energies [eV] at current iteration:
 Root      1 :     4.718970084560359   Change is   -0.000000044742435
 Root      2 :     5.387451469652657   Change is   -0.000000001771973
 Root      3 :     5.687670149521262   Change is   -0.000000000000018
 Root      4 :     6.433583036538780   Change is    0.000000000000024
 Root      5 :     6.585811538739821   Change is   -0.000000354721511
 Root      6 :     6.715691076287872   Change is   -0.000000083801511
 Root      7 :     7.221633478927169   Change is    0.000000000000054
 Root      8 :     7.491040802015362   Change is    0.000000000000012
 Root      9 :     7.513670813033987   Change is    0.000000000000024
 Root     10 :     7.764633106345848   Change is    0.000000000000000
 Root     11 :     7.872878239040960   Change is    0.000000000000018
 Root     12 :     7.979743503932935   Change is    0.000000000000006
 Root     13 :     8.100618960161233   Change is    0.000000000000000
 Root     14 :     8.108578581386951   Change is   -0.000000000000012
 Root     15 :     8.486882181580974   Change is   -0.000000000000030
 Iteration     6 Dimension   127 NMult   123 NNew      4
 CISAX will form     4 AO SS matrices at one time.
 NMat=     4 NSing=     4 JSym2X= 0.
 Root      1 not converged, maximum delta is    0.000001151179959
 Root      2 has converged.
 Root      3 has converged.
 Root      4 has converged.
 Root      5 not converged, maximum delta is    0.000003306638616
 Root      6 not converged, maximum delta is    0.000001855576046
 Root      7 has converged.
 Root      8 has converged.
 Root      9 has converged.
 Root     10 has converged.
 Root     11 has converged.
 Root     12 has converged.
 Root     13 has converged.
 Root     14 has converged.
 Root     15 has converged.
 Excitation Energies [eV] at current iteration:
 Root      1 :     4.718970084252319   Change is   -0.000000000308040
 Root      2 :     5.387451469640010   Change is   -0.000000000012646
 Root      3 :     5.687670149521268   Change is    0.000000000000006
 Root      4 :     6.433583036538798   Change is    0.000000000000018
 Root      5 :     6.585811536963317   Change is   -0.000000001776504
 Root      6 :     6.715691075644788   Change is   -0.000000000643083
 Root      7 :     7.221633478927163   Change is   -0.000000000000006
 Root      8 :     7.491040802015374   Change is    0.000000000000012
 Root      9 :     7.513670813034000   Change is    0.000000000000012
 Root     10 :     7.764633106345860   Change is    0.000000000000012
 Root     11 :     7.872878239040954   Change is   -0.000000000000006
 Root     12 :     7.979743503932935   Change is    0.000000000000000
 Root     13 :     8.100618960161263   Change is    0.000000000000030
 Root     14 :     8.108578581386968   Change is    0.000000000000018
 Root     15 :     8.486882181580993   Change is    0.000000000000018
 Iteration     7 Dimension   130 NMult   127 NNew      3
 CISAX will form     3 AO SS matrices at one time.
 NMat=     3 NSing=     3 JSym2X= 0.
 Root      1 has converged.
 Root      2 has converged.
 Root      3 has converged.
 Root      4 has converged.
 Root      5 has converged.
 Root      6 has converged.
 Root      7 has converged.
 Root      8 has converged.
 Root      9 has converged.
 Root     10 has converged.
 Root     11 has converged.
 Root     12 has converged.
 Root     13 has converged.
 Root     14 has converged.
 Root     15 has converged.
 Excitation Energies [eV] at current iteration:
 Root      1 :     4.718970084250845   Change is   -0.000000000001474
 Root      2 :     5.387451469639943   Change is   -0.000000000000066
 Root      3 :     5.687670149521280   Change is    0.000000000000012
 Root      4 :     6.433583036538774   Change is   -0.000000000000024
 Root      5 :     6.585811536958247   Change is   -0.000000000005069
 Root      6 :     6.715691075637676   Change is   -0.000000000007112
 Root      7 :     7.221633478927120   Change is   -0.000000000000042
 Root      8 :     7.491040802015380   Change is    0.000000000000006
 Root      9 :     7.513670813033993   Change is   -0.000000000000006
 Root     10 :     7.764633106345848   Change is   -0.000000000000012
 Root     11 :     7.872878239040948   Change is   -0.000000000000006
 Root     12 :     7.979743503932935   Change is    0.000000000000000
 Root     13 :     8.100618960161238   Change is   -0.000000000000024
 Root     14 :     8.108578581386938   Change is   -0.000000000000030
 Root     15 :     8.486882181580993   Change is    0.000000000000000
 Convergence achieved on expansion vectors.
 ***********************************************************************
 Excited states from <AA,BB:AA,BB> singles matrix:
 ***********************************************************************
 
 1PDM for each excited state written to RWF  633
 Ground to excited state transition densities written to RWF  633
 Ground to excited state transition electric dipole moments (Au):
       state          X           Y           Z        Dip. S.      Osc.
         1         0.0000     -0.8184      0.0000      0.6697      0.0774
         2         0.0000      0.0000      0.2260      0.0511      0.0067
         3         0.0000      0.0000      0.0000      0.0000      0.0000
         4        -0.0785      0.0000      0.0000      0.0062      0.0010
         5         0.0000      0.0000     -1.7233      2.9696      0.4791
         6         0.0000     -1.1253      0.0000      1.2664      0.2084
         7         0.0837      0.0000      0.0000      0.0070      0.0012
         8         0.0000      0.0000      0.0000      0.0000      0.0000
         9         0.0466      0.0000      0.0000      0.0022      0.0004
        10         0.0000      0.0000      0.0000      0.0000      0.0000
        11        -0.0653      0.0000      0.0000      0.0043      0.0008
        12         0.0000      0.0000      0.0000      0.0000      0.0000
        13         0.1758      0.0000      0.0000      0.0309      0.0061
        14         0.0000      0.0000      0.0000      0.0000      0.0000
        15         0.0000      0.0000      0.0000      0.0000      0.0000
 Ground to excited state transition velocity dipole moments (Au):
       state          X           Y           Z        Dip. S.      Osc.
         1         0.0000      0.0331      0.0000      0.0011      0.0042
         2         0.0000      0.0000     -0.0181      0.0003      0.0011
         3         0.0000      0.0000      0.0000      0.0000      0.0000
         4         0.0683      0.0000      0.0000      0.0047      0.0132
         5         0.0000      0.0000      0.3215      0.1034      0.2847
         6         0.0000      0.1682      0.0000      0.0283      0.0764
         7        -0.1523      0.0000      0.0000      0.0232      0.0582
         8         0.0000      0.0000      0.0000      0.0000      0.0000
         9        -0.0742      0.0000      0.0000      0.0055      0.0133
        10         0.0000      0.0000      0.0000      0.0000      0.0000
        11         0.0092      0.0000      0.0000      0.0001      0.0002
        12         0.0000      0.0000      0.0000      0.0000      0.0000
        13         0.0860      0.0000      0.0000      0.0074      0.0166
        14         0.0000      0.0000      0.0000      0.0000      0.0000
        15         0.0000      0.0000      0.0000      0.0000      0.0000
 Ground to excited state transition magnetic dipole moments (Au):
       state          X           Y           Z
         1         0.5906      0.0000      0.0000
         2         0.0000      0.0000      0.0000
         3         0.0000      0.0000     -0.5468
         4         0.0000      0.0269      0.0000
         5         0.0000      0.0000      0.0000
         6         0.1717      0.0000      0.0000
         7         0.0000      0.2182      0.0000
         8         0.0000      0.0000     -0.0311
         9         0.0000     -1.2935      0.0000
        10         0.0000      0.0000      0.9808
        11         0.0000      0.7593      0.0000
        12         0.0000      0.0000      0.4265
        13         0.0000     -1.0961      0.0000
        14         0.0000      0.0000     -0.8288
        15         0.0000      0.0000      0.2942
 Ground to excited state transition velocity quadrupole moments (Au):
       state          XX          YY          ZZ          XY          XZ          YZ
         1         0.0000      0.0000      0.0000      0.0000      0.0000      0.5356
         2        -0.0800     -0.1084      0.1571      0.0000      0.0000      0.0000
         3         0.0000      0.0000      0.0000     -0.2293      0.0000      0.0000
         4         0.0000      0.0000      0.0000      0.0000      0.0709      0.0000
         5        -0.0308      0.5071     -0.2745      0.0000      0.0000      0.0000
         6         0.0000      0.0000      0.0000      0.0000      0.0000     -0.4810
         7         0.0000      0.0000      0.0000      0.0000     -0.3160      0.0000
         8         0.0000      0.0000      0.0000     -0.2292      0.0000      0.0000
         9         0.0000      0.0000      0.0000      0.0000      0.1646      0.0000
        10         0.0000      0.0000      0.0000     -0.0386      0.0000      0.0000
        11         0.0000      0.0000      0.0000      0.0000      0.1571      0.0000
        12         0.0000      0.0000      0.0000     -0.2209      0.0000      0.0000
        13         0.0000      0.0000      0.0000      0.0000     -0.1442      0.0000
        14         0.0000      0.0000      0.0000     -0.1773      0.0000      0.0000
        15         0.0000      0.0000      0.0000     -0.0123      0.0000      0.0000
 <0|del|b> * <b|rxdel|0> + <0|del|b> * <b|delr+rdel|0>
 Rotatory Strengths (R) in cgs (10**-40 erg-esu-cm/Gauss)
       state          XX          YY          ZZ    R(velocity)    E-M Angle
         1         0.0000      0.0000      0.0000      0.0000       90.00
         2         0.0000      0.0000      0.0000      0.0000       90.00
         3         0.0000      0.0000      0.0000      0.0000       90.00
         4         0.0000      0.0000      0.0000      0.0000       90.00
         5         0.0000      0.0000      0.0000      0.0000       90.00
         6         0.0000      0.0000      0.0000      0.0000       90.00
         7         0.0000      0.0000      0.0000      0.0000       90.00
         8         0.0000      0.0000      0.0000      0.0000       90.00
         9         0.0000      0.0000      0.0000      0.0000       90.00
        10         0.0000      0.0000      0.0000      0.0000       90.00
        11         0.0000      0.0000      0.0000      0.0000       90.00
        12         0.0000      0.0000      0.0000      0.0000       90.00
        13         0.0000      0.0000      0.0000      0.0000       90.00
        14         0.0000      0.0000      0.0000      0.0000       90.00
        15         0.0000      0.0000      0.0000      0.0000       90.00
 1/2[<0|r|b>*<b|rxdel|0> + (<0|rxdel|b>*<b|r|0>)*]
 Rotatory Strengths (R) in cgs (10**-40 erg-esu-cm/Gauss)
       state          XX          YY          ZZ     R(length)
         1         0.0000      0.0000      0.0000      0.0000
         2         0.0000      0.0000      0.0000      0.0000
         3         0.0000      0.0000      0.0000      0.0000
         4         0.0000      0.0000      0.0000      0.0000
         5         0.0000      0.0000      0.0000      0.0000
         6         0.0000      0.0000      0.0000      0.0000
         7         0.0000      0.0000      0.0000      0.0000
         8         0.0000      0.0000      0.0000      0.0000
         9         0.0000      0.0000      0.0000      0.0000
        10         0.0000      0.0000      0.0000      0.0000
        11         0.0000      0.0000      0.0000      0.0000
        12         0.0000      0.0000      0.0000      0.0000
        13         0.0000      0.0000      0.0000      0.0000
        14         0.0000      0.0000      0.0000      0.0000
        15         0.0000      0.0000      0.0000      0.0000
  1/2[<0|del|b>*<b|r|0> + (<0|r|b>*<b|del|0>)*] (Au)
       state          X           Y           Z        Dip. S.   Osc.(frdel)
         1         0.0000     -0.0271      0.0000      0.0271      0.0181
         2         0.0000      0.0000     -0.0041      0.0041      0.0027
         3         0.0000      0.0000      0.0000      0.0000      0.0000
         4        -0.0054      0.0000      0.0000      0.0054      0.0036
         5         0.0000      0.0000     -0.5540      0.5540      0.3694
         6         0.0000     -0.1893      0.0000      0.1893      0.1262
         7        -0.0127      0.0000      0.0000      0.0127      0.0085
         8         0.0000      0.0000      0.0000      0.0000      0.0000
         9        -0.0035      0.0000      0.0000      0.0035      0.0023
        10         0.0000      0.0000      0.0000      0.0000      0.0000
        11        -0.0006      0.0000      0.0000      0.0006      0.0004
        12         0.0000      0.0000      0.0000      0.0000      0.0000
        13         0.0151      0.0000      0.0000     -0.0151     -0.0101
        14         0.0000      0.0000      0.0000      0.0000      0.0000
        15         0.0000      0.0000      0.0000      0.0000      0.0000

 Excitation energies and oscillator strengths:
 
 Excited State   1:      Singlet-B2     4.7190 eV  262.74 nm  f=0.0774  <S**2>=0.000
      12 -> 15        -0.26561
      13 -> 14         0.64732
 This state for optimization and/or second-order correction.
 Total Energy, E(CIS) = -0.138620485390    
 Copying the excited state density for this state as the 1-particle RhoCI density.
 
 Excited State   2:      Singlet-A1     5.3875 eV  230.14 nm  f=0.0067  <S**2>=0.000
      12 -> 14         0.41717
      13 -> 15         0.56669
 
 Excited State   3:      Singlet-A2     5.6877 eV  217.99 nm  f=0.0000  <S**2>=0.000
      13 -> 16         0.69441
      13 -> 20        -0.10124
 
 Excited State   4:      Singlet-B1     6.4336 eV  192.71 nm  f=0.0010  <S**2>=0.000
       7 -> 16        -0.16916
      12 -> 16         0.66267
      12 -> 20        -0.12093
 
 Excited State   5:      Singlet-A1     6.5858 eV  188.26 nm  f=0.4791  <S**2>=0.000
      11 -> 16         0.12747
      12 -> 14         0.54109
      13 -> 15        -0.40273
 
 Excited State   6:      Singlet-B2     6.7157 eV  184.62 nm  f=0.2084  <S**2>=0.000
      12 -> 15         0.64552
      13 -> 14         0.25820
 
 Excited State   7:      Singlet-B1     7.2216 eV  171.68 nm  f=0.0012  <S**2>=0.000
       9 -> 14        -0.17718
      10 -> 15         0.10677
      12 -> 22         0.16665
      13 -> 17         0.57233
      13 -> 19         0.20305
      13 -> 21         0.16656
      13 -> 23        -0.11139
 
 Excited State   8:      Singlet-A2     7.4910 eV  165.51 nm  f=0.0000  <S**2>=0.000
       9 -> 15         0.15620
      10 -> 14        -0.30579
      11 -> 15         0.10700
      12 -> 17         0.19464
      12 -> 19         0.15393
      12 -> 21         0.16877
      12 -> 24         0.10434
      13 -> 18         0.22578
      13 -> 20         0.18909
      13 -> 22         0.40464
 
 Excited State   9:      Singlet-B1     7.5137 eV  165.01 nm  f=0.0004  <S**2>=0.000
       9 -> 14         0.51334
      10 -> 15        -0.34673
      13 -> 17         0.28661
 
 Excited State  10:      Singlet-A2     7.7646 eV  159.68 nm  f=0.0000  <S**2>=0.000
       8 -> 14        -0.11864
       9 -> 15        -0.21226
      10 -> 14         0.47732
      11 -> 15        -0.18672
      12 -> 17         0.26307
      12 -> 19         0.10225
      12 -> 21         0.13162
      13 -> 20         0.17284
      13 -> 22         0.21022
 
 Excited State  11:      Singlet-B1     7.8729 eV  157.48 nm  f=0.0008  <S**2>=0.000
       8 -> 15         0.10094
       9 -> 14        -0.17668
      11 -> 14         0.52749
      12 -> 18        -0.13534
      12 -> 22        -0.15218
      13 -> 19        -0.14893
      13 -> 21        -0.15454
      13 -> 23         0.16489
      13 -> 24        -0.20356
 
 Excited State  12:      Singlet-A2     7.9797 eV  155.37 nm  f=0.0000  <S**2>=0.000
      10 -> 14        -0.19085
      12 -> 17         0.44997
      12 -> 19         0.12895
      12 -> 24        -0.15837
      13 -> 18        -0.41136
      13 -> 22        -0.13362
 
 Excited State  13:      Singlet-B1     8.1006 eV  153.06 nm  f=0.0061  <S**2>=0.000
       9 -> 14         0.13512
      10 -> 15        -0.11688
      11 -> 14         0.43249
      12 -> 18         0.19950
      12 -> 20         0.10029
      12 -> 22         0.18536
      13 -> 17        -0.22297
      13 -> 19         0.15571
      13 -> 21         0.19805
      13 -> 24         0.24795
 
 Excited State  14:      Singlet-A2     8.1086 eV  152.90 nm  f=0.0000  <S**2>=0.000
       8 -> 14         0.13260
      10 -> 14         0.19254
      11 -> 15         0.63430
      12 -> 17         0.10117
 
 Excited State  15:      Singlet-A2     8.4869 eV  146.09 nm  f=0.0000  <S**2>=0.000
      12 -> 17        -0.12058
      12 -> 19        -0.25803
      12 -> 21        -0.12672
      13 -> 18        -0.36930
      13 -> 20         0.46281
      13 -> 22         0.11423
 SavETr:  write IOETrn=   770 NScale= 10 NData=  16 NLR=1 NState=   15 LETran=     280.
 The selected state is a singlet
 CISAX will form     1 AO SS matrices at one time.
 NMat=     1 NSing=     1 JSym2X= 0.
 Leave Link  914 at Tue Oct  6 15:41:39 2015, MaxMem=    33554432 cpu:         0.1
 (Enter /home/Applications/g09/g09/l1002.exe)
 Minotr:  Closed shell wavefunction.
          Computing CIS/TD-HF/TD-KS derivatives.
          Using Z-Vector for PSCF gradient.
          Skipping F1 and S1 gradient terms here.
          IDoAtm=111111111
          Direct CPHF calculation.
          Differentiating once with respect to electric field.
                with respect to dipole field.
          Differentiating once with respect to nuclear coordinates.
          Electric field/nuclear overlap derivatives assumed to be zero.
          Requested convergence is 1.0D-10 RMS, and 1.0D-09 maximum.
          NewPWx=T KeepS1=F KeepF1=F KeepIn=T MapXYZ=F SortEE=F KeepMc=T.
          MDV=      33495423 using IRadAn=       0.
 Keep J ints in memory in canonical form, NReq=871758.
 FoFCou: FMM=F IPFlag=           0 FMFlag=           0 FMFlg1=           0
         NFxFlg=           0 DoJE=F BraDBF=F KetDBF=F FulRan=T
         wScrn=  0.000000 ICntrl=     600 IOpCl=  2 I1Cent=           0 NGrid=           0
         NMat0=    1 NMatS0=     54 NMatT0=    0 NMatD0=    1 NMtDS0=    0 NMtDT0=    0
 Symmetry not used in FoFCou.
          Solving linear equations separately, MaxMat=       0.
          There are     1 degrees of freedom in the 1st order CPHF.  IDoFFX=0 NUNeed=     1.
 LinEq1:  Iter=  0 NonCon=     1 RMS=1.02D-02 Max=6.83D-02 NDo=     1
 AX will form     1 AO Fock derivatives at one time.
 LinEq1:  Iter=  1 NonCon=     1 RMS=1.58D-03 Max=9.20D-03 NDo=     1
 LinEq1:  Iter=  2 NonCon=     1 RMS=2.05D-04 Max=1.68D-03 NDo=     1
 LinEq1:  Iter=  3 NonCon=     1 RMS=2.99D-05 Max=1.67D-04 NDo=     1
 LinEq1:  Iter=  4 NonCon=     1 RMS=2.52D-06 Max=1.00D-05 NDo=     1
 LinEq1:  Iter=  5 NonCon=     1 RMS=2.50D-07 Max=8.65D-07 NDo=     1
 LinEq1:  Iter=  6 NonCon=     1 RMS=2.38D-08 Max=9.29D-08 NDo=     1
 LinEq1:  Iter=  7 NonCon=     1 RMS=2.85D-09 Max=1.44D-08 NDo=     1
 LinEq1:  Iter=  8 NonCon=     1 RMS=3.06D-10 Max=1.54D-09 NDo=     1
 LinEq1:  Iter=  9 NonCon=     0 RMS=2.60D-11 Max=1.10D-10 NDo=     1
 Linear equations converged to 1.000D-10 1.000D-09 after     9 iterations.
 End of Minotr F.D. properties file   721 does not exist.
 End of Minotr F.D. properties file   722 does not exist.
 End of Minotr F.D. properties file   788 does not exist.
 Leave Link 1002 at Tue Oct  6 15:41:39 2015, MaxMem=    33554432 cpu:         0.0
 (Enter /home/Applications/g09/g09/l601.exe)
 Copying SCF densities to generalized density rwf, IOpCl= 0 IROHF=0.

 **********************************************************************

            Population analysis using the SCF density.

 **********************************************************************

 Orbital symmetries:
       Occupied  (A1) (A1) (B2) (B2) (A1) (A1) (B1) (B2) (A1) (B2)
                 (A1) (B1) (A2)
       Virtual   (B1) (A2) (A1) (B2) (A1) (B2) (A1) (B2) (A1) (B2)
                 (B2)
 The electronic state is 1-A1.
 Alpha  occ. eigenvalues --   -1.56603  -1.22591  -1.08229  -0.82910  -0.79862
 Alpha  occ. eigenvalues --   -0.69284  -0.61767  -0.55058  -0.50393  -0.49360
 Alpha  occ. eigenvalues --   -0.48946  -0.38772  -0.34670
 Alpha virt. eigenvalues --    0.05148   0.08311   0.12717   0.17518   0.19721
 Alpha virt. eigenvalues --    0.20648   0.21753   0.23009   0.24456   0.25640
 Alpha virt. eigenvalues --    0.26316
     Molecular Orbital Coefficients:
                           1         2         3         4         5
                        (A1)--O   (A1)--O   (B2)--O   (B2)--O   (A1)--O
     Eigenvalues --    -1.56603  -1.22591  -1.08229  -0.82910  -0.79862
   1 1   C  1S          0.26871  -0.46227   0.27069  -0.33219  -0.25342
   2        1PX         0.00000   0.00000   0.00000   0.00000   0.00000
   3        1PY        -0.07005   0.09491   0.15534  -0.20507   0.19818
   4        1PZ         0.11866  -0.04540   0.12774   0.00314   0.30663
   5 2   C  1S          0.35721  -0.13626   0.50908   0.06722   0.36756
   6        1PX         0.00000   0.00000   0.00000   0.00000   0.00000
   7        1PY        -0.19767  -0.03992   0.00390  -0.10987   0.10621
   8        1PZ         0.01599   0.24595  -0.00207   0.38795   0.02035
   9 3   O  1S          0.64846   0.58395   0.00000   0.00000  -0.29756
  10        1PX         0.00000   0.00000   0.00000   0.00000   0.00000
  11        1PY         0.00000   0.00000   0.37769   0.51169   0.00000
  12        1PZ        -0.21210   0.05243   0.00000   0.00000  -0.22853
  13 4   C  1S          0.35721  -0.13626  -0.50908  -0.06722   0.36756
  14        1PX         0.00000   0.00000   0.00000   0.00000   0.00000
  15        1PY         0.19767   0.03992   0.00390  -0.10987  -0.10621
  16        1PZ         0.01599   0.24595   0.00207  -0.38795   0.02035
  17 5   C  1S          0.26871  -0.46227  -0.27069   0.33219  -0.25342
  18        1PX         0.00000   0.00000   0.00000   0.00000   0.00000
  19        1PY         0.07005  -0.09491   0.15534  -0.20507  -0.19818
  20        1PZ         0.11866  -0.04540  -0.12774  -0.00314   0.30663
  21 6   H  1S          0.05688  -0.14778  -0.10813   0.21149  -0.18194
  22 7   H  1S          0.07682  -0.02947  -0.20996  -0.06967   0.22849
  23 8   H  1S          0.07682  -0.02947   0.20996   0.06967   0.22849
  24 9   H  1S          0.05688  -0.14778   0.10813  -0.21149  -0.18194
                           6         7         8         9        10
                        (A1)--O   (B1)--O   (B2)--O   (A1)--O   (B2)--O
     Eigenvalues --    -0.69284  -0.61767  -0.55058  -0.50393  -0.49360
   1 1   C  1S          0.08817   0.00000  -0.18375   0.02496  -0.03340
   2        1PX         0.00000   0.23995   0.00000   0.00000   0.00000
   3        1PY         0.20964   0.00000  -0.08339   0.08125  -0.08727
   4        1PZ        -0.17778   0.00000   0.15061   0.36671   0.42885
   5 2   C  1S          0.12517   0.00000   0.13870  -0.06745   0.09617
   6        1PX         0.00000   0.40517   0.00000   0.00000   0.00000
   7        1PY         0.38742   0.00000   0.42073   0.04540  -0.24861
   8        1PZ         0.06971   0.00000  -0.03030  -0.38002  -0.29694
   9 3   O  1S          0.18400   0.00000   0.00000   0.21707   0.00000
  10        1PX         0.00000   0.74600   0.00000   0.00000   0.00000
  11        1PY         0.00000   0.00000  -0.39412   0.00000  -0.00922
  12        1PZ         0.46939   0.00000   0.00000   0.51253   0.00000
  13 4   C  1S          0.12517   0.00000  -0.13870  -0.06745  -0.09617
  14        1PX         0.00000   0.40517   0.00000   0.00000   0.00000
  15        1PY        -0.38742   0.00000   0.42073  -0.04540  -0.24861
  16        1PZ         0.06971   0.00000   0.03030  -0.38002   0.29694
  17 5   C  1S          0.08817   0.00000   0.18375   0.02496   0.03340
  18        1PX         0.00000   0.23995   0.00000   0.00000   0.00000
  19        1PY        -0.20964   0.00000  -0.08339  -0.08125  -0.08727
  20        1PZ        -0.17778   0.00000  -0.15061   0.36671  -0.42885
  21 6   H  1S          0.20020   0.00000   0.22541  -0.17096   0.32207
  22 7   H  1S          0.28085   0.00000  -0.33311  -0.15214   0.21062
  23 8   H  1S          0.28085   0.00000   0.33311  -0.15214  -0.21062
  24 9   H  1S          0.20020   0.00000  -0.22541  -0.17096  -0.32207
                          11        12        13        14        15
                        (A1)--O   (B1)--O   (A2)--O   (B1)--V   (A2)--V
     Eigenvalues --    -0.48946  -0.38772  -0.34670   0.05148   0.08311
   1 1   C  1S         -0.02295   0.00000   0.00000   0.00000   0.00000
   2        1PX         0.00000   0.58390   0.37180  -0.31857   0.60147
   3        1PY         0.55329   0.00000   0.00000   0.00000   0.00000
   4        1PZ        -0.06139   0.00000   0.00000   0.00000   0.00000
   5 2   C  1S         -0.02535   0.00000   0.00000   0.00000   0.00000
   6        1PX         0.00000   0.14027   0.60147   0.56228  -0.37180
   7        1PY        -0.15149   0.00000   0.00000   0.00000   0.00000
   8        1PZ        -0.16273   0.00000   0.00000   0.00000   0.00000
   9 3   O  1S          0.02114   0.00000   0.00000   0.00000   0.00000
  10        1PX         0.00000  -0.52799   0.00000  -0.40585   0.00000
  11        1PY         0.00000   0.00000   0.00000   0.00000   0.00000
  12        1PZ        -0.24170   0.00000   0.00000   0.00000   0.00000
  13 4   C  1S         -0.02535   0.00000   0.00000   0.00000   0.00000
  14        1PX         0.00000   0.14027  -0.60147   0.56228   0.37180
  15        1PY         0.15149   0.00000   0.00000   0.00000   0.00000
  16        1PZ        -0.16273   0.00000   0.00000   0.00000   0.00000
  17 5   C  1S         -0.02295   0.00000   0.00000   0.00000   0.00000
  18        1PX         0.00000   0.58390  -0.37180  -0.31857  -0.60147
  19        1PY        -0.55329   0.00000   0.00000   0.00000   0.00000
  20        1PZ        -0.06139   0.00000   0.00000   0.00000   0.00000
  21 6   H  1S          0.27530   0.00000   0.00000   0.00000   0.00000
  22 7   H  1S         -0.18516   0.00000   0.00000   0.00000   0.00000
  23 8   H  1S         -0.18516   0.00000   0.00000   0.00000   0.00000
  24 9   H  1S          0.27530   0.00000   0.00000   0.00000   0.00000
                          16        17        18        19        20
                        (A1)--V   (B2)--V   (A1)--V   (B2)--V   (A1)--V
     Eigenvalues --     0.12717   0.17518   0.19721   0.20648   0.21753
   1 1   C  1S          0.00080  -0.06650  -0.04523   0.20620  -0.10374
   2        1PX         0.00000   0.00000   0.00000   0.00000   0.00000
   3        1PY         0.03294   0.35029  -0.02625   0.30209  -0.17675
   4        1PZ         0.12099   0.05009   0.27702  -0.05521   0.29503
   5 2   C  1S          0.21449   0.03322  -0.29108  -0.31285  -0.02941
   6        1PX         0.00000   0.00000   0.00000   0.00000   0.00000
   7        1PY        -0.24587   0.38269  -0.25751  -0.06226   0.35758
   8        1PZ         0.37197   0.09641   0.02473  -0.03891   0.07752
   9 3   O  1S         -0.23983   0.00000  -0.03254   0.00000   0.09733
  10        1PX         0.00000   0.00000   0.00000   0.00000   0.00000
  11        1PY         0.00000   0.21370   0.00000   0.22807   0.00000
  12        1PZ         0.51448   0.00000   0.07986   0.00000  -0.24617
  13 4   C  1S          0.21449  -0.03322  -0.29108   0.31285  -0.02941
  14        1PX         0.00000   0.00000   0.00000   0.00000   0.00000
  15        1PY         0.24587   0.38269   0.25751  -0.06226  -0.35758
  16        1PZ         0.37197  -0.09641   0.02473   0.03891   0.07752
  17 5   C  1S          0.00080   0.06650  -0.04523  -0.20620  -0.10374
  18        1PX         0.00000   0.00000   0.00000   0.00000   0.00000
  19        1PY        -0.03294   0.35029   0.02625   0.30209   0.17675
  20        1PZ         0.12099  -0.05009   0.27702   0.05521   0.29503
  21 6   H  1S          0.13546   0.12518   0.28266   0.38279   0.37699
  22 7   H  1S         -0.24495   0.41834   0.43041  -0.29559  -0.24303
  23 8   H  1S         -0.24495  -0.41834   0.43041   0.29559  -0.24303
  24 9   H  1S          0.13546  -0.12518   0.28266  -0.38279   0.37699
                          21        22        23        24
                        (B2)--V   (A1)--V   (B2)--V   (B2)--V
     Eigenvalues --     0.23009   0.24456   0.25640   0.26316
   1 1   C  1S         -0.23076   0.35798  -0.29976   0.30241
   2        1PX         0.00000   0.00000   0.00000   0.00000
   3        1PY         0.22371   0.23900   0.39393   0.00763
   4        1PZ         0.43196   0.20388  -0.17389   0.23387
   5 2   C  1S         -0.23608  -0.25743   0.22972  -0.01876
   6        1PX         0.00000   0.00000   0.00000   0.00000
   7        1PY        -0.02624   0.13535  -0.30070  -0.08750
   8        1PZ         0.03622   0.34366   0.04450   0.49628
   9 3   O  1S          0.00000   0.02222   0.00000   0.00000
  10        1PX         0.00000   0.00000   0.00000   0.00000
  11        1PY         0.10977   0.00000  -0.38706  -0.42492
  12        1PZ         0.00000  -0.16411   0.00000   0.00000
  13 4   C  1S          0.23608  -0.25743  -0.22972   0.01876
  14        1PX         0.00000   0.00000   0.00000   0.00000
  15        1PY        -0.02624  -0.13535  -0.30070  -0.08750
  16        1PZ        -0.03622   0.34366  -0.04450  -0.49628
  17 5   C  1S          0.23076   0.35798   0.29976  -0.30241
  18        1PX         0.00000   0.00000   0.00000   0.00000
  19        1PY         0.22371  -0.23900   0.39393   0.00763
  20        1PZ        -0.43196   0.20388   0.17389  -0.23387
  21 6   H  1S         -0.34455  -0.23741   0.06134   0.06604
  22 7   H  1S         -0.16625  -0.01992  -0.02959   0.06961
  23 8   H  1S          0.16625  -0.01992   0.02959  -0.06961
  24 9   H  1S          0.34455  -0.23741  -0.06134  -0.06604
     Density Matrix:
                           1         2         3         4         5
   1 1   C  1S          1.15509
   2        1PX         0.00000   1.07350
   3        1PY         0.04660   0.00000   0.98123
   4        1PZ        -0.07681   0.00000  -0.04815   1.00587
   5 2   C  1S          0.32508   0.00000   0.17391   0.48644   1.18858
   6        1PX         0.00000   0.80550   0.00000   0.00000   0.00000
   7        1PY        -0.10851   0.00000   0.08388  -0.15020   0.10438
   8        1PZ        -0.45621   0.00000  -0.26295  -0.55148   0.02085
   9 3   O  1S          0.00173   0.00000   0.03788   0.00957   0.10111
  10        1PX         0.00000  -0.25858   0.00000   0.00000   0.00000
  11        1PY         0.00997   0.00000  -0.02518  -0.02691   0.34223
  12        1PZ         0.07282   0.00000  -0.03828   0.04343  -0.27319
  13 4   C  1S         -0.02202   0.00000  -0.00743  -0.02305   0.01993
  14        1PX         0.00000  -0.08901   0.00000   0.00000   0.00000
  15        1PY        -0.01728   0.00000  -0.04489  -0.02218   0.01182
  16        1PZ        -0.00042   0.00000  -0.05720  -0.02767   0.05180
  17 5   C  1S          0.28109   0.00000  -0.46703  -0.04297  -0.02202
  18        1PX         0.00000   0.52056   0.00000   0.00000   0.00000
  19        1PY         0.46703   0.00000  -0.65822  -0.07498   0.00743
  20        1PZ        -0.04297   0.00000   0.07498   0.11419  -0.02305
  21 6   H  1S         -0.02986   0.00000   0.03852   0.00281   0.04920
  22 7   H  1S          0.04413   0.00000  -0.05551  -0.00145   0.05607
  23 8   H  1S         -0.03780   0.00000  -0.01980  -0.05390   0.60614
  24 9   H  1S          0.57694   0.00000   0.46680  -0.63286  -0.03643
                           6         7         8         9        10
   6        1PX         1.09121
   7        1PY         0.00000   0.95592
   8        1PZ         0.00000   0.08406   0.95303
   9 3   O  1S          0.00000  -0.21031   0.14966   1.86292
  10        1PX         0.45640   0.00000   0.00000   0.00000   1.67057
  11        1PY         0.00000  -0.43655   0.42481   0.00000   0.00000
  12        1PZ         0.00000   0.51460  -0.23574   0.30718   0.00000
  13 4   C  1S          0.00000  -0.01182   0.05180   0.10111   0.00000
  14        1PX        -0.35584   0.00000   0.00000   0.00000   0.45640
  15        1PY         0.00000   0.04770  -0.01030   0.21031   0.00000
  16        1PZ         0.00000   0.01030  -0.00538   0.14966   0.00000
  17 5   C  1S          0.00000   0.01728  -0.00042   0.00173   0.00000
  18        1PX        -0.08901   0.00000   0.00000   0.00000  -0.25858
  19        1PY         0.00000  -0.04489   0.05720  -0.03788   0.00000
  20        1PZ         0.00000   0.02218  -0.02767   0.00957   0.00000
  21 6   H  1S          0.00000  -0.01093  -0.05042   0.02054   0.00000
  22 7   H  1S          0.00000  -0.09092   0.05422  -0.04129   0.00000
  23 8   H  1S          0.00000   0.65176   0.37039  -0.04129   0.00000
  24 9   H  1S          0.00000   0.02464   0.03036   0.02054   0.00000
                          11        12        13        14        15
  11        1PY         1.11977
  12        1PZ         0.00000   1.28280
  13 4   C  1S         -0.34223  -0.27319   1.18858
  14        1PX         0.00000   0.00000   0.00000   1.09121
  15        1PY        -0.43655  -0.51460  -0.10438   0.00000   0.95592
  16        1PZ        -0.42481  -0.23574   0.02085   0.00000  -0.08406
  17 5   C  1S         -0.00997   0.07282   0.32508   0.00000   0.10851
  18        1PX         0.00000   0.00000   0.00000   0.80550   0.00000
  19        1PY        -0.02518   0.03828  -0.17391   0.00000   0.08388
  20        1PZ         0.02691   0.04343   0.48644   0.00000   0.15020
  21 6   H  1S         -0.04886  -0.07685  -0.03643   0.00000  -0.02464
  22 7   H  1S          0.02878   0.05710   0.60614   0.00000  -0.65176
  23 8   H  1S         -0.02878   0.05710   0.05607   0.00000   0.09092
  24 9   H  1S          0.04886  -0.07685   0.04920   0.00000   0.01093
                          16        17        18        19        20
  16        1PZ         0.95303
  17 5   C  1S         -0.45621   1.15509
  18        1PX         0.00000   0.00000   1.07350
  19        1PY         0.26295  -0.04660   0.00000   0.98123
  20        1PZ        -0.55148  -0.07681   0.00000   0.04815   1.00587
  21 6   H  1S          0.03036   0.57694   0.00000  -0.46680  -0.63286
  22 7   H  1S          0.37039  -0.03780   0.00000   0.01980  -0.05390
  23 8   H  1S          0.05422   0.04413   0.00000   0.05551  -0.00145
  24 9   H  1S         -0.05042  -0.02986   0.00000  -0.03852   0.00281
                          21        22        23        24
  21 6   H  1S          0.82847
  22 7   H  1S         -0.00174   0.79908
  23 8   H  1S         -0.00461  -0.01795   0.79908
  24 9   H  1S         -0.01538  -0.00461  -0.00174   0.82847
    Full Mulliken population analysis:
                           1         2         3         4         5
   1 1   C  1S          1.15509
   2        1PX         0.00000   1.07350
   3        1PY         0.00000   0.00000   0.98123
   4        1PZ         0.00000   0.00000   0.00000   1.00587
   5 2   C  1S          0.00000   0.00000   0.00000   0.00000   1.18858
   6        1PX         0.00000   0.00000   0.00000   0.00000   0.00000
   7        1PY         0.00000   0.00000   0.00000   0.00000   0.00000
   8        1PZ         0.00000   0.00000   0.00000   0.00000   0.00000
   9 3   O  1S          0.00000   0.00000   0.00000   0.00000   0.00000
  10        1PX         0.00000   0.00000   0.00000   0.00000   0.00000
  11        1PY         0.00000   0.00000   0.00000   0.00000   0.00000
  12        1PZ         0.00000   0.00000   0.00000   0.00000   0.00000
  13 4   C  1S          0.00000   0.00000   0.00000   0.00000   0.00000
  14        1PX         0.00000   0.00000   0.00000   0.00000   0.00000
  15        1PY         0.00000   0.00000   0.00000   0.00000   0.00000
  16        1PZ         0.00000   0.00000   0.00000   0.00000   0.00000
  17 5   C  1S          0.00000   0.00000   0.00000   0.00000   0.00000
  18        1PX         0.00000   0.00000   0.00000   0.00000   0.00000
  19        1PY         0.00000   0.00000   0.00000   0.00000   0.00000
  20        1PZ         0.00000   0.00000   0.00000   0.00000   0.00000
  21 6   H  1S          0.00000   0.00000   0.00000   0.00000   0.00000
  22 7   H  1S          0.00000   0.00000   0.00000   0.00000   0.00000
  23 8   H  1S          0.00000   0.00000   0.00000   0.00000   0.00000
  24 9   H  1S          0.00000   0.00000   0.00000   0.00000   0.00000
                           6         7         8         9        10
   6        1PX         1.09121
   7        1PY         0.00000   0.95592
   8        1PZ         0.00000   0.00000   0.95303
   9 3   O  1S          0.00000   0.00000   0.00000   1.86292
  10        1PX         0.00000   0.00000   0.00000   0.00000   1.67057
  11        1PY         0.00000   0.00000   0.00000   0.00000   0.00000
  12        1PZ         0.00000   0.00000   0.00000   0.00000   0.00000
  13 4   C  1S          0.00000   0.00000   0.00000   0.00000   0.00000
  14        1PX         0.00000   0.00000   0.00000   0.00000   0.00000
  15        1PY         0.00000   0.00000   0.00000   0.00000   0.00000
  16        1PZ         0.00000   0.00000   0.00000   0.00000   0.00000
  17 5   C  1S          0.00000   0.00000   0.00000   0.00000   0.00000
  18        1PX         0.00000   0.00000   0.00000   0.00000   0.00000
  19        1PY         0.00000   0.00000   0.00000   0.00000   0.00000
  20        1PZ         0.00000   0.00000   0.00000   0.00000   0.00000
  21 6   H  1S          0.00000   0.00000   0.00000   0.00000   0.00000
  22 7   H  1S          0.00000   0.00000   0.00000   0.00000   0.00000
  23 8   H  1S          0.00000   0.00000   0.00000   0.00000   0.00000
  24 9   H  1S          0.00000   0.00000   0.00000   0.00000   0.00000
                          11        12        13        14        15
  11        1PY         1.11977
  12        1PZ         0.00000   1.28280
  13 4   C  1S          0.00000   0.00000   1.18858
  14        1PX         0.00000   0.00000   0.00000   1.09121
  15        1PY         0.00000   0.00000   0.00000   0.00000   0.95592
  16        1PZ         0.00000   0.00000   0.00000   0.00000   0.00000
  17 5   C  1S          0.00000   0.00000   0.00000   0.00000   0.00000
  18        1PX         0.00000   0.00000   0.00000   0.00000   0.00000
  19        1PY         0.00000   0.00000   0.00000   0.00000   0.00000
  20        1PZ         0.00000   0.00000   0.00000   0.00000   0.00000
  21 6   H  1S          0.00000   0.00000   0.00000   0.00000   0.00000
  22 7   H  1S          0.00000   0.00000   0.00000   0.00000   0.00000
  23 8   H  1S          0.00000   0.00000   0.00000   0.00000   0.00000
  24 9   H  1S          0.00000   0.00000   0.00000   0.00000   0.00000
                          16        17        18        19        20
  16        1PZ         0.95303
  17 5   C  1S          0.00000   1.15509
  18        1PX         0.00000   0.00000   1.07350
  19        1PY         0.00000   0.00000   0.00000   0.98123
  20        1PZ         0.00000   0.00000   0.00000   0.00000   1.00587
  21 6   H  1S          0.00000   0.00000   0.00000   0.00000   0.00000
  22 7   H  1S          0.00000   0.00000   0.00000   0.00000   0.00000
  23 8   H  1S          0.00000   0.00000   0.00000   0.00000   0.00000
  24 9   H  1S          0.00000   0.00000   0.00000   0.00000   0.00000
                          21        22        23        24
  21 6   H  1S          0.82847
  22 7   H  1S          0.00000   0.79908
  23 8   H  1S          0.00000   0.00000   0.79908
  24 9   H  1S          0.00000   0.00000   0.00000   0.82847
     Gross orbital populations:
                           1
   1 1   C  1S          1.15509
   2        1PX         1.07350
   3        1PY         0.98123
   4        1PZ         1.00587
   5 2   C  1S          1.18858
   6        1PX         1.09121
   7        1PY         0.95592
   8        1PZ         0.95303
   9 3   O  1S          1.86292
  10        1PX         1.67057
  11        1PY         1.11977
  12        1PZ         1.28280
  13 4   C  1S          1.18858
  14        1PX         1.09121
  15        1PY         0.95592
  16        1PZ         0.95303
  17 5   C  1S          1.15509
  18        1PX         1.07350
  19        1PY         0.98123
  20        1PZ         1.00587
  21 6   H  1S          0.82847
  22 7   H  1S          0.79908
  23 8   H  1S          0.79908
  24 9   H  1S          0.82847
          Condensed to atoms (all electrons):
               1          2          3          4          5          6
     1  C    4.215687   0.000000   0.000000   0.000000   0.000000   0.000000
     2  C    0.000000   4.188740   0.000000   0.000000   0.000000   0.000000
     3  O    0.000000   0.000000   5.936058   0.000000   0.000000   0.000000
     4  C    0.000000   0.000000   0.000000   4.188740   0.000000   0.000000
     5  C    0.000000   0.000000   0.000000   0.000000   4.215687   0.000000
     6  H    0.000000   0.000000   0.000000   0.000000   0.000000   0.828467
     7  H    0.000000   0.000000   0.000000   0.000000   0.000000   0.000000
     8  H    0.000000   0.000000   0.000000   0.000000   0.000000   0.000000
     9  H    0.000000   0.000000   0.000000   0.000000   0.000000   0.000000
               7          8          9
     1  C    0.000000   0.000000   0.000000
     2  C    0.000000   0.000000   0.000000
     3  O    0.000000   0.000000   0.000000
     4  C    0.000000   0.000000   0.000000
     5  C    0.000000   0.000000   0.000000
     6  H    0.000000   0.000000   0.000000
     7  H    0.799077   0.000000   0.000000
     8  H    0.000000   0.799077   0.000000
     9  H    0.000000   0.000000   0.828467
 Mulliken charges:
               1
     1  C   -0.215687
     2  C   -0.188740
     3  O    0.063942
     4  C   -0.188740
     5  C   -0.215687
     6  H    0.171533
     7  H    0.200923
     8  H    0.200923
     9  H    0.171533
 Sum of Mulliken charges =   0.00000
 Mulliken charges with hydrogens summed into heavy atoms:
               1
     1  C   -0.044154
     2  C    0.012183
     3  O    0.063942
     4  C    0.012183
     5  C   -0.044154
 Charge=              0.0000 electrons
 Dipole moment (field-independent basis, Debye):
    X=              0.0000    Y=              0.0000    Z=              0.0659  Tot=              0.0659
 N-N= 1.037817558948D+02 E-N=-1.726493303113D+02  KE=-1.636934925130D+01
 Symmetry A1   KE=-8.998959060706D+00
 Symmetry A2   KE=-5.836865859047D-01
 Symmetry B1   KE=-1.652166100521D+00
 Symmetry B2   KE=-5.134537504169D+00
 Orbital energies and kinetic energies (alpha):
                                 1                 2
   1         (A1)--O          -1.566028         -1.319415
   2         (A1)--O          -1.225914         -1.053852
   3         (B2)--O          -1.082293         -0.954262
   4         (B2)--O          -0.829102         -0.697976
   5         (A1)--O          -0.798617         -0.716052
   6         (A1)--O          -0.692843         -0.607376
   7         (B1)--O          -0.617674         -0.499419
   8         (B2)--O          -0.550575         -0.497441
   9         (A1)--O          -0.503927         -0.392675
  10         (B2)--O          -0.493597         -0.417590
  11         (A1)--O          -0.489464         -0.410109
  12         (B1)--O          -0.387725         -0.326664
  13         (A2)--O          -0.346699         -0.291843
  14         (B1)--V           0.051483         -0.160495
  15         (A2)--V           0.083109         -0.160220
  16         (A1)--V           0.127175         -0.146770
  17         (B2)--V           0.175185         -0.165236
  18         (A1)--V           0.197210         -0.202265
  19         (B2)--V           0.206477         -0.203613
  20         (A1)--V           0.217528         -0.149166
  21         (B2)--V           0.230093         -0.144647
  22         (A1)--V           0.244560         -0.106412
  23         (B2)--V           0.256400         -0.058722
  24         (B2)--V           0.263158         -0.033511
 Total kinetic energy from orbitals=-1.636934925130D+01
 Leave Link  601 at Tue Oct  6 15:41:39 2015, MaxMem=    33554432 cpu:         0.0
 (Enter /home/Applications/g09/g09/l701.exe)
 Compute integral first derivatives.
 ... and contract with generalized density number  6.
 Leave Link  701 at Tue Oct  6 15:41:39 2015, MaxMem=    33554432 cpu:         0.0
 (Enter /home/Applications/g09/g09/l702.exe)
 L702 exits ... SP integral derivatives will be done elsewhere.
 Leave Link  702 at Tue Oct  6 15:41:39 2015, MaxMem=    33554432 cpu:         0.0
 (Enter /home/Applications/g09/g09/l703.exe)
 Compute integral first derivatives, UseDBF=F ICtDFT=           0.
 Integral derivatives from FoFJK, PRISM(SPDF).
 Calling FoFJK, ICntrl=  10005127 FMM=F ISym2X=1 I1Cent= 0 IOpClX= 0 NMat=1 NMatS=1 NMatT=0.
 FoFJK:  IHMeth= 8 ICntrl=10005127 DoSepK=F KAlg= 0 I1Cent=   0 FoldK=F
 IRaf=         0 NMat=   1 IRICut=       1 DoRegI=T DoRafI=F ISym2E= 1.
 FoFCou: FMM=F IPFlag=           0 FMFlag=      100000 FMFlg1=         800
         NFxFlg=           0 DoJE=F BraDBF=F KetDBF=F FulRan=T
         wScrn=  0.000000 ICntrl=10005127 IOpCl=  0 I1Cent=           0 NGrid=           0
         NMat0=    1 NMatS0=      1 NMatT0=    0 NMatD0=    1 NMtDS0=    0 NMtDT0=    0
 Symmetry not used in FoFCou.
 Leave Link  703 at Tue Oct  6 15:41:39 2015, MaxMem=    33554432 cpu:         0.0
 (Enter /home/Applications/g09/g09/l716.exe)
 Dipole        = 1.05413229D-15 1.02140518D-14-8.22433121D-02
 ***** Axes restored to original set *****
 -------------------------------------------------------------------
 Center     Atomic                   Forces (Hartrees/Bohr)
 Number     Number              X              Y              Z
 -------------------------------------------------------------------
      1        6           0.063567700    0.044541248    0.000000000
      2        6          -0.044124402   -0.006125166    0.000000000
      3        8          -0.038949320    0.000000000    0.000000000
      4        6          -0.044124402    0.006125166    0.000000000
      5        6           0.063567700   -0.044541248    0.000000000
      6        1           0.001039505   -0.003679159    0.000000000
      7        1          -0.001008143   -0.000589664    0.000000000
      8        1          -0.001008143    0.000589664    0.000000000
      9        1           0.001039505    0.003679159    0.000000000
 -------------------------------------------------------------------
 Cartesian Forces:  Max     0.063567700 RMS     0.025507822
 Z-matrix is all fixed cartesians, so copy forces.
 Force constants in Cartesian coordinates: 
                1             2             3             4             5 
      1  0.924213D+00
      2 -0.280496D-01  0.794695D+00
      3  0.000000D+00  0.000000D+00  0.206887D+00
      4 -0.512400D+00 -0.107252D+00  0.000000D+00  0.940723D+00
      5 -0.840374D-01 -0.216108D+00  0.000000D+00  0.222648D-01  0.891463D+00
      6  0.000000D+00  0.000000D+00 -0.105153D+00  0.000000D+00  0.000000D+00
      7 -0.847936D-02  0.292752D-01  0.000000D+00 -0.289302D+00  0.168432D+00
      8 -0.629794D-02  0.217438D-01  0.000000D+00  0.212644D+00 -0.374940D+00
      9  0.000000D+00  0.000000D+00  0.744560D-02  0.000000D+00  0.000000D+00
     10  0.100412D-01  0.000000D+00  0.000000D+00  0.243474D-01  0.180838D-01
     11  0.346676D-01  0.000000D+00  0.000000D+00 -0.180838D-01 -0.134315D-01
     12  0.000000D+00  0.000000D+00 -0.114437D-02  0.000000D+00  0.000000D+00
     13 -0.167385D+00  0.115645D-01  0.000000D+00  0.100412D-01 -0.346676D-01
     14 -0.115645D-01 -0.407138D+00  0.000000D+00  0.000000D+00  0.000000D+00
     15  0.000000D+00  0.000000D+00 -0.812287D-01  0.000000D+00  0.000000D+00
     16  0.176569D-01  0.000000D+00  0.000000D+00  0.000000D+00  0.000000D+00
     17 -0.231031D-01  0.000000D+00  0.000000D+00  0.000000D+00  0.000000D+00
     18  0.000000D+00  0.000000D+00  0.180027D-01  0.000000D+00  0.000000D+00
     19  0.000000D+00  0.000000D+00  0.000000D+00  0.000000D+00  0.000000D+00
     20  0.000000D+00  0.000000D+00  0.000000D+00  0.000000D+00  0.000000D+00
     21  0.000000D+00  0.000000D+00  0.703148D-02  0.000000D+00  0.000000D+00
     22  0.760156D-02 -0.262446D-01  0.000000D+00 -0.168217D+00 -0.108004D+00
     23 -0.394138D-02  0.136077D-01  0.000000D+00 -0.102778D+00 -0.310441D+00
     24  0.000000D+00  0.000000D+00  0.295845D-01  0.000000D+00  0.000000D+00
     25 -0.271249D+00  0.120707D+00  0.000000D+00 -0.519280D-02  0.179283D-01
     26  0.122326D+00 -0.206800D+00  0.000000D+00 -0.679449D-02  0.234582D-01
     27  0.000000D+00  0.000000D+00 -0.814255D-01  0.000000D+00  0.000000D+00
                6             7             8             9            10 
      6  0.197193D+00
      7  0.000000D+00  0.551909D+00
      8  0.000000D+00  0.000000D+00  0.723204D+00
      9 -0.472115D-01  0.000000D+00  0.000000D+00  0.567211D-01
     10  0.000000D+00 -0.289302D+00 -0.212644D+00  0.000000D+00  0.940723D+00
     11  0.000000D+00 -0.168432D+00 -0.374940D+00  0.000000D+00 -0.222648D-01
     12 -0.169673D-02  0.000000D+00  0.000000D+00 -0.472115D-01  0.000000D+00
     13  0.000000D+00 -0.847936D-02  0.629794D-02  0.000000D+00 -0.512400D+00
     14  0.000000D+00 -0.292752D-01  0.217438D-01  0.000000D+00  0.107252D+00
     15 -0.114437D-02  0.000000D+00  0.000000D+00  0.744560D-02  0.000000D+00
     16  0.000000D+00  0.000000D+00  0.000000D+00  0.000000D+00 -0.519280D-02
     17  0.000000D+00  0.000000D+00  0.000000D+00  0.000000D+00  0.679449D-02
     18  0.419500D-02  0.000000D+00  0.000000D+00  0.682264D-02  0.000000D+00
     19  0.000000D+00  0.218269D-01 -0.162117D-01  0.000000D+00 -0.168217D+00
     20  0.000000D+00  0.113172D-01 -0.840572D-02  0.000000D+00  0.102778D+00
     21  0.490261D-02  0.000000D+00  0.000000D+00  0.458270D-02  0.000000D+00
     22  0.000000D+00  0.218269D-01  0.162117D-01  0.000000D+00  0.000000D+00
     23  0.000000D+00 -0.113172D-01 -0.840572D-02  0.000000D+00  0.000000D+00
     24 -0.772883D-01  0.000000D+00  0.000000D+00  0.458270D-02  0.000000D+00
     25  0.000000D+00  0.000000D+00  0.000000D+00  0.000000D+00  0.000000D+00
     26  0.000000D+00  0.000000D+00  0.000000D+00  0.000000D+00  0.000000D+00
     27  0.262030D-01  0.000000D+00  0.000000D+00  0.682264D-02  0.000000D+00
               11            12            13            14            15 
     11  0.891463D+00
     12  0.000000D+00  0.197193D+00
     13  0.840374D-01  0.000000D+00  0.924213D+00
     14 -0.216108D+00  0.000000D+00  0.280496D-01  0.794695D+00
     15  0.000000D+00 -0.105153D+00  0.000000D+00  0.000000D+00  0.206887D+00
     16 -0.179283D-01  0.000000D+00 -0.271249D+00 -0.120707D+00  0.000000D+00
     17  0.234582D-01  0.000000D+00 -0.122326D+00 -0.206800D+00  0.000000D+00
     18  0.000000D+00  0.262030D-01  0.000000D+00  0.000000D+00 -0.814255D-01
     19  0.108004D+00  0.000000D+00  0.760156D-02  0.262446D-01  0.000000D+00
     20 -0.310441D+00  0.000000D+00  0.394138D-02  0.136077D-01  0.000000D+00
     21  0.000000D+00 -0.772883D-01  0.000000D+00  0.000000D+00  0.295845D-01
     22  0.000000D+00  0.000000D+00  0.000000D+00  0.000000D+00  0.000000D+00
     23  0.000000D+00  0.000000D+00  0.000000D+00  0.000000D+00  0.000000D+00
     24  0.000000D+00  0.490261D-02  0.000000D+00  0.000000D+00  0.703148D-02
     25  0.000000D+00  0.000000D+00  0.176569D-01  0.000000D+00  0.000000D+00
     26  0.000000D+00  0.000000D+00  0.231031D-01  0.000000D+00  0.000000D+00
     27  0.000000D+00  0.419500D-02  0.000000D+00  0.000000D+00  0.180027D-01
               16            17            18            19            20 
     16  0.258784D+00
     17  0.138635D+00  0.183342D+00
     18  0.000000D+00  0.000000D+00  0.437604D-01
     19  0.000000D+00  0.000000D+00  0.000000D+00  0.138789D+00
     20  0.000000D+00  0.000000D+00  0.000000D+00 -0.118037D+00  0.305239D+00
     21  0.000000D+00  0.000000D+00 -0.111742D-01  0.000000D+00  0.000000D+00
     22  0.000000D+00  0.000000D+00  0.000000D+00  0.000000D+00  0.000000D+00
     23  0.000000D+00  0.000000D+00  0.000000D+00  0.000000D+00  0.000000D+00
     24  0.000000D+00  0.000000D+00  0.000000D+00  0.000000D+00  0.000000D+00
     25  0.000000D+00  0.000000D+00  0.000000D+00  0.000000D+00  0.000000D+00
     26  0.000000D+00  0.000000D+00  0.000000D+00  0.000000D+00  0.000000D+00
     27  0.000000D+00  0.000000D+00 -0.638405D-02  0.000000D+00  0.000000D+00
               21            22            23            24            25 
     21  0.423613D-01
     22  0.000000D+00  0.138789D+00
     23  0.000000D+00  0.118037D+00  0.305239D+00
     24  0.000000D+00  0.000000D+00  0.000000D+00  0.423613D-01
     25  0.000000D+00  0.000000D+00  0.000000D+00  0.000000D+00  0.258784D+00
     26  0.000000D+00  0.000000D+00  0.000000D+00  0.000000D+00 -0.138635D+00
     27  0.000000D+00  0.000000D+00  0.000000D+00 -0.111742D-01  0.000000D+00
               26            27 
     26  0.183342D+00
     27  0.000000D+00  0.437604D-01
 Leave Link  716 at Tue Oct  6 15:41:39 2015, MaxMem=    33554432 cpu:         0.0
 (Enter /home/Applications/g09/g09/l103.exe)

 GradGradGradGradGradGradGradGradGradGradGradGradGradGradGradGradGradGrad
 Berny optimization.
 Search for a local minimum.
 Step number   1 out of a maximum of    2
 All quantities printed in internal units (Hartrees-Bohrs-Radians)
 Second derivative matrix not updated -- first step.
 ITU=  0
     Eigenvalues ---    0.01909   0.03141   0.07126   0.07691   0.07808
     Eigenvalues ---    0.08747   0.13104   0.14637   0.16226   0.24533
     Eigenvalues ---    0.26538   0.31677   0.39564   0.44355   0.64083
     Eigenvalues ---    0.84260   1.09116   1.36585   1.42549   1.55968
     Eigenvalues ---    1.63590
 Angle between quadratic step and forces=  51.06 degrees.
 ClnCor:  largest displacement from symmetrization is 4.12D-15 for atom     5.
 Linear search not attempted -- first point.
 ClnCor:  largest displacement from symmetrization is 4.44D-16 for atom     5.
 TrRot= -0.012167  0.000000  0.000000  0.000000  0.000000  0.000000
 Variable       Old X    -DE/DX   Delta X   Delta X   Delta X     New X
                                 (Linear)    (Quad)   (Total)
    X1        1.80559   0.06357   0.00000   0.08656   0.07439   1.87998
    Y1       -1.35297   0.04454   0.00000   0.04983   0.04983  -1.30315
    Z1        0.00000   0.00000   0.00000   0.00000   0.00000   0.00000
    X2       -0.65314  -0.04412   0.00000  -0.03821  -0.05038  -0.70352
    Y2       -2.06513  -0.00613   0.00000   0.05383   0.05383  -2.01130
    Z2        0.00000   0.00000   0.00000   0.00000   0.00000   0.00000
    X3       -2.18699  -0.03895   0.00000  -0.14225  -0.15442  -2.34141
    Y3        0.00000   0.00000   0.00000   0.00000   0.00000   0.00000
    Z3        0.00000   0.00000   0.00000   0.00000   0.00000   0.00000
    X4       -0.65314  -0.04412   0.00000  -0.03821  -0.05038  -0.70352
    Y4        2.06513   0.00613   0.00000  -0.05383  -0.05383   2.01130
    Z4        0.00000   0.00000   0.00000   0.00000   0.00000   0.00000
    X5        1.80559   0.06357   0.00000   0.08656   0.07439   1.87998
    Y5        1.35297  -0.04454   0.00000  -0.04983  -0.04983   1.30315
    Z5        0.00000   0.00000   0.00000   0.00000   0.00000   0.00000
    X6        3.42123   0.00104   0.00000   0.10208   0.08991   3.51115
    Y6        2.58776  -0.00368   0.00000  -0.07649  -0.07649   2.51126
    Z6        0.00000   0.00000   0.00000   0.00000   0.00000   0.00000
    X7       -1.58795  -0.00101   0.00000  -0.02455  -0.03672  -1.62467
    Y7        3.86805  -0.00059   0.00000  -0.04693  -0.04693   3.82112
    Z7        0.00000   0.00000   0.00000   0.00000   0.00000   0.00000
    X8       -1.58795  -0.00101   0.00000  -0.02455  -0.03672  -1.62467
    Y8       -3.86805   0.00059   0.00000   0.04693   0.04693  -3.82112
    Z8        0.00000   0.00000   0.00000   0.00000   0.00000   0.00000
    X9        3.42123   0.00104   0.00000   0.10208   0.08991   3.51115
    Y9       -2.58776   0.00368   0.00000   0.07649   0.07649  -2.51126
    Z9        0.00000   0.00000   0.00000   0.00000   0.00000   0.00000
         Item               Value     Threshold  Converged?
 Maximum Force            0.063568     0.000450     NO 
 RMS     Force            0.025508     0.000300     NO 
 Maximum Displacement     0.154417     0.001800     NO 
 RMS     Displacement     0.056346     0.001200     NO 
 Predicted change in Energy=-1.228827D-02
 GradGradGradGradGradGradGradGradGradGradGradGradGradGradGradGradGradGrad

 Leave Link  103 at Tue Oct  6 15:41:39 2015, MaxMem=    33554432 cpu:         0.0
 (Enter /home/Applications/g09/g09/l9999.exe)
 1\1\GINC-DUSTIN-DESKTOP\Force\RAM1-FC\STO-3G\C4H4O1\DUSTIN\06-Oct-2015
 \0\\#P AM1(Input,print) CIS(Singlets,NStates=15) pop(full) force\\AM1-
 Reparam Input\\0,1\C,0.955475,-0.715963,0.\C,-0.345627,-1.092818,0.\O,
 -1.157305,0.,0.\C,-0.345627,1.092818,0.\C,0.955475,0.715963,0.\H,1.810
 438,1.369382,0.\H,-0.840307,2.046884,0.\H,-0.840307,-2.046884,0.\H,1.8
 10438,-1.369382,0.\\Version=ES64L-G09RevD.01\State=1-A1\HF=-0.3120395\
 RMSD=3.490e-09\RMSF=2.551e-02\Dipole=0.0822433,0.,0.\PG=C02V [C2(O1),S
 GV(C4H4)]\\@


 I WANT TO KNOW HOW GOD CREATED THE WORLD.  I AM NOT INTERESTED IN
 THIS OR THAT PHENOMENON, IN THE SPECTRUM OF THIS OR THAT ELEMENT.
 I WANT TO KNOW HIS THOUGHTS, THE REST ARE DETAILS.
     -- ALBERT EINSTEIN
 Job cpu time:       0 days  0 hours  0 minutes  0.4 seconds.
 File lengths (MBytes):  RWF=      7 Int=      0 D2E=      0 Chk=      2 Scr=      1
 Normal termination of Gaussian 09 at Tue Oct  6 15:41:39 2015.
