 Entering Gaussian System, Link 0=g09
 Input=FuranDFT_44.com
 Output=FuranDFT_44.log
 Initial command:
 /home/Applications/g09/g09/l1.exe "/home/Applications/g09/scratch/Gau-5885.inp" -scrdir="/home/Applications/g09/scratch/"
 Entering Link 1 = /home/Applications/g09/g09/l1.exe PID=      5887.
  
 Copyright (c) 1988,1990,1992,1993,1995,1998,2003,2009,2013,
            Gaussian, Inc.  All Rights Reserved.
  
 This is part of the Gaussian(R) 09 program.  It is based on
 the Gaussian(R) 03 system (copyright 2003, Gaussian, Inc.),
 the Gaussian(R) 98 system (copyright 1998, Gaussian, Inc.),
 the Gaussian(R) 94 system (copyright 1995, Gaussian, Inc.),
 the Gaussian 92(TM) system (copyright 1992, Gaussian, Inc.),
 the Gaussian 90(TM) system (copyright 1990, Gaussian, Inc.),
 the Gaussian 88(TM) system (copyright 1988, Gaussian, Inc.),
 the Gaussian 86(TM) system (copyright 1986, Carnegie Mellon
 University), and the Gaussian 82(TM) system (copyright 1983,
 Carnegie Mellon University). Gaussian is a federally registered
 trademark of Gaussian, Inc.
  
 This software contains proprietary and confidential information,
 including trade secrets, belonging to Gaussian, Inc.
  
 This software is provided under written license and may be
 used, copied, transmitted, or stored only in accord with that
 written license.
  
 The following legend is applicable only to US Government
 contracts under FAR:
  
                    RESTRICTED RIGHTS LEGEND
  
 Use, reproduction and disclosure by the US Government is
 subject to restrictions as set forth in subparagraphs (a)
 and (c) of the Commercial Computer Software - Restricted
 Rights clause in FAR 52.227-19.
  
 Gaussian, Inc.
 340 Quinnipiac St., Bldg. 40, Wallingford CT 06492
  
  
 ---------------------------------------------------------------
 Warning -- This program may not be used in any manner that
 competes with the business of Gaussian, Inc. or will provide
 assistance to any competitor of Gaussian, Inc.  The licensee
 of this program is prohibited from giving any competitor of
 Gaussian, Inc. access to this program.  By using this program,
 the user acknowledges that Gaussian, Inc. is engaged in the
 business of creating and licensing software in the field of
 computational chemistry and represents and warrants to the
 licensee that it is not a competitor of Gaussian, Inc. and that
 it will not use this program in any manner prohibited above.
 ---------------------------------------------------------------
  

 Cite this work as:
 Gaussian 09, Revision D.01,
 M. J. Frisch, G. W. Trucks, H. B. Schlegel, G. E. Scuseria, 
 M. A. Robb, J. R. Cheeseman, G. Scalmani, V. Barone, B. Mennucci, 
 G. A. Petersson, H. Nakatsuji, M. Caricato, X. Li, H. P. Hratchian, 
 A. F. Izmaylov, J. Bloino, G. Zheng, J. L. Sonnenberg, M. Hada, 
 M. Ehara, K. Toyota, R. Fukuda, J. Hasegawa, M. Ishida, T. Nakajima, 
 Y. Honda, O. Kitao, H. Nakai, T. Vreven, J. A. Montgomery, Jr., 
 J. E. Peralta, F. Ogliaro, M. Bearpark, J. J. Heyd, E. Brothers, 
 K. N. Kudin, V. N. Staroverov, T. Keith, R. Kobayashi, J. Normand, 
 K. Raghavachari, A. Rendell, J. C. Burant, S. S. Iyengar, J. Tomasi, 
 M. Cossi, N. Rega, J. M. Millam, M. Klene, J. E. Knox, J. B. Cross, 
 V. Bakken, C. Adamo, J. Jaramillo, R. Gomperts, R. E. Stratmann, 
 O. Yazyev, A. J. Austin, R. Cammi, C. Pomelli, J. W. Ochterski, 
 R. L. Martin, K. Morokuma, V. G. Zakrzewski, G. A. Voth, 
 P. Salvador, J. J. Dannenberg, S. Dapprich, A. D. Daniels, 
 O. Farkas, J. B. Foresman, J. V. Ortiz, J. Cioslowski, 
 and D. J. Fox, Gaussian, Inc., Wallingford CT, 2013.
 
 ******************************************
 Gaussian 09:  ES64L-G09RevD.01 24-Apr-2013
                15-Dec-2015 
 ******************************************
 -------------------------------------------------------
 #P B3LYP/3-21G CIS(Singlets,NStates=15) pop(full) force
 -------------------------------------------------------
 1/10=7,30=1,38=1/1,3;
 2/12=2,17=6,18=5,40=1/2;
 3/5=5,11=9,16=1,25=1,30=1,71=1,74=-5/1,2,8,3;
 4//1;
 5/5=2,38=5/2;
 8/6=1,10=1,108=15/1;
 9/15=2,41=15,42=1,48=1/14;
 10/5=4/2;
 6/7=3,18=1/1;
 7/12=6,13=5,29=1/1,2,3,16;
 1/10=7,30=1/3;
 99//99;
 Leave Link    1 at Tue Dec 15 16:19:40 2015, MaxMem=           0 cpu:         0.0
 (Enter /home/Applications/g09/g09/l101.exe)
 --------
 FuranDFT
 --------
 Symbolic Z-matrix:
 Charge =  0 Multiplicity = 1
 6                     0.99198  -0.67839  -0.03492 
 6                    -0.29747  -1.10581   0.03672 
 8                    -1.17805  -0.00939  -0.01767 
 6                    -0.29593   1.09757   0.00614 
 6                     0.9976    0.76509  -0.02493 
 1                     1.78128   1.3881    0.0197 
 1                    -0.83399   2.07003   0.0017 
 1                    -0.81541  -2.02692  -0.02094 
 1                     1.82672  -1.36003   0.02898 
 
 NAtoms=      9 NQM=        9 NQMF=       0 NMMI=      0 NMMIF=      0
                NMic=       0 NMicF=      0.
                    Isotopes and Nuclear Properties:
 (Nuclear quadrupole moments (NQMom) in fm**2, nuclear magnetic moments (NMagM)
  in nuclear magnetons)

  Atom         1           2           3           4           5           6           7           8           9
 IAtWgt=          12          12          16          12          12           1           1           1           1
 AtmWgt=  12.0000000  12.0000000  15.9949146  12.0000000  12.0000000   1.0078250   1.0078250   1.0078250   1.0078250
 NucSpn=           0           0           0           0           0           1           1           1           1
 AtZEff=   0.0000000   0.0000000   0.0000000   0.0000000   0.0000000   0.0000000   0.0000000   0.0000000   0.0000000
 NQMom=    0.0000000   0.0000000   0.0000000   0.0000000   0.0000000   0.0000000   0.0000000   0.0000000   0.0000000
 NMagM=    0.0000000   0.0000000   0.0000000   0.0000000   0.0000000   2.7928460   2.7928460   2.7928460   2.7928460
 AtZNuc=   6.0000000   6.0000000   8.0000000   6.0000000   6.0000000   1.0000000   1.0000000   1.0000000   1.0000000
 Leave Link  101 at Tue Dec 15 16:19:40 2015, MaxMem=    33554432 cpu:         0.0
 (Enter /home/Applications/g09/g09/l103.exe)

 GradGradGradGradGradGradGradGradGradGradGradGradGradGradGradGradGradGrad
 Berny optimization.
 Initialization pass.
 Trust Radius=3.00D-01 FncErr=1.00D-07 GrdErr=1.00D-07
 Number of steps in this run=      2 maximum allowed number of steps=      2.
 GradGradGradGradGradGradGradGradGradGradGradGradGradGradGradGradGradGrad

 Leave Link  103 at Tue Dec 15 16:19:40 2015, MaxMem=    33554432 cpu:         0.0
 (Enter /home/Applications/g09/g09/l202.exe)
                          Input orientation:                          
 ---------------------------------------------------------------------
 Center     Atomic      Atomic             Coordinates (Angstroms)
 Number     Number       Type             X           Y           Z
 ---------------------------------------------------------------------
      1          6           0        0.991981   -0.678391   -0.034919
      2          6           0       -0.297474   -1.105809    0.036716
      3          8           0       -1.178054   -0.009394   -0.017674
      4          6           0       -0.295931    1.097565    0.006137
      5          6           0        0.997595    0.765092   -0.024925
      6          1           0        1.781280    1.388101    0.019703
      7          1           0       -0.833985    2.070033    0.001697
      8          1           0       -0.815409   -2.026919   -0.020944
      9          1           0        1.826721   -1.360028    0.028976
 ---------------------------------------------------------------------
                    Distance matrix (angstroms):
                    1          2          3          4          5
     1  C    0.000000
     2  C    1.360335   0.000000
     3  O    2.270882   1.407304   0.000000
     4  C    2.194179   2.203587   1.415650   0.000000
     5  C    1.443529   2.276241   2.309400   1.335931   0.000000
     6  H    2.212773   3.246705   3.272926   2.097475   1.002145
     7  H    3.299898   3.221031   2.107789   1.111403   2.249059
     8  H    2.255079   1.058312   2.049861   3.167490   3.329013
     9  H    1.079584   2.139367   3.294702   3.247451   2.281773
                    6          7          8          9
     6  H    0.000000
     7  H    2.702770   0.000000
     8  H    4.290316   4.097057   0.000000
     9  H    2.748520   4.341131   2.725452   0.000000
 Stoichiometry    C4H4O
 Framework group  C1[X(C4H4O)]
 Deg. of freedom    21
 Full point group                 C1      NOp   1
 Largest Abelian subgroup         C1      NOp   1
 Largest concise Abelian subgroup C1      NOp   1
                         Standard orientation:                         
 ---------------------------------------------------------------------
 Center     Atomic      Atomic             Coordinates (Angstroms)
 Number     Number       Type             X           Y           Z
 ---------------------------------------------------------------------
      1          6           0        0.269649    1.157506   -0.027083
      2          6           0        1.157473    0.128801    0.036511
      3          8           0        0.480125   -1.103581   -0.017696
      4          6           0       -0.879646   -0.711124    0.014942
      5          6           0       -1.066506    0.611417   -0.011165
      6          1           0       -1.941303    1.097651    0.039832
      7          1           0       -1.572960   -1.579756    0.011849
      8          1           0        2.206221    0.002054   -0.027439
      9          1           0        0.581217    2.189097    0.038100
 ---------------------------------------------------------------------
 Rotational constants (GHZ):      9.4642409      8.9279955      4.5972731
 Leave Link  202 at Tue Dec 15 16:19:40 2015, MaxMem=    33554432 cpu:         0.0
 (Enter /home/Applications/g09/g09/l301.exe)
 Standard basis: 3-21G (6D, 7F)
 Ernie: Thresh=  0.10000D-02 Tol=  0.10000D-05 Strict=F.
 There are    53 symmetry adapted cartesian basis functions of A   symmetry.
 There are    53 symmetry adapted basis functions of A   symmetry.
    53 basis functions,    87 primitive gaussians,    53 cartesian basis functions
    18 alpha electrons       18 beta electrons
       nuclear repulsion energy       159.4124104041 Hartrees.
 IExCor=  402 DFT=T Ex+Corr=B3LYP ExCW=0 ScaHFX=  0.200000
 ScaDFX=  0.800000  0.720000  1.000000  0.810000 ScalE2=  1.000000  1.000000
 IRadAn=      0 IRanWt=     -1 IRanGd=            0 ICorTp=0 IEmpDi=  4
 NAtoms=    9 NActive=    9 NUniq=    9 SFac= 1.00D+00 NAtFMM=   60 NAOKFM=F Big=F
 Integral buffers will be    131072 words long.
 Regular integral format.
 Two-electron integral symmetry is turned on.
 Leave Link  301 at Tue Dec 15 16:19:40 2015, MaxMem=    33554432 cpu:         0.0
 (Enter /home/Applications/g09/g09/l302.exe)
 NPDir=0 NMtPBC=     1 NCelOv=     1 NCel=       1 NClECP=     1 NCelD=      1
         NCelK=      1 NCelE2=     1 NClLst=     1 CellRange=     0.0.
 One-electron integrals computed using PRISM.
 NBasis=    53 RedAO= T EigKep=  3.28D-03  NBF=    53
 NBsUse=    53 1.00D-06 EigRej= -1.00D+00 NBFU=    53
 Precomputing XC quadrature grid using
 IXCGrd= 4 IRadAn=           0 IRanWt=          -1 IRanGd=           0 AccXCQ= 0.00D+00.
 Generated NRdTot=       0 NPtTot=           0 NUsed=           0 NTot=          32
 NSgBfM=    53    53    53    53    53 MxSgAt=     9 MxSgA2=     9.
 Leave Link  302 at Tue Dec 15 16:19:40 2015, MaxMem=    33554432 cpu:         0.1
 (Enter /home/Applications/g09/g09/l308.exe)
 Leave Link  308 at Tue Dec 15 16:19:40 2015, MaxMem=    33554432 cpu:         0.0
 (Enter /home/Applications/g09/g09/l303.exe)
 DipDrv:  MaxL=1.
 Leave Link  303 at Tue Dec 15 16:19:40 2015, MaxMem=    33554432 cpu:         0.0
 (Enter /home/Applications/g09/g09/l401.exe)
 ExpMin= 1.83D-01 ExpMax= 3.22D+02 ExpMxC= 3.22D+02 IAcc=1 IRadAn=         1 AccDes= 0.00D+00
 Harris functional with IExCor=  402 and IRadAn=       1 diagonalized for initial guess.
 HarFok:  IExCor=  402 AccDes= 0.00D+00 IRadAn=         1 IDoV= 1 UseB2=F ITyADJ=14
 ICtDFT=  3500011 ScaDFX=  1.000000  1.000000  1.000000  1.000000
 FoFCou: FMM=F IPFlag=           0 FMFlag=      100000 FMFlg1=           0
         NFxFlg=           0 DoJE=T BraDBF=F KetDBF=T FulRan=T
         wScrn=  0.000000 ICntrl=     500 IOpCl=  0 I1Cent=   200000004 NGrid=           0
         NMat0=    1 NMatS0=      1 NMatT0=    0 NMatD0=    1 NMtDS0=    0 NMtDT0=    0
 Petite list used in FoFCou.
 Harris En= -228.736094440788    
 JPrj=0 DoOrth=F DoCkMO=F.
 Leave Link  401 at Tue Dec 15 16:19:41 2015, MaxMem=    33554432 cpu:         0.3
 (Enter /home/Applications/g09/g09/l502.exe)
 Closed shell SCF:
 Using DIIS extrapolation, IDIIS=  1040.
 Integral symmetry usage will be decided dynamically.
 Keep R1 ints in memory in canonical form, NReq=1925595.
 IVT=       27707 IEndB=       27707 NGot=    33554432 MDV=    32502130
 LenX=    32502130 LenY=    32498880
 Requested convergence on RMS density matrix=1.00D-08 within 128 cycles.
 Requested convergence on MAX density matrix=1.00D-06.
 Requested convergence on             energy=1.00D-06.
 No special actions if energy rises.
 FoFCou: FMM=F IPFlag=           0 FMFlag=           0 FMFlg1=           0
         NFxFlg=           0 DoJE=F BraDBF=F KetDBF=F FulRan=T
         wScrn=  0.000000 ICntrl=     600 IOpCl=  0 I1Cent=           0 NGrid=           0
         NMat0=    1 NMatS0=   1431 NMatT0=    0 NMatD0=    1 NMtDS0=    0 NMtDT0=    0
 Symmetry not used in FoFCou.
 Integral accuracy reduced to 1.0D-05 until final iterations.

 Cycle   1  Pass 0  IDiag  1:
 E= -228.661051663712    
 DIIS: error= 3.29D-02 at cycle   1 NSaved=   1.
 NSaved= 1 IEnMin= 1 EnMin= -228.661051663712     IErMin= 1 ErrMin= 3.29D-02
 ErrMax= 3.29D-02  0.00D+00 EMaxC= 1.00D-01 BMatC= 7.84D-02 BMatP= 7.84D-02
 IDIUse=3 WtCom= 6.71D-01 WtEn= 3.29D-01
 Coeff-Com:  0.100D+01
 Coeff-En:   0.100D+01
 Coeff:      0.100D+01
 Gap=     0.222 Goal=   None    Shift=    0.000
 GapD=    0.222 DampG=1.000 DampE=0.500 DampFc=0.5000 IDamp=-1.
 Damping current iteration by 5.00D-01
 RMSDP=1.21D-02 MaxDP=1.10D-01              OVMax= 2.18D-01

 Cycle   2  Pass 0  IDiag  1:
 E= -228.689380476817     Delta-E=       -0.028328813105 Rises=F Damp=T
 DIIS: error= 1.62D-02 at cycle   2 NSaved=   2.
 NSaved= 2 IEnMin= 2 EnMin= -228.689380476817     IErMin= 2 ErrMin= 1.62D-02
 ErrMax= 1.62D-02  0.00D+00 EMaxC= 1.00D-01 BMatC= 1.08D-02 BMatP= 7.84D-02
 IDIUse=3 WtCom= 8.38D-01 WtEn= 1.62D-01
 Coeff-Com:  0.148D+00 0.852D+00
 Coeff-En:   0.256D+00 0.744D+00
 Coeff:      0.165D+00 0.835D+00
 Gap=     0.238 Goal=   None    Shift=    0.000
 RMSDP=4.68D-03 MaxDP=4.02D-02 DE=-2.83D-02 OVMax= 1.86D-01

 Cycle   3  Pass 0  IDiag  1:
 E= -228.731121081240     Delta-E=       -0.041740604423 Rises=F Damp=F
 DIIS: error= 2.15D-02 at cycle   3 NSaved=   3.
 NSaved= 3 IEnMin= 3 EnMin= -228.731121081240     IErMin= 2 ErrMin= 1.62D-02
 ErrMax= 2.15D-02  0.00D+00 EMaxC= 1.00D-01 BMatC= 1.29D-02 BMatP= 1.08D-02
 IDIUse=2 WtCom= 0.00D+00 WtEn= 1.00D+00
 Coeff-En:   0.000D+00 0.000D+00 0.100D+01
 Coeff:      0.000D+00 0.000D+00 0.100D+01
 Gap=     0.232 Goal=   None    Shift=    0.000
 RMSDP=6.11D-03 MaxDP=5.07D-02 DE=-4.17D-02 OVMax= 1.32D-01

 Cycle   4  Pass 0  IDiag  1:
 E= -228.695798294885     Delta-E=        0.035322786355 Rises=F Damp=F
 DIIS: error= 4.43D-02 at cycle   4 NSaved=   4.
 NSaved= 4 IEnMin= 3 EnMin= -228.731121081240     IErMin= 2 ErrMin= 1.62D-02
 ErrMax= 4.43D-02  0.00D+00 EMaxC= 1.00D-01 BMatC= 5.29D-02 BMatP= 1.08D-02
 IDIUse=2 WtCom= 0.00D+00 WtEn= 1.00D+00
 Coeff-En:   0.000D+00 0.000D+00 0.754D+00 0.246D+00
 Coeff:      0.000D+00 0.000D+00 0.754D+00 0.246D+00
 Gap=     0.244 Goal=   None    Shift=    0.000
 RMSDP=3.07D-03 MaxDP=2.53D-02 DE= 3.53D-02 OVMax= 7.26D-02

 Cycle   5  Pass 0  IDiag  1:
 E= -228.740030363583     Delta-E=       -0.044232068698 Rises=F Damp=F
 DIIS: error= 1.04D-02 at cycle   5 NSaved=   5.
 NSaved= 5 IEnMin= 5 EnMin= -228.740030363583     IErMin= 5 ErrMin= 1.04D-02
 ErrMax= 1.04D-02  0.00D+00 EMaxC= 1.00D-01 BMatC= 2.99D-03 BMatP= 1.08D-02
 IDIUse=3 WtCom= 8.96D-01 WtEn= 1.04D-01
 Coeff-Com: -0.721D-02 0.266D-01 0.251D+00-0.826D-01 0.812D+00
 Coeff-En:   0.000D+00 0.000D+00 0.230D+00 0.000D+00 0.770D+00
 Coeff:     -0.646D-02 0.238D-01 0.249D+00-0.739D-01 0.808D+00
 Gap=     0.248 Goal=   None    Shift=    0.000
 RMSDP=1.06D-03 MaxDP=8.69D-03 DE=-4.42D-02 OVMax= 2.34D-02

 Cycle   6  Pass 0  IDiag  1:
 E= -228.742680086034     Delta-E=       -0.002649722451 Rises=F Damp=F
 DIIS: error= 6.41D-04 at cycle   6 NSaved=   6.
 NSaved= 6 IEnMin= 6 EnMin= -228.742680086034     IErMin= 6 ErrMin= 6.41D-04
 ErrMax= 6.41D-04  0.00D+00 EMaxC= 1.00D-01 BMatC= 1.42D-05 BMatP= 2.99D-03
 IDIUse=3 WtCom= 9.94D-01 WtEn= 6.41D-03
 Coeff-Com: -0.560D-02 0.129D-01 0.675D-01-0.409D-01 0.323D+00 0.643D+00
 Coeff-En:   0.000D+00 0.000D+00 0.000D+00 0.000D+00 0.000D+00 0.100D+01
 Coeff:     -0.557D-02 0.128D-01 0.670D-01-0.406D-01 0.321D+00 0.645D+00
 Gap=     0.248 Goal=   None    Shift=    0.000
 RMSDP=7.72D-05 MaxDP=6.60D-04 DE=-2.65D-03 OVMax= 1.51D-03

 Cycle   7  Pass 0  IDiag  1:
 E= -228.742693029414     Delta-E=       -0.000012943380 Rises=F Damp=F
 DIIS: error= 1.74D-04 at cycle   7 NSaved=   7.
 NSaved= 7 IEnMin= 7 EnMin= -228.742693029414     IErMin= 7 ErrMin= 1.74D-04
 ErrMax= 1.74D-04  0.00D+00 EMaxC= 1.00D-01 BMatC= 7.61D-07 BMatP= 1.42D-05
 IDIUse=3 WtCom= 9.98D-01 WtEn= 1.74D-03
 Coeff-Com: -0.284D-02 0.562D-02 0.182D-01-0.185D-01 0.128D+00 0.411D+00
 Coeff-Com:  0.459D+00
 Coeff-En:   0.000D+00 0.000D+00 0.000D+00 0.000D+00 0.000D+00 0.000D+00
 Coeff-En:   0.100D+01
 Coeff:     -0.283D-02 0.561D-02 0.182D-01-0.184D-01 0.128D+00 0.410D+00
 Coeff:      0.460D+00
 Gap=     0.248 Goal=   None    Shift=    0.000
 RMSDP=1.69D-05 MaxDP=2.11D-04 DE=-1.29D-05 OVMax= 5.03D-04

 Cycle   8  Pass 0  IDiag  1:
 E= -228.742693831365     Delta-E=       -0.000000801951 Rises=F Damp=F
 DIIS: error= 1.91D-05 at cycle   8 NSaved=   8.
 NSaved= 8 IEnMin= 8 EnMin= -228.742693831365     IErMin= 8 ErrMin= 1.91D-05
 ErrMax= 1.91D-05  0.00D+00 EMaxC= 1.00D-01 BMatC= 1.14D-08 BMatP= 7.61D-07
 IDIUse=1 WtCom= 1.00D+00 WtEn= 0.00D+00
 Coeff-Com: -0.351D-03 0.345D-03 0.241D-02-0.227D-02 0.207D-01 0.114D+00
 Coeff-Com:  0.160D+00 0.706D+00
 Coeff:     -0.351D-03 0.345D-03 0.241D-02-0.227D-02 0.207D-01 0.114D+00
 Coeff:      0.160D+00 0.706D+00
 Gap=     0.248 Goal=   None    Shift=    0.000
 RMSDP=1.79D-06 MaxDP=1.93D-05 DE=-8.02D-07 OVMax= 3.09D-05

 Initial convergence to 1.0D-05 achieved.  Increase integral accuracy.
 Cycle   9  Pass 1  IDiag  1:
 E= -228.742688980797     Delta-E=        0.000004850568 Rises=F Damp=F
 DIIS: error= 9.66D-06 at cycle   1 NSaved=   1.
 NSaved= 1 IEnMin= 1 EnMin= -228.742688980797     IErMin= 1 ErrMin= 9.66D-06
 ErrMax= 9.66D-06  0.00D+00 EMaxC= 1.00D-01 BMatC= 4.66D-09 BMatP= 4.66D-09
 IDIUse=1 WtCom= 1.00D+00 WtEn= 0.00D+00
 Coeff-Com:  0.100D+01
 Coeff:      0.100D+01
 Gap=     0.248 Goal=   None    Shift=    0.000
 RMSDP=1.79D-06 MaxDP=1.93D-05 DE= 4.85D-06 OVMax= 3.41D-05

 Cycle  10  Pass 1  IDiag  1:
 E= -228.742688985822     Delta-E=       -0.000000005025 Rises=F Damp=F
 DIIS: error= 7.34D-06 at cycle   2 NSaved=   2.
 NSaved= 2 IEnMin= 2 EnMin= -228.742688985822     IErMin= 2 ErrMin= 7.34D-06
 ErrMax= 7.34D-06  0.00D+00 EMaxC= 1.00D-01 BMatC= 1.74D-09 BMatP= 4.66D-09
 IDIUse=1 WtCom= 1.00D+00 WtEn= 0.00D+00
 Coeff-Com:  0.306D+00 0.694D+00
 Coeff:      0.306D+00 0.694D+00
 Gap=     0.248 Goal=   None    Shift=    0.000
 RMSDP=1.57D-06 MaxDP=1.95D-05 DE=-5.03D-09 OVMax= 3.27D-05

 Cycle  11  Pass 1  IDiag  1:
 E= -228.742688985691     Delta-E=        0.000000000132 Rises=F Damp=F
 DIIS: error= 8.99D-06 at cycle   3 NSaved=   3.
 NSaved= 3 IEnMin= 2 EnMin= -228.742688985822     IErMin= 2 ErrMin= 7.34D-06
 ErrMax= 8.99D-06  0.00D+00 EMaxC= 1.00D-01 BMatC= 2.07D-09 BMatP= 1.74D-09
 IDIUse=1 WtCom= 1.00D+00 WtEn= 0.00D+00
 Coeff-Com: -0.654D-02 0.524D+00 0.482D+00
 Coeff:     -0.654D-02 0.524D+00 0.482D+00
 Gap=     0.248 Goal=   None    Shift=    0.000
 RMSDP=8.28D-07 MaxDP=9.48D-06 DE= 1.32D-10 OVMax= 1.82D-05

 Cycle  12  Pass 1  IDiag  1:
 E= -228.742688987382     Delta-E=       -0.000000001691 Rises=F Damp=F
 DIIS: error= 1.08D-06 at cycle   4 NSaved=   4.
 NSaved= 4 IEnMin= 4 EnMin= -228.742688987382     IErMin= 4 ErrMin= 1.08D-06
 ErrMax= 1.08D-06  0.00D+00 EMaxC= 1.00D-01 BMatC= 6.82D-11 BMatP= 1.74D-09
 IDIUse=1 WtCom= 1.00D+00 WtEn= 0.00D+00
 Coeff-Com: -0.176D-01 0.290D+00 0.283D+00 0.445D+00
 Coeff:     -0.176D-01 0.290D+00 0.283D+00 0.445D+00
 Gap=     0.248 Goal=   None    Shift=    0.000
 RMSDP=1.76D-07 MaxDP=2.91D-06 DE=-1.69D-09 OVMax= 3.65D-06

 Cycle  13  Pass 1  IDiag  1:
 E= -228.742688987449     Delta-E=       -0.000000000067 Rises=F Damp=F
 DIIS: error= 1.74D-07 at cycle   5 NSaved=   5.
 NSaved= 5 IEnMin= 5 EnMin= -228.742688987449     IErMin= 5 ErrMin= 1.74D-07
 ErrMax= 1.74D-07  0.00D+00 EMaxC= 1.00D-01 BMatC= 7.39D-13 BMatP= 6.82D-11
 IDIUse=1 WtCom= 1.00D+00 WtEn= 0.00D+00
 Coeff-Com: -0.362D-02 0.423D-01 0.322D-01 0.108D+00 0.821D+00
 Coeff:     -0.362D-02 0.423D-01 0.322D-01 0.108D+00 0.821D+00
 Gap=     0.248 Goal=   None    Shift=    0.000
 RMSDP=2.62D-08 MaxDP=2.20D-07 DE=-6.68D-11 OVMax= 5.29D-07

 Cycle  14  Pass 1  IDiag  1:
 E= -228.742688987451     Delta-E=       -0.000000000002 Rises=F Damp=F
 DIIS: error= 4.34D-08 at cycle   6 NSaved=   6.
 NSaved= 6 IEnMin= 6 EnMin= -228.742688987451     IErMin= 6 ErrMin= 4.34D-08
 ErrMax= 4.34D-08  0.00D+00 EMaxC= 1.00D-01 BMatC= 1.09D-13 BMatP= 7.39D-13
 IDIUse=1 WtCom= 1.00D+00 WtEn= 0.00D+00
 Coeff-Com: -0.133D-02 0.130D-01 0.817D-02 0.440D-01 0.467D+00 0.469D+00
 Coeff:     -0.133D-02 0.130D-01 0.817D-02 0.440D-01 0.467D+00 0.469D+00
 Gap=     0.248 Goal=   None    Shift=    0.000
 RMSDP=6.78D-09 MaxDP=8.41D-08 DE=-1.65D-12 OVMax= 1.68D-07

 SCF Done:  E(RB3LYP) =  -228.742688987     A.U. after   14 cycles
            NFock= 14  Conv=0.68D-08     -V/T= 2.0084
 KE= 2.268481380669D+02 PE=-8.514408601471D+02 EE= 2.364376226887D+02
 Leave Link  502 at Tue Dec 15 16:19:44 2015, MaxMem=    33554432 cpu:         3.9
 (Enter /home/Applications/g09/g09/l801.exe)
 DoSCS=F DFT=T ScalE2(SS,OS)=  1.000000  1.000000
 ExpMin= 1.83D-01 ExpMax= 3.22D+02 ExpMxC= 3.22D+02 IAcc=3 IRadAn=         5 AccDes= 0.00D+00
 HarFok:  IExCor=  205 AccDes= 0.00D+00 IRadAn=         5 IDoV=-2 UseB2=F ITyADJ=14
 ICtDFT= 12500011 ScaDFX=  1.000000  1.000000  1.000000  1.000000
 Largest valence mixing into a core orbital is  1.76D-04
 Largest core mixing into a valence orbital is  4.90D-05
 Range of M.O.s used for correlation:     6    53
 NBasis=    53 NAE=    18 NBE=    18 NFC=     5 NFV=     0
 NROrb=     48 NOA=    13 NOB=    13 NVA=    35 NVB=    35
 Leave Link  801 at Tue Dec 15 16:19:45 2015, MaxMem=    33554432 cpu:         0.2
 (Enter /home/Applications/g09/g09/l914.exe)
 RHF ground state
 MDV=    33554432 DFT=T DoStab=F Mixed=T DoRPA=F DoScal=F NonHer=F
 Keep R1, R2, and R3 ints in memory in canonical form, NReq=5596273.
 FoFCou: FMM=F IPFlag=           0 FMFlag=           0 FMFlg1=           0
         NFxFlg=           0 DoJE=F BraDBF=F KetDBF=F FulRan=T
         wScrn=  0.000000 ICntrl=     600 IOpCl=  0 I1Cent=           0 NGrid=           0
         NMat0=    1 NMatS0=   1431 NMatT0=    0 NMatD0=    1 NMtDS0=    0 NMtDT0=    0
 Symmetry not used in FoFCou.
 Making orbital integer symmetry assigments:
 Orbital symmetries:
       Occupied  (A) (A) (A) (A) (A) (A) (A) (A) (A) (A) (A) (A)
                 (A) (A) (A) (A) (A) (A)
       Virtual   (A) (A) (A) (A) (A) (A) (A) (A) (A) (A) (A) (A)
                 (A) (A) (A) (A) (A) (A) (A) (A) (A) (A) (A) (A)
                 (A) (A) (A) (A) (A) (A) (A) (A) (A) (A) (A)
    60 initial guesses have been made.
 Convergence on wavefunction:    0.000001000000000
 Davidson Disk Diagonalization:  ConvIn= 1.00D-06 SkipCon=T Conv= 1.00D-06.
 Max sub-space:   240 roots to seek:    60 dimension of matrix:          910
 Iteration     1 Dimension    60 NMult     0 NNew     60
 CISAX will form    60 AO SS matrices at one time.
 NMat=    60 NSing=    60 JSym2X= 0.
 New state      1 was old state      2
 New state      2 was old state      1
 New state      3 was old state      5
 New state      4 was old state      6
 New state      5 was old state      7
 New state      6 was old state      8
 New state      7 was old state     10
 New state      8 was old state      4
 New state     10 was old state     11
 New state     11 was old state     14
 New state     12 was old state     17
 New state     13 was old state     12
 New state     14 was old state     18
 New state     15 was old state     13
 Excitation Energies [eV] at current iteration:
 Root      1 :     7.308139357844143
 Root      2 :     7.787017882915177
 Root      3 :     8.627285918782448
 Root      4 :     8.802428563982344
 Root      5 :     9.283273656620905
 Root      6 :     9.537981809039637
 Root      7 :     9.811935292279589
 Root      8 :     9.911881536890846
 Root      9 :     9.972540108672918
 Root     10 :    10.410629614972550
 Root     11 :    10.482544937203040
 Root     12 :    10.571360836595130
 Root     13 :    10.590983627127910
 Root     14 :    10.637220854199280
 Root     15 :    10.740681713457950
 Root     16 :    10.795890747926580
 Root     17 :    10.968590392767340
 Root     18 :    11.201837452788060
 Root     19 :    11.371701644095070
 Root     20 :    11.591233672323360
 Root     21 :    11.854675748752540
 Root     22 :    11.899713229419300
 Root     23 :    12.228147769789220
 Root     24 :    12.464660998869660
 Root     25 :    12.695905623355170
 Root     26 :    12.741742684071830
 Root     27 :    13.166772857329850
 Root     28 :    13.446128433543570
 Root     29 :    13.459027959877750
 Root     30 :    13.725205481107500
 Root     31 :    13.802829534547780
 Root     32 :    14.069558791210180
 Root     33 :    14.106500504062340
 Root     34 :    14.151321308821500
 Root     35 :    14.374266146759280
 Root     36 :    14.391965344452030
 Root     37 :    14.448428032953010
 Root     38 :    14.503000319846000
 Root     39 :    14.622590505395000
 Root     40 :    14.712486290266470
 Root     41 :    14.829547828385550
 Root     42 :    14.924392922237570
 Root     43 :    15.003625165771350
 Root     44 :    15.132762504604250
 Root     45 :    15.234229039307350
 Root     46 :    15.334057585636940
 Root     47 :    15.375273276321050
 Root     48 :    15.402708032616280
 Root     49 :    15.539306138277960
 Root     50 :    15.693413297934610
 Root     51 :    15.750026643733280
 Root     52 :    15.876226670345360
 Root     53 :    15.899029379181530
 Root     54 :    16.063775607495470
 Root     55 :    16.105685114933160
 Root     56 :    16.235612250603390
 Root     57 :    16.509726358047940
 Root     58 :    16.886931992839740
 Root     59 :    17.341384288247610
 Root     60 :    19.759887999270680
 Iteration     2 Dimension   120 NMult    60 NNew     60
 CISAX will form    60 AO SS matrices at one time.
 NMat=    60 NSing=    60 JSym2X= 0.
 New state      1 was old state      2
 Root      1 not converged, maximum delta is    0.289056554565999
 New state      2 was old state      1
 Root      2 not converged, maximum delta is    0.373931742967766
 Root      3 not converged, maximum delta is    0.022730124343228
 Root      4 not converged, maximum delta is    0.015790967792930
 Root      5 not converged, maximum delta is    0.024572506255212
 New state      6 was old state      8
 Root      6 not converged, maximum delta is    0.229276092563771
 New state      7 was old state      6
 Root      7 not converged, maximum delta is    0.224432437761919
 New state      8 was old state      7
 Root      8 not converged, maximum delta is    0.332211243652873
 New state      9 was old state     14
 Root      9 not converged, maximum delta is    0.535431646971089
 New state     10 was old state      9
 Root     10 not converged, maximum delta is    0.286341771925895
 New state     11 was old state     10
 Root     11 not converged, maximum delta is    0.147480706022319
 New state     12 was old state     11
 Root     12 not converged, maximum delta is    0.056404552584034
 New state     13 was old state     12
 Root     13 not converged, maximum delta is    0.153719509337167
 New state     14 was old state     13
 Root     14 not converged, maximum delta is    0.267859262945914
 Root     15 not converged, maximum delta is    0.210260642613058
 Excitation Energies [eV] at current iteration:
 Root      1 :     7.039044312028622   Change is   -0.747973570886555
 Root      2 :     7.218049032939547   Change is   -0.090090324904597
 Root      3 :     8.618318150445980   Change is   -0.008967768336469
 Root      4 :     8.776142441491594   Change is   -0.026286122490751
 Root      5 :     9.259878196035743   Change is   -0.023395460585162
 Root      6 :     9.385976856279695   Change is   -0.525904680611149
 Root      7 :     9.514719570674254   Change is   -0.023262238365383
 Root      8 :     9.699678247816836   Change is   -0.112257044462752
 Root      9 :     9.860831000855645   Change is   -0.776389853343637
 Root     10 :     9.941554062849427   Change is   -0.030986045823491
 Root     11 :    10.414698157017310   Change is    0.004068542044762
 Root     12 :    10.454360149993570   Change is   -0.028184787209468
 Root     13 :    10.546370815012780   Change is   -0.024990021582345
 Root     14 :    10.582618861108260   Change is   -0.008364766019655
 Root     15 :    10.680319483677340   Change is   -0.060362229780612
 Root     16 :    10.775926012218180   Change is   -0.019964735708398
 Root     17 :    10.943528593413020   Change is   -0.025061799354324
 Root     18 :    11.182913703593390   Change is   -0.018923749194661
 Root     19 :    11.327149560728860   Change is   -0.044552083366216
 Root     20 :    11.479192588384150   Change is   -0.375483160368392
 Root     21 :    11.574896788520960   Change is   -0.016336883802400
 Root     22 :    11.860361790229870   Change is   -0.039351439189431
 Root     23 :    12.197737400835040   Change is   -0.030410368954185
 Root     24 :    12.441552816887150   Change is   -0.023108181982510
 Root     25 :    12.642775373989250   Change is   -0.053130249365919
 Root     26 :    12.675778452800690   Change is   -0.065964231271149
 Root     27 :    12.844500780963960   Change is   -0.601627652579608
 Root     28 :    12.929807544971750   Change is   -0.236965312358095
 Root     29 :    13.305306017014580   Change is   -0.153721942863169
 Root     30 :    13.582588808965570   Change is   -0.142616672141927
 Root     31 :    13.778426128397870   Change is   -0.024403406149910
 Root     32 :    13.998261716327300   Change is   -0.071297074882880
 Root     33 :    14.038395495613030   Change is   -0.068105008449313
 Root     34 :    14.075471646420850   Change is   -0.075849662400642
 Root     35 :    14.233567807979980   Change is   -0.214860224973037
 Root     36 :    14.343961493106700   Change is   -0.030304653652583
 Root     37 :    14.357622322392470   Change is   -0.034343022059561
 Root     38 :    14.394884757886280   Change is   -0.227705747508715
 Root     39 :    14.470858169065110   Change is   -0.032142150780889
 Root     40 :    14.606428201508370   Change is   -0.223119626877184
 Root     41 :    14.683089663115370   Change is   -0.029396627151092
 Root     42 :    14.815706885602220   Change is   -0.108686036635355
 Root     43 :    14.905971508612880   Change is   -0.097653657158471
 Root     44 :    15.016565097576650   Change is   -0.116197407027603
 Root     45 :    15.131187853167280   Change is   -0.202869732469661
 Root     46 :    15.196662106537520   Change is   -0.037566932769830
 Root     47 :    15.232050068241590   Change is   -0.170657964374696
 Root     48 :    15.277596076342050   Change is   -0.097677199979004
 Root     49 :    15.470238424353970   Change is   -1.039487933693975
 Root     50 :    15.494988940820910   Change is   -0.044317197457053
 Root     51 :    15.555125099394380   Change is   -0.138288198540235
 Root     52 :    15.625988418777210   Change is   -0.124038224956064
 Root     53 :    15.685415297033960   Change is   -0.213614082147568
 Root     54 :    15.870394022162590   Change is   -0.005832648182768
 Root     55 :    15.936663945810270   Change is   -0.127111661685199
 Root     56 :    16.042526571732190   Change is   -0.063158543200964
 Root     57 :    16.139794428390200   Change is   -0.095817822213193
 Root     58 :    16.201423115450370   Change is   -0.685508877389362
 Root     59 :    16.330697223833010   Change is   -1.010687064414602
 Root     60 :    16.823254650965370   Change is   -2.936633348305315
 Iteration     3 Dimension   135 NMult   120 NNew     15
 CISAX will form    15 AO SS matrices at one time.
 NMat=    15 NSing=    15 JSym2X= 0.
 Root      1 not converged, maximum delta is    0.002424825108350
 Root      2 not converged, maximum delta is    0.001541900295641
 Root      3 not converged, maximum delta is    0.000132153175834
 Root      4 not converged, maximum delta is    0.000226530001899
 Root      5 not converged, maximum delta is    0.000276074277104
 Root      6 not converged, maximum delta is    0.002627396033871
 Root      7 not converged, maximum delta is    0.001981979794786
 Root      8 not converged, maximum delta is    0.005171857601083
 Root      9 not converged, maximum delta is    0.004410770617363
 Root     10 not converged, maximum delta is    0.001824370489686
 Root     11 not converged, maximum delta is    0.000375681323952
 Root     12 not converged, maximum delta is    0.000444396453984
 Root     13 not converged, maximum delta is    0.000277753547215
 Root     14 not converged, maximum delta is    0.000294174312585
 Root     15 not converged, maximum delta is    0.000650424862432
 Excitation Energies [eV] at current iteration:
 Root      1 :     7.037409982167609   Change is   -0.001634329861013
 Root      2 :     7.217172632691865   Change is   -0.000876400247681
 Root      3 :     8.618310041604026   Change is   -0.000008108841953
 Root      4 :     8.776109790454282   Change is   -0.000032651037311
 Root      5 :     9.259849295586699   Change is   -0.000028900449043
 Root      6 :     9.383902144540382   Change is   -0.002074711739313
 Root      7 :     9.514423757665481   Change is   -0.000295813008773
 Root      8 :     9.697284172781480   Change is   -0.002394075035358
 Root      9 :     9.859616230556634   Change is   -0.001214770299011
 Root     10 :     9.941380630168915   Change is   -0.000173432680511
 Root     11 :    10.414622819827650   Change is   -0.000075337189658
 Root     12 :    10.454303611972240   Change is   -0.000056538021335
 Root     13 :    10.546341069597390   Change is   -0.000029745415393
 Root     14 :    10.582580153844120   Change is   -0.000038707264141
 Root     15 :    10.680251737988340   Change is   -0.000067745689001
 Iteration     4 Dimension   150 NMult   135 NNew     15
 CISAX will form    15 AO SS matrices at one time.
 NMat=    15 NSing=    15 JSym2X= 0.
 Root      1 not converged, maximum delta is    0.000060271971460
 Root      2 not converged, maximum delta is    0.000036483038245
 Root      3 not converged, maximum delta is    0.000003740655772
 Root      4 not converged, maximum delta is    0.000005214746507
 Root      5 not converged, maximum delta is    0.000005464907256
 Root      6 not converged, maximum delta is    0.000053771778401
 Root      7 not converged, maximum delta is    0.000021508107673
 Root      8 not converged, maximum delta is    0.000069628946354
 Root      9 not converged, maximum delta is    0.000051395084799
 Root     10 not converged, maximum delta is    0.000016426342006
 Root     11 not converged, maximum delta is    0.000011919696259
 Root     12 not converged, maximum delta is    0.000006827726592
 Root     13 not converged, maximum delta is    0.000005700987180
 Root     14 not converged, maximum delta is    0.000008122655712
 Root     15 not converged, maximum delta is    0.000009954535452
 Excitation Energies [eV] at current iteration:
 Root      1 :     7.037408306612488   Change is   -0.000001675555121
 Root      2 :     7.217171752688630   Change is   -0.000000880003235
 Root      3 :     8.618310033429951   Change is   -0.000000008174074
 Root      4 :     8.776109758637876   Change is   -0.000000031816405
 Root      5 :     9.259849270713815   Change is   -0.000000024872884
 Root      6 :     9.383899310131834   Change is   -0.000002834408548
 Root      7 :     9.514423309777190   Change is   -0.000000447888292
 Root      8 :     9.697280600410444   Change is   -0.000003572371035
 Root      9 :     9.859614519108922   Change is   -0.000001711447713
 Root     10 :     9.941380411016917   Change is   -0.000000219151999
 Root     11 :    10.414622728241820   Change is   -0.000000091585833
 Root     12 :    10.454303570231350   Change is   -0.000000041740891
 Root     13 :    10.546341042652810   Change is   -0.000000026944582
 Root     14 :    10.582580121900380   Change is   -0.000000031943737
 Root     15 :    10.680251668620340   Change is   -0.000000069367996
 Iteration     5 Dimension   165 NMult   150 NNew     15
 CISAX will form    15 AO SS matrices at one time.
 NMat=    15 NSing=    15 JSym2X= 0.
 Root      1 not converged, maximum delta is    0.000001796019657
 Root      2 has converged.
 Root      3 has converged.
 Root      4 has converged.
 Root      5 has converged.
 Root      6 not converged, maximum delta is    0.000002120784730
 Root      7 has converged.
 Root      8 not converged, maximum delta is    0.000002416446322
 Root      9 not converged, maximum delta is    0.000001792318886
 Root     10 has converged.
 Root     11 has converged.
 Root     12 has converged.
 Root     13 not converged, maximum delta is    0.000001000781475
 Root     14 has converged.
 Root     15 has converged.
 Excitation Energies [eV] at current iteration:
 Root      1 :     7.037408305047997   Change is   -0.000000001564492
 Root      2 :     7.217171751995703   Change is   -0.000000000692928
 Root      3 :     8.618310033422997   Change is   -0.000000000006955
 Root      4 :     8.776109758609355   Change is   -0.000000000028522
 Root      5 :     9.259849270695108   Change is   -0.000000000018706
 Root      6 :     9.383899307786391   Change is   -0.000000002345443
 Root      7 :     9.514423309281833   Change is   -0.000000000495356
 Root      8 :     9.697280596252046   Change is   -0.000000004158398
 Root      9 :     9.859614517165666   Change is   -0.000000001943257
 Root     10 :     9.941380410713887   Change is   -0.000000000303030
 Root     11 :    10.414622728130710   Change is   -0.000000000111101
 Root     12 :    10.454303570196520   Change is   -0.000000000034827
 Root     13 :    10.546341042627830   Change is   -0.000000000024980
 Root     14 :    10.582580121848750   Change is   -0.000000000051632
 Root     15 :    10.680251668542770   Change is   -0.000000000077575
 Iteration     6 Dimension   169 NMult   165 NNew      4
 CISAX will form     4 AO SS matrices at one time.
 NMat=     4 NSing=     4 JSym2X= 0.
 Root      1 has converged.
 Root      2 has converged.
 Root      3 has converged.
 Root      4 has converged.
 Root      5 has converged.
 Root      6 has converged.
 Root      7 has converged.
 Root      8 has converged.
 Root      9 has converged.
 Root     10 has converged.
 Root     11 has converged.
 Root     12 has converged.
 Root     13 has converged.
 Root     14 has converged.
 Root     15 has converged.
 Excitation Energies [eV] at current iteration:
 Root      1 :     7.037408305047391   Change is   -0.000000000000606
 Root      2 :     7.217171751995608   Change is   -0.000000000000094
 Root      3 :     8.618310033422969   Change is   -0.000000000000029
 Root      4 :     8.776109758609348   Change is   -0.000000000000006
 Root      5 :     9.259849270695110   Change is    0.000000000000002
 Root      6 :     9.383899307784803   Change is   -0.000000000001589
 Root      7 :     9.514423309281439   Change is   -0.000000000000394
 Root      8 :     9.697280596248779   Change is   -0.000000000003267
 Root      9 :     9.859614517164148   Change is   -0.000000000001517
 Root     10 :     9.941380410713672   Change is   -0.000000000000216
 Root     11 :    10.414622728130630   Change is   -0.000000000000085
 Root     12 :    10.454303570196520   Change is    0.000000000000005
 Root     13 :    10.546341042627810   Change is   -0.000000000000018
 Root     14 :    10.582580121848720   Change is   -0.000000000000029
 Root     15 :    10.680251668542730   Change is   -0.000000000000041
 Convergence achieved on expansion vectors.
 ***********************************************************************
 Excited states from <AA,BB:AA,BB> singles matrix:
 ***********************************************************************
 
 1PDM for each excited state written to RWF  633
 Ground to excited state transition densities written to RWF  633
 Ground to excited state transition electric dipole moments (Au):
       state          X           Y           Z        Dip. S.      Osc.
         1        -0.9352     -0.2928     -0.0327      0.9613      0.1657
         2        -0.3626     -0.2318     -0.0421      0.1869      0.0331
         3        -0.0199     -0.0414      0.0246      0.0027      0.0006
         4        -0.0079      0.0940     -0.1318      0.0263      0.0056
         5         0.0457     -0.0144      0.0175      0.0026      0.0006
         6        -0.3789     -0.8164      0.0343      0.8112      0.1865
         7         0.3072     -0.1415     -0.1055      0.1255      0.0293
         8         0.6160     -0.8589      0.1300      1.1341      0.2694
         9        -0.3767      0.6463     -0.0004      0.5596      0.1352
        10         0.1001     -0.2130     -0.0172      0.0557      0.0136
        11         0.0258     -0.1607     -0.0305      0.0274      0.0070
        12         0.0240      0.0261      0.0691      0.0060      0.0015
        13        -0.0431     -0.0404     -0.0435      0.0054      0.0014
        14        -0.0305      0.0343     -0.0969      0.0115      0.0030
        15         0.0543     -0.0585     -0.1604      0.0321      0.0084
 Ground to excited state transition velocity dipole moments (Au):
       state          X           Y           Z        Dip. S.      Osc.
         1        -0.0094      0.0278     -0.0008      0.0009      0.0022
         2         0.0238     -0.0493     -0.0010      0.0030      0.0075
         3        -0.0021     -0.0011     -0.0038      0.0000      0.0000
         4        -0.0041     -0.0004      0.0736      0.0054      0.0112
         5        -0.0051     -0.0024     -0.0133      0.0002      0.0004
         6         0.0671      0.0321      0.0125      0.0057      0.0110
         7        -0.0277     -0.0079      0.0320      0.0019      0.0035
         8        -0.0179     -0.0032     -0.0205      0.0008      0.0014
         9         0.0049     -0.0064     -0.0266      0.0008      0.0014
        10        -0.0013     -0.0020      0.0033      0.0000      0.0000
        11         0.0021      0.0094     -0.0550      0.0031      0.0054
        12        -0.0085     -0.0090      0.0199      0.0005      0.0010
        13         0.0144      0.0087     -0.0024      0.0003      0.0005
        14         0.0021     -0.0005      0.0318      0.0010      0.0017
        15        -0.0028     -0.0047     -0.0207      0.0005      0.0008
 Ground to excited state transition magnetic dipole moments (Au):
       state          X           Y           Z
         1        -0.0359     -0.0097     -0.5396
         2         0.0509     -0.0009     -0.2478
         3         0.4273     -0.4821     -0.0399
         4        -1.4368     -0.6193      0.0114
         5        -0.0556      0.0110     -0.0265
         6        -0.0789      0.0424      0.2360
         7        -0.0187     -0.0202     -0.1201
         8         0.2299     -0.0836     -0.1057
         9         0.4805     -0.1186      0.0562
        10        -0.0418     -0.1989     -0.0210
        11         0.0714     -0.4041      0.0232
        12         0.1185     -0.7657      0.0240
        13        -0.2528      0.7577      0.0035
        14         0.3449     -0.7047      0.0299
        15         0.0465     -0.1671      0.0083
 Ground to excited state transition velocity quadrupole moments (Au):
       state          XX          YY          ZZ          XY          XZ          YZ
         1         0.1247     -0.1393     -0.0085     -0.1196      0.0009     -0.0023
         2         0.0192     -0.0824      0.0291     -0.0753     -0.0021      0.0046
         3        -0.0117      0.0020      0.0017     -0.0150      0.0182      0.0465
         4         0.0178      0.0038     -0.0067      0.0047      0.0582     -0.1946
         5         0.0156     -0.0087      0.0000      0.0025      0.1514      0.1044
         6        -0.2771      0.2709      0.0227      0.1075      0.0234     -0.0177
         7        -0.0072     -0.0307      0.0080     -0.1003      0.1180     -0.0351
         8        -0.0756      0.0210      0.0486     -0.2194     -0.0343      0.0403
         9         0.0906     -0.0394     -0.0463      0.1455      0.0275      0.0261
        10        -0.0440      0.0040      0.0111     -0.0417      0.0490     -0.1106
        11        -0.0785      0.0275      0.0181     -0.0251      0.0014      0.0247
        12        -0.0236      0.0144      0.0096      0.0151      0.0640     -0.0061
        13         0.0116      0.0115      0.0006      0.0169     -0.1586     -0.0372
        14        -0.0074      0.0120      0.0098      0.0247      0.1089      0.1139
        15         0.0135      0.0150     -0.0021     -0.0142     -0.0001     -0.0857
 <0|del|b> * <b|rxdel|0> + <0|del|b> * <b|delr+rdel|0>
 Rotatory Strengths (R) in cgs (10**-40 erg-esu-cm/Gauss)
       state          XX          YY          ZZ    R(velocity)    E-M Angle
         1         0.3502      0.9716      0.0988      0.4736       88.12
         2         0.3363      1.9836      1.6672      1.3290       83.80
         3         0.8385     -1.0114     -0.3352     -0.1694       94.52
         4         1.5973      7.8922      5.8386      5.1094       86.53
         5         0.6852      0.1395      0.4471      0.4239       47.44
         6         5.0112     -5.0081     -2.0478     -0.6816       93.00
         7        -6.0371      0.8600     -1.2415     -2.1395      126.71
         8         6.7818     -7.1159     -2.9942     -1.1094      103.26
         9        -4.3272      4.7389      2.7403      1.0507       83.31
        10         0.2748      0.2549      0.2029      0.2442       62.98
        11        -3.4301     -2.2667     -3.4105     -3.0358      102.40
        12         7.5728     -0.7205      4.8189      3.8904       69.58
        13         7.2626     -3.7896      1.9382      1.8037       77.42
        14         1.9762      1.0426      0.7426      1.2538       85.25
        15         0.8171     -0.3201      0.3720      0.2897       82.53
 1/2[<0|r|b>*<b|rxdel|0> + (<0|rxdel|b>*<b|r|0>)*]
 Rotatory Strengths (R) in cgs (10**-40 erg-esu-cm/Gauss)
       state          XX          YY          ZZ     R(length)
         1       -23.7488     -2.0059    -12.4666    -12.7404
         2        13.0513     -0.1478     -7.3703      1.8444
         3         6.0016    -14.1031      0.6937     -2.4692
         4        -7.9857     41.1687      1.0663     11.4164
         5         1.7971      0.1127      0.3283      0.7460
         6       -21.1477     24.4726     -5.7264     -0.8005
         7         4.0534     -2.0201     -8.9635     -2.3101
         8      -100.1345    -50.7535      9.7171    -47.0570
         9       127.9909     54.2259      0.0141     60.7436
        10         2.9621    -29.9533     -0.2564     -9.0826
        11        -1.3000    -45.9076      0.5002    -15.5691
        12        -2.0135     14.1160     -1.1747      3.6426
        13        -7.6966     21.6590      0.1064      4.6896
        14         7.4375     17.1099      2.0473      8.8649
        15        -1.7835     -6.9143      0.9437     -2.5847
  1/2[<0|del|b>*<b|r|0> + (<0|r|b>*<b|del|0>)*] (Au)
       state          X           Y           Z        Dip. S.   Osc.(frdel)
         1         0.0088     -0.0081      0.0000     -0.0007     -0.0005
         2        -0.0086      0.0114      0.0000     -0.0028     -0.0019
         3         0.0000      0.0000     -0.0001      0.0000      0.0000
         4         0.0000      0.0000     -0.0097      0.0097      0.0065
         5        -0.0002      0.0000     -0.0002      0.0004      0.0003
         6        -0.0254     -0.0262      0.0004      0.0513      0.0342
         7        -0.0085      0.0011     -0.0034      0.0108      0.0072
         8        -0.0110      0.0028     -0.0027      0.0109      0.0073
         9        -0.0018     -0.0041      0.0000      0.0060      0.0040
        10        -0.0001      0.0004     -0.0001     -0.0002     -0.0002
        11         0.0001     -0.0015      0.0017     -0.0002     -0.0001
        12        -0.0002     -0.0002      0.0014     -0.0009     -0.0006
        13        -0.0006     -0.0004      0.0001      0.0009      0.0006
        14        -0.0001      0.0000     -0.0031      0.0032      0.0021
        15        -0.0002      0.0003      0.0033     -0.0034     -0.0023

 Excitation energies and oscillator strengths:
 
 Excited State   1:      Singlet-A      7.0374 eV  176.18 nm  f=0.1657  <S**2>=0.000
      17 -> 19        -0.16421
      18 -> 19         0.63936
      18 -> 20        -0.18543
 This state for optimization and/or second-order correction.
 Total Energy, E(CIS) =  -228.484068980    
 Copying the excited state density for this state as the 1-particle RhoCI density.
 
 Excited State   2:      Singlet-A      7.2172 eV  171.79 nm  f=0.0331  <S**2>=0.000
      17 -> 19         0.49998
      18 -> 19         0.23872
      18 -> 20         0.42133
 
 Excited State   3:      Singlet-A      8.6183 eV  143.86 nm  f=0.0006  <S**2>=0.000
      18 -> 21         0.68421
      18 -> 22        -0.14571
 
 Excited State   4:      Singlet-A      8.7761 eV  141.27 nm  f=0.0056  <S**2>=0.000
      16 -> 19         0.69604
 
 Excited State   5:      Singlet-A      9.2598 eV  133.89 nm  f=0.0006  <S**2>=0.000
      18 -> 21         0.14088
      18 -> 22         0.65382
      18 -> 23        -0.17072
 
 Excited State   6:      Singlet-A      9.3839 eV  132.12 nm  f=0.1865  <S**2>=0.000
      17 -> 19         0.20173
      17 -> 20         0.57581
      18 -> 20        -0.25203
      18 -> 23         0.12121
 
 Excited State   7:      Singlet-A      9.5144 eV  130.31 nm  f=0.0293  <S**2>=0.000
      15 -> 19        -0.10394
      17 -> 20        -0.21188
      17 -> 21        -0.14164
      18 -> 22         0.15634
      18 -> 23         0.60363
      18 -> 24         0.10529
 
 Excited State   8:      Singlet-A      9.6973 eV  127.85 nm  f=0.2694  <S**2>=0.000
      15 -> 19         0.37008
      17 -> 19         0.28977
      17 -> 20        -0.26312
      17 -> 21        -0.12993
      18 -> 20        -0.33646
      18 -> 23        -0.13243
 
 Excited State   9:      Singlet-A      9.8596 eV  125.75 nm  f=0.1352  <S**2>=0.000
      15 -> 19         0.56414
      17 -> 19        -0.19911
      17 -> 20         0.12995
      18 -> 20         0.22269
      18 -> 23         0.16744
 
 Excited State  10:      Singlet-A      9.9414 eV  124.72 nm  f=0.0136  <S**2>=0.000
      15 -> 19         0.12841
      17 -> 21         0.64996
      17 -> 22        -0.12475
      18 -> 23         0.15418
 
 Excited State  11:      Singlet-A     10.4146 eV  119.05 nm  f=0.0070  <S**2>=0.000
      12 -> 19        -0.10136
      13 -> 19         0.15531
      14 -> 19         0.25032
      16 -> 20         0.14772
      17 -> 22         0.57178
      18 -> 25         0.15863
 
 Excited State  12:      Singlet-A     10.4543 eV  118.60 nm  f=0.0015  <S**2>=0.000
      12 -> 19        -0.20185
      13 -> 19         0.21126
      14 -> 19         0.42964
      16 -> 20         0.22964
      17 -> 22        -0.35056
      18 -> 24        -0.18076
 
 Excited State  13:      Singlet-A     10.5463 eV  117.56 nm  f=0.0014  <S**2>=0.000
      12 -> 19         0.15673
      13 -> 19         0.37703
      14 -> 19        -0.16184
      16 -> 20         0.32841
      18 -> 24         0.40071
 
 Excited State  14:      Singlet-A     10.5826 eV  117.16 nm  f=0.0030  <S**2>=0.000
      12 -> 19        -0.22619
      13 -> 19        -0.17989
      14 -> 19         0.29787
      16 -> 20        -0.16549
      18 -> 24         0.51928
 
 Excited State  15:      Singlet-A     10.6803 eV  116.09 nm  f=0.0084  <S**2>=0.000
      16 -> 20        -0.14211
      17 -> 22        -0.14513
      18 -> 25         0.65508
 SavETr:  write IOETrn=   770 NScale= 10 NData=  16 NLR=1 NState=   15 LETran=     280.
 The selected state is a singlet
 CISAX will form     1 AO SS matrices at one time.
 NMat=     1 NSing=     1 JSym2X= 0.
 CISAX will form     1 AO SS matrices at one time.
 NMat=     1 NSing=     1 JSym2X= 0.
 Leave Link  914 at Tue Dec 15 16:20:18 2015, MaxMem=    33554432 cpu:        33.1
 (Enter /home/Applications/g09/g09/l1002.exe)
 Minotr:  Closed shell wavefunction.
          Computing CIS/TD-HF/TD-KS derivatives.
          Using Z-Vector for PSCF gradient.
          Skipping F1 and S1 gradient terms here.
          IDoAtm=111111111
          Frozen-core window.
          Direct CPHF calculation.
          Differentiating once with respect to electric field.
                with respect to dipole field.
          Differentiating once with respect to nuclear coordinates.
          Requested convergence is 1.0D-10 RMS, and 1.0D-09 maximum.
          NewPWx=F KeepS1=T KeepF1=T KeepIn=T MapXYZ=F SortEE=F KeepMc=T.
          MDV=      33554290 using IRadAn=       0.
 Using stored XC quadrature information.
 Keep R1 ints in memory in canonical form, NReq=1898913.
 FoFCou: FMM=F IPFlag=           0 FMFlag=           0 FMFlg1=           0
         NFxFlg=           0 DoJE=F BraDBF=F KetDBF=F FulRan=T
         wScrn=  0.000000 ICntrl=     600 IOpCl=  0 I1Cent=           0 NGrid=           0
         NMat0=    1 NMatS0=   1431 NMatT0=    0 NMatD0=    1 NMtDS0=    0 NMtDT0=    0
 Symmetry not used in FoFCou.
          Solving linear equations separately, MaxMat=       0.
          There are     1 degrees of freedom in the 1st order CPHF.  IDoFFX=0 NUNeed=     1.
 LinEq1:  Iter=  0 NonCon=     1 RMS=4.06D-02 Max=5.43D-01 NDo=     1
 AX will form     1 AO Fock derivatives at one time.
 LinEq1:  Iter=  1 NonCon=     1 RMS=2.46D-02 Max=4.48D-01 NDo=     1
 LinEq1:  Iter=  2 NonCon=     1 RMS=1.92D-02 Max=2.95D-01 NDo=     1
 LinEq1:  Iter=  3 NonCon=     1 RMS=7.70D-03 Max=1.00D-01 NDo=     1
 LinEq1:  Iter=  4 NonCon=     1 RMS=5.22D-03 Max=5.06D-02 NDo=     1
 LinEq1:  Iter=  5 NonCon=     1 RMS=1.13D-03 Max=1.13D-02 NDo=     1
 LinEq1:  Iter=  6 NonCon=     1 RMS=3.46D-04 Max=2.79D-03 NDo=     1
 LinEq1:  Iter=  7 NonCon=     1 RMS=2.04D-04 Max=2.02D-03 NDo=     1
 LinEq1:  Iter=  8 NonCon=     1 RMS=9.59D-05 Max=7.17D-04 NDo=     1
 LinEq1:  Iter=  9 NonCon=     1 RMS=1.89D-05 Max=1.28D-04 NDo=     1
 LinEq1:  Iter= 10 NonCon=     1 RMS=1.86D-06 Max=1.07D-05 NDo=     1
 LinEq1:  Iter= 11 NonCon=     1 RMS=2.51D-07 Max=1.81D-06 NDo=     1
 LinEq1:  Iter= 12 NonCon=     1 RMS=2.62D-08 Max=1.52D-07 NDo=     1
 LinEq1:  Iter= 13 NonCon=     1 RMS=3.68D-09 Max=2.10D-08 NDo=     1
 LinEq1:  Iter= 14 NonCon=     1 RMS=3.54D-10 Max=1.99D-09 NDo=     1
 LinEq1:  Iter= 15 NonCon=     0 RMS=4.01D-11 Max=2.42D-10 NDo=     1
 Linear equations converged to 1.000D-10 1.000D-09 after    15 iterations.
 End of Minotr F.D. properties file   721 does not exist.
 End of Minotr F.D. properties file   722 does not exist.
 End of Minotr F.D. properties file   788 does not exist.
 Leave Link 1002 at Tue Dec 15 16:20:29 2015, MaxMem=    33554432 cpu:        10.8
 (Enter /home/Applications/g09/g09/l601.exe)
 Copying SCF densities to generalized density rwf, IOpCl= 0 IROHF=0.

 **********************************************************************

            Population analysis using the SCF density.

 **********************************************************************

 Orbital symmetries:
       Occupied  (A) (A) (A) (A) (A) (A) (A) (A) (A) (A) (A) (A)
                 (A) (A) (A) (A) (A) (A)
       Virtual   (A) (A) (A) (A) (A) (A) (A) (A) (A) (A) (A) (A)
                 (A) (A) (A) (A) (A) (A) (A) (A) (A) (A) (A) (A)
                 (A) (A) (A) (A) (A) (A) (A) (A) (A) (A) (A)
 The electronic state is 1-A.
 Alpha  occ. eigenvalues --  -19.10704 -10.17872 -10.17414 -10.12985 -10.12342
 Alpha  occ. eigenvalues --   -1.09641  -0.81156  -0.74057  -0.60090  -0.57115
 Alpha  occ. eigenvalues --   -0.54362  -0.43396  -0.43270  -0.42791  -0.40093
 Alpha  occ. eigenvalues --   -0.36715  -0.27980  -0.23455
 Alpha virt. eigenvalues --    0.01383   0.07819   0.13205   0.14805   0.16618
 Alpha virt. eigenvalues --    0.19381   0.20049   0.22269   0.34549   0.41478
 Alpha virt. eigenvalues --    0.46249   0.67449   0.69995   0.70096   0.75326
 Alpha virt. eigenvalues --    0.76837   0.78927   0.80865   0.81778   0.83803
 Alpha virt. eigenvalues --    0.94230   0.99636   1.00401   1.06094   1.17509
 Alpha virt. eigenvalues --    1.22005   1.30218   1.37151   1.50512   1.57197
 Alpha virt. eigenvalues --    1.64038   1.73408   1.95382   2.13587   3.12123
     Molecular Orbital Coefficients:
                           1         2         3         4         5
                           O         O         O         O         O
     Eigenvalues --   -19.10704 -10.17872 -10.17414 -10.12985 -10.12342
   1 1   C  1S          0.00015   0.00002  -0.01267   0.98201   0.08841
   2        2S          0.00067  -0.00002  -0.00575   0.10986   0.00620
   3        2PX        -0.00131   0.00004  -0.00217  -0.00043   0.00063
   4        2PY         0.00021   0.00052   0.00184  -0.00196   0.00060
   5        2PZ        -0.00003   0.00002  -0.00008   0.00027   0.00008
   6        3S         -0.00290  -0.01761   0.03731  -0.10506   0.02797
   7        3PX         0.00156  -0.00334   0.01023   0.00657  -0.01515
   8        3PY         0.00693   0.00934  -0.01651   0.03152  -0.01448
   9        3PZ         0.00007  -0.00077   0.00064  -0.00174  -0.00001
  10 2   C  1S         -0.00052  -0.05103   0.98412   0.01219   0.00162
  11        2S         -0.00098  -0.00883   0.10624  -0.00322  -0.00063
  12        2PX        -0.00105   0.00141  -0.00191   0.00175   0.00066
  13        2PY        -0.00216  -0.00007  -0.00110  -0.00144  -0.00116
  14        2PZ        -0.00008  -0.00008  -0.00037   0.00004   0.00001
  15        3S          0.01573   0.01894  -0.07439   0.03908  -0.00477
  16        3PX        -0.01079  -0.01956   0.01595  -0.02341   0.00319
  17        3PY        -0.00669   0.00453  -0.01055   0.01151   0.00157
  18        3PZ        -0.00067   0.00007   0.00155  -0.00075   0.00024
  19 3   O  1S          0.98271   0.00015   0.00018   0.00008   0.00010
  20        2S          0.10694   0.00143   0.00160   0.00036   0.00054
  21        2PX        -0.00160  -0.00107   0.00031   0.00001   0.00001
  22        2PY         0.00387   0.00040   0.00107  -0.00009   0.00000
  23        2PZ         0.00020   0.00007   0.00009   0.00005   0.00000
  24        3S         -0.05742   0.00080   0.00116  -0.00348  -0.00390
  25        3PX         0.00513   0.00137   0.00099  -0.00100   0.00266
  26        3PY        -0.01207  -0.00206  -0.00271  -0.00227  -0.00153
  27        3PZ        -0.00057  -0.00032  -0.00037  -0.00021  -0.00001
  28 4   C  1S         -0.00054   0.98423   0.04990  -0.00031   0.00892
  29        2S         -0.00108   0.10645   0.00196  -0.00047  -0.00403
  30        2PX         0.00204   0.00217  -0.00086   0.00039   0.00000
  31        2PY        -0.00074   0.00112  -0.00087  -0.00080  -0.00255
  32        2PZ        -0.00001  -0.00009  -0.00007   0.00007   0.00003
  33        3S          0.01699  -0.07674   0.01437  -0.01069   0.04291
  34        3PX         0.01387  -0.00268   0.01055  -0.00247   0.00675
  35        3PY         0.00409  -0.02069   0.01577  -0.00359   0.02537
  36        3PZ        -0.00054   0.00042   0.00009  -0.00009  -0.00055
  37 5   C  1S          0.00016  -0.00925  -0.00092  -0.08894   0.98197
  38        2S          0.00081  -0.00562  -0.00021  -0.01361   0.11002
  39        2PX         0.00081  -0.00010  -0.00039  -0.00123   0.00127
  40        2PY         0.00097   0.00310   0.00062   0.00018  -0.00096
  41        2PZ         0.00000  -0.00002  -0.00003   0.00005   0.00011
  42        3S         -0.00406   0.03817  -0.01581   0.04270  -0.10269
  43        3PX        -0.00906   0.00550  -0.00784   0.02482  -0.02704
  44        3PY         0.00414  -0.02035   0.00860  -0.00274   0.01914
  45        3PZ         0.00008   0.00031  -0.00010  -0.00013  -0.00022
  46 6   H  1S         -0.00113  -0.00111  -0.00061   0.00021  -0.00503
  47        2S         -0.00415   0.00258  -0.00237   0.00493   0.00510
  48 7   H  1S          0.00004  -0.00313   0.00115   0.00003  -0.00015
  49        2S          0.00296   0.00761   0.00729   0.00015   0.00533
  50 8   H  1S         -0.00024   0.00155  -0.00403  -0.00008  -0.00024
  51        2S          0.00238   0.00694   0.00876   0.00616  -0.00012
  52 9   H  1S         -0.00090  -0.00013  -0.00113  -0.00348  -0.00044
  53        2S         -0.00241  -0.00054   0.00213   0.00490   0.00519
                           6         7         8         9        10
                           O         O         O         O         O
     Eigenvalues --    -1.09641  -0.81156  -0.74057  -0.60090  -0.57115
   1 1   C  1S         -0.02930   0.13640  -0.09274   0.09971   0.05519
   2        2S          0.02875  -0.14626   0.09990  -0.10161  -0.05441
   3        2PX         0.00427   0.03681   0.09264  -0.08611   0.16095
   4        2PY        -0.03474   0.07100  -0.04398  -0.01498  -0.07440
   5        2PZ         0.00109  -0.00651   0.00548  -0.00815  -0.00185
   6        3S          0.04584  -0.27319   0.19815  -0.35076  -0.18663
   7        3PX        -0.00857   0.00327  -0.00943  -0.02959   0.05939
   8        3PY        -0.03903   0.03616  -0.00637   0.03996  -0.02440
   9        3PZ         0.00070  -0.00447   0.00286  -0.00660  -0.00207
  10 2   C  1S         -0.07420   0.04402  -0.14998  -0.03686  -0.10416
  11        2S          0.08371  -0.05271   0.16173   0.03433   0.11540
  12        2PX        -0.05927   0.05653  -0.02225   0.09445   0.10701
  13        2PY        -0.05938  -0.10070   0.02288  -0.19449   0.05647
  14        2PZ        -0.00441   0.00218  -0.01035  -0.00401  -0.00842
  15        3S          0.07317  -0.05663   0.36734   0.16971   0.31992
  16        3PX         0.02766   0.01652  -0.03409   0.01234   0.04839
  17        3PY         0.00357  -0.02190   0.02515  -0.06827   0.04561
  18        3PZ        -0.00026   0.00133  -0.00639  -0.00376  -0.00616
  19 3   O  1S         -0.20976  -0.09005   0.01172  -0.00593   0.06220
  20        2S          0.19202   0.08686  -0.01094   0.00569  -0.06159
  21        2PX        -0.03984   0.01527   0.15467   0.23592  -0.01892
  22        2PY         0.10106  -0.01040   0.06819   0.07647   0.01906
  23        2PZ         0.00462   0.00190   0.00040   0.00179  -0.00121
  24        3S          0.66398   0.32111  -0.04496   0.02173  -0.26081
  25        3PX        -0.05166   0.00735   0.12841   0.20415  -0.01470
  26        3PY         0.12769   0.00493   0.05370   0.06638   0.01073
  27        3PZ         0.00613   0.00157   0.00059   0.00145  -0.00050
  28 4   C  1S         -0.07275   0.07012   0.13588   0.03149  -0.11386
  29        2S          0.08228  -0.08120  -0.14523  -0.02783   0.12563
  30        2PX         0.08231   0.03625  -0.00658  -0.11226  -0.10605
  31        2PY         0.00231  -0.12721  -0.01565   0.15454  -0.02093
  32        2PZ        -0.00216   0.00126   0.00364   0.00263  -0.00144
  33        3S          0.07052  -0.10865  -0.34226  -0.15750   0.35796
  34        3PX        -0.02499   0.00493  -0.00539  -0.05956  -0.06569
  35        3PY        -0.01722  -0.03416  -0.03388   0.01681   0.00814
  36        3PZ         0.00083   0.00029   0.00182   0.00169  -0.00104
  37 5   C  1S         -0.02831   0.15500   0.07002  -0.10289   0.05638
  38        2S          0.02815  -0.16643  -0.07586   0.10381  -0.05448
  39        2PX         0.02188  -0.06996   0.04023  -0.12409  -0.04081
  40        2PY        -0.02590   0.04241   0.08958  -0.01970  -0.19529
  41        2PZ         0.00037  -0.00342  -0.00228   0.00599  -0.00047
  42        3S          0.03961  -0.31505  -0.14611   0.37054  -0.20209
  43        3PX         0.03891  -0.03703  -0.00584  -0.01531  -0.02163
  44        3PY        -0.02021   0.02397  -0.00599  -0.03951  -0.06437
  45        3PZ        -0.00029  -0.00152  -0.00109   0.00440  -0.00108
  46 6   H  1S          0.00916  -0.07201  -0.04576   0.13697  -0.08199
  47        2S          0.01700  -0.01417  -0.01033   0.07467  -0.04631
  48 7   H  1S          0.01342  -0.01859  -0.07591  -0.04541   0.13462
  49        2S         -0.01532  -0.00234  -0.02920  -0.03815   0.07276
  50 8   H  1S          0.01687  -0.00878   0.09149   0.08289   0.14496
  51        2S         -0.01537   0.00066   0.03293   0.05199   0.07515
  52 9   H  1S          0.00776  -0.05237   0.05193  -0.09526  -0.05699
  53        2S          0.01213  -0.01043   0.01428  -0.05672  -0.03238
                          11        12        13        14        15
                           O         O         O         O         O
     Eigenvalues --    -0.54362  -0.43396  -0.43270  -0.42791  -0.40093
   1 1   C  1S         -0.04235  -0.01078  -0.03775   0.01364   0.01902
   2        2S          0.03945   0.01349   0.03625  -0.01716  -0.02265
   3        2PX         0.04069   0.07070  -0.11455  -0.13054   0.25850
   4        2PY         0.19751   0.00722   0.19865   0.07656   0.19629
   5        2PZ         0.00409   0.10791  -0.02179   0.06466   0.00678
   6        3S          0.18787   0.02063   0.15683  -0.02767  -0.07159
   7        3PX         0.04255   0.03890  -0.02801  -0.05021   0.17041
   8        3PY         0.11618   0.03340   0.12891   0.03182   0.14709
   9        3PZ         0.00620   0.07976  -0.01268   0.05131   0.00365
  10 2   C  1S         -0.00647  -0.00011   0.05060   0.00540   0.01528
  11        2S          0.00582   0.00122  -0.05998  -0.00831  -0.01660
  12        2PX         0.17235  -0.17385   0.04828   0.26827  -0.01505
  13        2PY         0.02872  -0.03098  -0.17683  -0.02347   0.04485
  14        2PZ         0.00094   0.15508  -0.02556   0.10758  -0.00575
  15        3S          0.03471   0.00900  -0.16593  -0.02964  -0.04707
  16        3PX         0.13310  -0.13652   0.04142   0.18628  -0.02092
  17        3PY        -0.02103  -0.01538  -0.13327  -0.01907   0.05095
  18        3PZ        -0.00137   0.15006  -0.02698   0.10438  -0.00744
  19 3   O  1S         -0.03942   0.00248  -0.01274   0.00276  -0.01359
  20        2S          0.03806  -0.00333   0.01398  -0.00134   0.00879
  21        2PX         0.00549   0.12189   0.22603  -0.12971  -0.05925
  22        2PY        -0.16081   0.07473   0.00400  -0.09264   0.06953
  23        2PZ        -0.00207   0.29613  -0.05557   0.20153  -0.02407
  24        3S          0.15072  -0.00582   0.04441  -0.01947   0.08185
  25        3PX         0.00450   0.11434   0.22234  -0.11944  -0.05899
  26        3PY        -0.14574   0.07179   0.00073  -0.08961   0.07574
  27        3PZ        -0.00183   0.29838  -0.05675   0.20403  -0.02387
  28 4   C  1S         -0.00735  -0.00848  -0.03817  -0.00582  -0.01095
  29        2S          0.00545   0.00895   0.04475   0.00896   0.01707
  30        2PX        -0.08977  -0.12031  -0.14956   0.15964   0.07526
  31        2PY        -0.17887  -0.04896   0.09589   0.11305   0.24735
  32        2PZ         0.00247   0.16078  -0.03228   0.10245  -0.01212
  33        3S          0.04695   0.02434   0.11522   0.01560   0.04614
  34        3PX        -0.05778  -0.08815  -0.09298   0.11918   0.05870
  35        3PY        -0.14443  -0.03096   0.02712   0.06795   0.19456
  36        3PZ         0.00110   0.15413  -0.03006   0.10193  -0.01227
  37 5   C  1S         -0.02195   0.02109   0.01804  -0.02161   0.00815
  38        2S          0.01732  -0.02428  -0.01766   0.02533  -0.00647
  39        2PX        -0.16507  -0.07084   0.19466   0.15005  -0.21526
  40        2PY         0.14968  -0.00627  -0.15797  -0.04417  -0.22198
  41        2PZ         0.00473   0.10835  -0.02951   0.06649   0.00748
  42        3S          0.12789  -0.06134  -0.04576   0.07792  -0.05902
  43        3PX        -0.10254  -0.03721   0.14486   0.09814  -0.14312
  44        3PY         0.06965  -0.01083  -0.09351  -0.01286  -0.10307
  45        3PZ         0.00328   0.07825  -0.02268   0.04904   0.00380
  46 6   H  1S          0.13625   0.01680  -0.19812  -0.07703   0.04778
  47        2S          0.07137   0.02002  -0.14948  -0.07123   0.03279
  48 7   H  1S          0.10097   0.08440   0.06327  -0.11772  -0.16306
  49        2S          0.04924   0.07003   0.04419  -0.10112  -0.15002
  50 8   H  1S          0.09214  -0.12302  -0.02042   0.17658  -0.04136
  51        2S          0.03919  -0.08998  -0.01361   0.14717  -0.03294
  52 9   H  1S          0.13653   0.03345   0.14864   0.01260   0.16492
  53        2S          0.07394   0.01432   0.11758   0.01670   0.15029
                          16        17        18        19        20
                           O         O         O         V         V
     Eigenvalues --    -0.36715  -0.27980  -0.23455   0.01383   0.07819
   1 1   C  1S          0.01907  -0.00516   0.00574  -0.00035  -0.00908
   2        2S         -0.02028   0.00612  -0.00838  -0.00352   0.00507
   3        2PX        -0.09573   0.01938  -0.00935  -0.00271   0.00160
   4        2PY         0.16339  -0.00195   0.00136   0.01523   0.01666
   5        2PZ        -0.01536  -0.25871   0.22249  -0.18847  -0.32900
   6        3S         -0.13089   0.02151  -0.00134   0.01878   0.08355
   7        3PX        -0.11182   0.02175  -0.01236  -0.01100   0.03054
   8        3PY         0.09889   0.00511  -0.01823   0.01328   0.04614
   9        3PZ        -0.01676  -0.26903   0.24044  -0.31774  -0.65265
  10 2   C  1S         -0.01182   0.00039  -0.00956  -0.01009  -0.00880
  11        2S          0.01428   0.00011   0.01170   0.00448   0.00361
  12        2PX         0.03834  -0.00504  -0.00384   0.00814   0.01280
  13        2PY        -0.20572   0.00432  -0.00084   0.00158  -0.02030
  14        2PZ        -0.01164  -0.03728   0.32728   0.32194   0.21233
  15        3S          0.06125  -0.00059   0.02797   0.09314   0.09588
  16        3PX        -0.01722  -0.00326   0.01363   0.02489   0.03152
  17        3PY        -0.01825  -0.00121  -0.00273   0.01267  -0.03962
  18        3PZ        -0.01083   0.00768   0.34300   0.48183   0.40994
  19 3   O  1S          0.07260  -0.00036   0.00079   0.00003   0.00367
  20        2S         -0.07406   0.00029  -0.00131  -0.00137  -0.00288
  21        2PX        -0.14390   0.00098  -0.00231  -0.00248  -0.00649
  22        2PY         0.39849  -0.01435   0.00088   0.00230  -0.00817
  23        2PZ        -0.00172   0.33112  -0.03175  -0.27993   0.00957
  24        3S         -0.27417   0.00171  -0.00164   0.00423  -0.02738
  25        3PX        -0.15579   0.00022   0.00057  -0.00136  -0.01378
  26        3PY         0.42710  -0.01538   0.00358   0.00568  -0.01314
  27        3PZ        -0.00028   0.37125  -0.03672  -0.38039   0.01193
  28 4   C  1S         -0.02562   0.00145   0.00304  -0.00383  -0.00032
  29        2S          0.02814  -0.00124  -0.00440  -0.00053   0.00106
  30        2PX         0.10336  -0.00093  -0.00558  -0.00010  -0.00195
  31        2PY        -0.13507   0.00483  -0.00480   0.00085   0.00454
  32        2PZ        -0.01045  -0.09755  -0.31240   0.31675  -0.22912
  33        3S          0.13096  -0.00771  -0.00213   0.04911  -0.01716
  34        3PX         0.01215  -0.00055   0.00031   0.00512  -0.00528
  35        3PY         0.03601  -0.00165   0.00449   0.01406  -0.00568
  36        3PZ        -0.00991  -0.04769  -0.33236   0.47107  -0.45007
  37 5   C  1S          0.02363  -0.00295  -0.00217   0.00048   0.00625
  38        2S         -0.02264   0.00267   0.00381  -0.00201  -0.00759
  39        2PX        -0.02197  -0.01812  -0.00370  -0.01017   0.00562
  40        2PY         0.13633  -0.01121   0.00067   0.00412  -0.00732
  41        2PZ        -0.01309  -0.29417  -0.17325  -0.16459   0.34301
  42        3S         -0.18439   0.02124  -0.00890  -0.00974  -0.02730
  43        3PX         0.01427  -0.01460  -0.01848  -0.02242   0.04705
  44        3PY         0.12777  -0.00904   0.00720   0.01293  -0.01952
  45        3PZ        -0.01246  -0.30843  -0.18341  -0.28231   0.68530
  46 6   H  1S          0.03878   0.00171  -0.00101  -0.00588   0.01037
  47        2S          0.06083   0.00251  -0.00639  -0.01757   0.04464
  48 7   H  1S          0.06073  -0.00702   0.00269  -0.00611   0.00150
  49        2S          0.06443  -0.01025   0.00656  -0.01711   0.00172
  50 8   H  1S          0.05768  -0.00638  -0.00557  -0.01830  -0.01721
  51        2S          0.05727  -0.00873  -0.01159  -0.05869  -0.08408
  52 9   H  1S          0.08030  -0.00151   0.00139  -0.00894  -0.01606
  53        2S          0.10575  -0.00394   0.00739  -0.01768  -0.07303
                          21        22        23        24        25
                           V         V         V         V         V
     Eigenvalues --     0.13205   0.14805   0.16618   0.19381   0.20049
   1 1   C  1S          0.05598  -0.00814  -0.07094   0.07969  -0.07441
   2        2S         -0.03499   0.01229   0.06100  -0.07072   0.02699
   3        2PX         0.02352   0.00219  -0.08259  -0.11641  -0.10201
   4        2PY        -0.17298   0.02492  -0.07573  -0.14798   0.11480
   5        2PZ        -0.02160  -0.00955  -0.00688  -0.02166   0.02553
   6        3S         -0.65532   0.01297   0.52762  -0.73225   1.18406
   7        3PX         0.01702   0.01190  -0.35823  -0.64206  -0.56801
   8        3PY        -0.53089   0.11507   0.02354  -0.87745   0.32764
   9        3PZ        -0.05725  -0.03227  -0.03873  -0.07406   0.09284
  10 2   C  1S          0.02093   0.07645   0.06078  -0.08100  -0.09099
  11        2S         -0.01058  -0.05599  -0.04078   0.07379   0.06417
  12        2PX        -0.13373   0.03604  -0.25446  -0.04497   0.05269
  13        2PY        -0.10300   0.17005  -0.06862  -0.06288  -0.20110
  14        2PZ         0.01709   0.02286   0.02690  -0.01175  -0.02781
  15        3S         -0.43451  -0.65972  -0.79260   0.69615   1.10931
  16        3PX        -0.24323  -0.08651  -0.97403   0.17444   0.18588
  17        3PY        -0.24585   0.48923  -0.10459   0.07213  -0.49182
  18        3PZ         0.05091   0.04975   0.06737  -0.00647  -0.09619
  19 3   O  1S          0.05185  -0.09536  -0.01774  -0.01282   0.02696
  20        2S         -0.03517   0.06754   0.01374   0.00652  -0.01510
  21        2PX         0.05744  -0.08068  -0.13464  -0.19965  -0.22396
  22        2PY        -0.12408   0.15364  -0.01629  -0.06585  -0.13191
  23        2PZ        -0.01369   0.00536  -0.00718   0.00313  -0.00201
  24        3S         -0.42953   0.78283   0.13944   0.12845  -0.25731
  25        3PX         0.11275  -0.12270  -0.24818  -0.31516  -0.44019
  26        3PY        -0.22907   0.25614  -0.04985  -0.07876  -0.26802
  27        3PZ        -0.02504   0.01172  -0.01403   0.00650  -0.00392
  28 4   C  1S          0.02796   0.12522   0.01230   0.06517   0.07346
  29        2S         -0.01621  -0.09071  -0.01163  -0.06450  -0.04669
  30        2PX         0.20930  -0.03941  -0.22232  -0.17729  -0.00160
  31        2PY         0.05205   0.20186  -0.07153  -0.01036   0.11827
  32        2PZ         0.00381   0.00495   0.00071   0.00221   0.01164
  33        3S         -0.49783  -1.17820  -0.04050  -0.34213  -1.02938
  34        3PX         0.48000   0.10356  -0.62106  -0.16389   0.07290
  35        3PY         0.08075   0.72391  -0.29964   0.03738   0.15740
  36        3PZ         0.00930   0.00702   0.00062  -0.01531   0.04112
  37 5   C  1S          0.03009  -0.03284   0.05318  -0.06640   0.05928
  38        2S         -0.01460   0.04113  -0.04263   0.06935  -0.02787
  39        2PX         0.08986   0.02998  -0.11111  -0.10523  -0.04804
  40        2PY        -0.08837  -0.02468  -0.04697   0.03728  -0.17660
  41        2PZ        -0.00545   0.00705   0.00377   0.01744  -0.01720
  42        3S         -0.46634   0.09363  -0.44659   0.58627  -0.85936
  43        3PX         0.31854  -0.13726  -0.28012  -0.92416  -0.28284
  44        3PY        -0.27218   0.04890  -0.34041   0.25422  -0.77719
  45        3PZ        -0.01354   0.01078   0.01794   0.07959  -0.05143
  46 6   H  1S          0.09237  -0.03533  -0.01588  -0.06512  -0.00835
  47        2S          0.88913  -0.25021   0.06621  -1.38495   0.58112
  48 7   H  1S          0.04940   0.10284  -0.05274  -0.00367  -0.02756
  49        2S          0.71740   1.36712  -0.70796   0.05020   0.65297
  50 8   H  1S          0.02907   0.04776   0.10129  -0.00453   0.02281
  51        2S          0.52547   0.55638   1.55920  -0.49622  -0.84533
  52 9   H  1S          0.10466  -0.03436   0.00910   0.05404   0.02404
  53        2S          1.07118  -0.21488  -0.09507   1.46582  -0.66735
                          26        27        28        29        30
                           V         V         V         V         V
     Eigenvalues --     0.22269   0.34549   0.41478   0.46249   0.67449
   1 1   C  1S         -0.03937  -0.08601   0.03348   0.11409   0.02844
   2        2S          0.00647   0.03295  -0.01384  -0.00628  -0.08814
   3        2PX         0.15890  -0.02651   0.30122  -0.04936  -0.36543
   4        2PY         0.09655  -0.15063   0.00611   0.22424   0.26026
   5        2PZ         0.00775  -0.00264   0.01224   0.01312   0.01323
   6        3S          0.93661   1.59685  -0.43221  -3.07547  -0.16907
   7        3PX         0.61566   0.72342   1.99828   0.18910   0.29951
   8        3PY         0.11166  -1.26475   0.01885   2.32737  -0.05372
   9        3PZ         0.02808   0.05570   0.04995  -0.07638  -0.01253
  10 2   C  1S          0.02104   0.08662   0.00425  -0.08763  -0.04567
  11        2S         -0.00042  -0.01409   0.01329   0.02184  -0.02045
  12        2PX        -0.11839   0.23122  -0.03743  -0.19241  -0.15491
  13        2PY        -0.15857  -0.12116  -0.23113  -0.14038  -0.32778
  14        2PZ         0.00352   0.00629  -0.00046   0.01291   0.02504
  15        3S         -0.64802  -1.57229  -0.61742   1.82414   0.09966
  16        3PX        -0.23056   1.37160   0.04037  -1.74107  -0.10594
  17        3PY        -0.68591  -0.67240  -1.25495   1.14409   0.50861
  18        3PZ         0.02105   0.06711   0.01652  -0.07481  -0.04241
  19 3   O  1S          0.07164  -0.03835  -0.00584   0.00527   0.01576
  20        2S         -0.03353   0.02007   0.00578  -0.00179  -0.08630
  21        2PX         0.03067  -0.03002  -0.26141  -0.07359   0.07807
  22        2PY        -0.04894   0.15750  -0.08617  -0.00738  -0.21057
  23        2PZ        -0.01263  -0.00221  -0.00716  -0.00267   0.00397
  24        3S         -0.74248   0.44465   0.05262  -0.07390   0.34068
[...]
     1  C    5.242244   0.466714  -0.071943  -0.138106   0.424153  -0.024986
     2  C    0.466714   5.104842   0.278144  -0.152845  -0.123557   0.004824
     3  O   -0.071943   0.278144   8.073235   0.298291  -0.070105   0.001785
     4  C   -0.138106  -0.152845   0.298291   5.128024   0.429556  -0.031800
     5  C    0.424153  -0.123557  -0.070105   0.429556   5.256800   0.395322
     6  H   -0.024986   0.004824   0.001785  -0.031800   0.395322   0.460941
     7  H    0.003509   0.004053  -0.026129   0.381633  -0.040039  -0.000557
     8  H   -0.035070   0.388349  -0.027343   0.004090   0.002553  -0.000026
     9  H    0.378421  -0.033564   0.001947   0.005715  -0.025661  -0.001059
               7          8          9
     1  C    0.003509  -0.035070   0.378421
     2  C    0.004053   0.388349  -0.033564
     3  O   -0.026129  -0.027343   0.001947
     4  C    0.381633   0.004090   0.005715
     5  C   -0.040039   0.002553  -0.025661
     6  H   -0.000557  -0.000026  -0.001059
     7  H    0.467285  -0.000071  -0.000035
     8  H   -0.000071   0.450172  -0.000478
     9  H   -0.000035  -0.000478   0.485094
 Mulliken charges:
               1
     1  C   -0.244936
     2  C    0.063040
     3  O   -0.457881
     4  C    0.075443
     5  C   -0.249022
     6  H    0.195557
     7  H    0.210352
     8  H    0.217825
     9  H    0.189622
 Sum of Mulliken charges =   0.00000
 Mulliken charges with hydrogens summed into heavy atoms:
               1
     1  C   -0.055314
     2  C    0.280865
     3  O   -0.457881
     4  C    0.285796
     5  C   -0.053465
 Electronic spatial extent (au):  <R**2>=            293.8773
 Charge=              0.0000 electrons
 Dipole moment (field-independent basis, Debye):
    X=             -0.3750    Y=              0.8210    Z=              0.0767  Tot=              0.9059
 Quadrupole moment (field-independent basis, Debye-Ang):
   XX=            -24.0168   YY=            -27.6988   ZZ=            -31.8001
   XY=              1.5268   XZ=             -0.1756   YZ=              0.1398
 Traceless Quadrupole moment (field-independent basis, Debye-Ang):
   XX=              3.8218   YY=              0.1398   ZZ=             -3.9616
   XY=              1.5268   XZ=             -0.1756   YZ=              0.1398
 Octapole moment (field-independent basis, Debye-Ang**2):
  XXX=              3.9957  YYY=             -0.0949  ZZZ=             -0.0782  XYY=             -3.2399
  XXY=             -1.7720  XXZ=             -0.0276  XZZ=              1.2118  YZZ=             -3.0439
  YYZ=              0.3333  XYZ=             -0.0285
 Hexadecapole moment (field-independent basis, Debye-Ang**3):
 XXXX=           -153.3493 YYYY=           -154.7651 ZZZZ=            -30.9240 XXXY=             -4.7067
 XXXZ=             -1.2792 YYYX=              6.4557 YYYZ=              0.8546 ZZZX=             -0.2843
 ZZZY=              0.3178 XXYY=            -51.3171 XXZZ=            -38.8182 YYZZ=            -35.3171
 XXYZ=              0.3291 YYXZ=              0.0480 ZZXY=             -1.5734
 N-N= 1.594124104041D+02 E-N=-8.514408602169D+02  KE= 2.268481380669D+02
 Orbital energies and kinetic energies (alpha):
                                 1                 2
   1         O               -19.107037         28.830390
   2         O               -10.178715         15.802704
   3         O               -10.174144         15.800815
   4         O               -10.129849         15.806047
   5         O               -10.123416         15.803532
   6         O                -1.096413          2.476444
   7         O                -0.811561          1.807112
   8         O                -0.740570          1.738587
   9         O                -0.600902          1.609720
  10         O                -0.571148          1.518706
  11         O                -0.543618          1.184671
  12         O                -0.433958          1.514012
  13         O                -0.432699          1.553586
  14         O                -0.427908          1.472665
  15         O                -0.400933          1.366137
  16         O                -0.367153          2.304535
  17         O                -0.279803          1.612175
  18         O                -0.234553          1.222230
  19         V                 0.013831          1.799579
  20         V                 0.078187          1.494679
  21         V                 0.132052          1.274068
  22         V                 0.148053          1.874237
  23         V                 0.166179          1.411483
  24         V                 0.193810          1.591577
  25         V                 0.200487          1.866601
  26         V                 0.222686          1.469410
  27         V                 0.345489          1.901170
  28         V                 0.414775          2.144846
  29         V                 0.462486          2.220575
  30         V                 0.674491          2.517247
  31         V                 0.699953          2.703055
  32         V                 0.700963          2.527614
  33         V                 0.753262          2.572914
  34         V                 0.768371          2.523362
  35         V                 0.789272          2.590419
  36         V                 0.808646          2.511637
  37         V                 0.817780          2.655143
  38         V                 0.838032          2.593187
  39         V                 0.942299          2.827358
  40         V                 0.996356          3.219595
  41         V                 1.004010          3.191485
  42         V                 1.060940          3.222714
  43         V                 1.175088          2.729892
  44         V                 1.220051          2.862129
  45         V                 1.302176          2.522029
  46         V                 1.371506          2.937604
  47         V                 1.505116          4.914729
  48         V                 1.571970          3.334811
  49         V                 1.640382          3.831152
  50         V                 1.734081          4.360618
  51         V                 1.953817          4.176679
  52         V                 2.135874          4.174033
  53         V                 3.121235          6.802896
 Total kinetic energy from orbitals= 2.268481380669D+02
 No NMR shielding tensors so no spin-rotation constants.
 Leave Link  601 at Tue Dec 15 16:20:29 2015, MaxMem=    33554432 cpu:         0.1
 (Enter /home/Applications/g09/g09/l701.exe)
 Compute integral first derivatives.
 ... and contract with generalized density number  6.
 Leave Link  701 at Tue Dec 15 16:20:29 2015, MaxMem=    33554432 cpu:         0.1
 (Enter /home/Applications/g09/g09/l702.exe)
 L702 exits ... SP integral derivatives will be done elsewhere.
 Leave Link  702 at Tue Dec 15 16:20:29 2015, MaxMem=    33554432 cpu:         0.0
 (Enter /home/Applications/g09/g09/l703.exe)
 Compute integral first derivatives, UseDBF=F ICtDFT=           0.
 Integral derivatives from FoFJK, PRISM(SPDF).
 Calling FoFJK, ICntrl=  10005127 FMM=F ISym2X=0 I1Cent= 0 IOpClX= 0 NMat=1 NMatS=1 NMatT=0.
 FoFJK:  IHMeth= 1 ICntrl=10005127 DoSepK=F KAlg= 0 I1Cent=   0 FoldK=F
 IRaf=         0 NMat=   1 IRICut=       1 DoRegI=T DoRafI=F ISym2E= 0.
 FoFCou: FMM=F IPFlag=           0 FMFlag=      100000 FMFlg1=         800
         NFxFlg=           0 DoJE=F BraDBF=F KetDBF=F FulRan=T
         wScrn=  0.000000 ICntrl=10005127 IOpCl=  0 I1Cent=           0 NGrid=           0
         NMat0=    1 NMatS0=      1 NMatT0=    0 NMatD0=    1 NMtDS0=    0 NMtDT0=    0
 Symmetry not used in FoFCou.
 Leave Link  703 at Tue Dec 15 16:20:30 2015, MaxMem=    33554432 cpu:         1.3
 (Enter /home/Applications/g09/g09/l716.exe)
 Dipole        = 3.85438379D-01 5.79372253D-01 1.18081893D-02
 ***** Axes restored to original set *****
 -------------------------------------------------------------------
 Center     Atomic                   Forces (Hartrees/Bohr)
 Number     Number              X              Y              Z
 -------------------------------------------------------------------
      1        6           0.072426037    0.025092444    0.008144909
      2        6          -0.063036150   -0.011753730   -0.004073719
      3        8          -0.047933164   -0.035396556    0.000278161
      4        6          -0.070668862    0.094631771    0.003908223
      5        6           0.038403433   -0.077313240   -0.009580274
      6        1           0.052827459    0.036537293    0.002504372
      7        1           0.013453667   -0.018934678    0.000773989
      8        1           0.001362888   -0.016890031    0.001036791
      9        1           0.003164692    0.004026726   -0.002992452
 -------------------------------------------------------------------
 Cartesian Forces:  Max     0.094631771 RMS     0.038549804
 Z-matrix is all fixed cartesians, so copy forces.
 Force constants in Cartesian coordinates: 
                1             2             3             4             5 
      1  0.889791D+00
      2 -0.175558D-01  0.788179D+00
      3 -0.890421D-02 -0.174077D-01  0.198464D+00
      4 -0.491763D+00 -0.114762D+00  0.264479D-01  0.910451D+00
      5 -0.932076D-01 -0.221019D+00  0.110780D-01  0.748842D-01  0.835200D+00
      6  0.250884D-01  0.886171D-02 -0.102947D+00 -0.273509D-02 -0.672778D-02
      7 -0.904118D-02  0.269429D-01 -0.203173D-02 -0.263089D+00  0.138502D+00
      8 -0.718187D-02  0.214961D-01 -0.918876D-03  0.179061D+00 -0.304749D+00
      9  0.140817D-02 -0.281906D-02  0.561101D-02 -0.153257D-01  0.149082D-01
     10  0.904989D-02 -0.246915D-04 -0.197997D-03  0.213444D-01  0.171846D-01
     11  0.351344D-01 -0.129287D-03 -0.147555D-02 -0.170443D-01 -0.137219D-01
     12  0.572505D-03 -0.207602D-03 -0.199627D-04  0.141762D-02  0.131467D-02
     13 -0.167499D+00  0.105478D-01 -0.882699D-03  0.111367D-01 -0.336901D-01
     14 -0.119031D-01 -0.391020D+00  0.501804D-03 -0.385183D-04  0.104956D-03
     15 -0.566059D-03 -0.728782D-02 -0.808263D-01 -0.111817D-02  0.389889D-02
     16  0.192846D-01 -0.768844D-04  0.271908D-03 -0.125109D-04  0.154405D-05
     17 -0.242157D-01  0.105781D-03 -0.167565D-02 -0.162995D-05  0.000000D+00
     18 -0.593319D-03 -0.126591D-03  0.186174D-01  0.242450D-03 -0.299224D-04
     19  0.473687D-05 -0.149494D-05  0.213260D-03  0.252764D-05  0.000000D+00
     20  0.335741D-05 -0.105958D-05  0.151155D-03  0.000000D+00  0.000000D+00
     21  0.161323D-03 -0.509130D-04  0.726299D-02 -0.130877D-03  0.409567D-04
     22  0.832770D-02 -0.254331D-01 -0.184787D-02 -0.181934D+00 -0.121861D+00
     23 -0.470209D-02  0.140410D-01 -0.862347D-03 -0.114847D+00 -0.317686D+00
     24  0.311098D-03  0.415222D-02  0.303745D-01 -0.115970D-01 -0.202019D-01
     25 -0.258155D+00  0.120364D+00 -0.130685D-01 -0.613652D-02  0.181868D-01
     26  0.123628D+00 -0.211652D+00  0.106092D-01 -0.725248D-02  0.218705D-01
     27 -0.174779D-01  0.148857D-01 -0.765358D-01  0.279897D-02 -0.428110D-02
                6             7             8             9            10 
      6  0.194191D+00
      7 -0.109066D-01  0.497017D+00
      8  0.124904D-01 -0.583608D-02  0.578231D+00
      9 -0.400456D-01  0.175414D-01 -0.701619D-02  0.465984D-01
     10  0.729101D-03 -0.257395D+00 -0.172616D+00 -0.648848D-02  0.945946D+00
     11 -0.625533D-03 -0.130918D+00 -0.299449D+00 -0.558254D-02 -0.484383D-01
     12 -0.171912D-02 -0.576860D-02 -0.582928D-02 -0.422273D-01 -0.550502D-02
     13 -0.616737D-03 -0.722858D-02  0.572334D-02  0.413709D-03 -0.556115D+00
     14  0.764557D-04 -0.280030D-01  0.222826D-01  0.168124D-02  0.105078D+00
     15 -0.111979D-02 -0.110632D-02  0.283338D-03  0.523186D-02  0.119118D-01
     16 -0.215987D-03  0.000000D+00 -0.113081D-05  0.335190D-04 -0.521443D-02
     17 -0.281394D-04 -0.934921D-05  0.205582D-04 -0.609377D-03  0.647807D-02
     18  0.418564D-02  0.121485D-03 -0.267135D-03  0.791833D-02  0.113321D-02
     19 -0.568680D-04  0.194752D-01 -0.155265D-01  0.319829D-03 -0.157620D+00
     20 -0.180204D-04  0.107780D-01 -0.859321D-02  0.202379D-03  0.923366D-01
     21  0.294454D-02  0.570247D-03 -0.574192D-03  0.556798D-02 -0.152327D-02
     22 -0.934039D-02  0.202581D-01  0.163691D-01  0.199305D-02  0.119563D-04
     23 -0.139746D-01 -0.114783D-01 -0.929095D-02 -0.145521D-02  0.238494D-05
     24 -0.803287D-01  0.139476D-02  0.138530D-02  0.534408D-02 -0.145497D-03
     25 -0.194580D-02  0.322805D-05  0.777692D-05  0.104508D-03 -0.706035D-05
     26 -0.545089D-04  0.213290D-04  0.513854D-04  0.690527D-03  0.000000D+00
     27  0.248389D-01  0.185368D-03  0.446584D-03  0.600128D-02  0.861668D-04
               11            12            13            14            15 
     11  0.777114D+00
     12  0.879876D-02  0.192275D+00
     13  0.846745D-01  0.123730D-01  0.103296D+01
     14 -0.218029D+00 -0.465431D-02  0.758566D-01  0.835505D+00
     15 -0.548288D-02 -0.110528D+00  0.308727D-02  0.175642D-01  0.223926D+00
     16 -0.201320D-01 -0.166297D-02 -0.337953D+00 -0.166434D+00 -0.132837D-01
     17  0.252056D-01 -0.202600D-04 -0.168922D+00 -0.262859D+00 -0.104524D-01
     18  0.165416D-02  0.294853D-01 -0.156375D-01 -0.127777D-01 -0.939499D-01
     19  0.967251D-01 -0.839677D-03  0.655904D-02  0.255225D-01 -0.410124D-04
     20 -0.270991D+00  0.677305D-03  0.362994D-02  0.141112D-01  0.123456D-03
     21  0.269524D-02 -0.744186D-01  0.199948D-03 -0.221267D-02  0.320099D-01
     22 -0.374161D-05 -0.268999D-03  0.399330D-04 -0.492841D-05  0.689402D-03
     23  0.000000D+00 -0.536574D-04 -0.491084D-04  0.606080D-05 -0.847805D-03
     24  0.455319D-04  0.327347D-02  0.425798D-03 -0.525506D-04  0.735096D-02
     25  0.222822D-05 -0.317867D-03  0.181034D-01 -0.733624D-04  0.426763D-03
     26  0.000000D+00 -0.256225D-04  0.222293D-01 -0.101693D-03  0.220101D-02
     27 -0.271939D-04  0.387935D-02  0.637185D-03 -0.126446D-03  0.179053D-01
               16            17            18            19            20 
     16  0.323924D+00
     17  0.186646D+00  0.237507D+00
     18  0.145797D-01  0.117683D-01  0.528197D-01
     19 -0.157369D-05  0.286097D-04 -0.371759D-03  0.131580D+00
     20 -0.111540D-05  0.202780D-04 -0.263495D-03 -0.106748D+00  0.265454D+00
     21 -0.535949D-04  0.974359D-03 -0.126609D-01  0.776227D-03 -0.872778D-03
     22  0.000000D+00  0.000000D+00  0.000000D+00  0.000000D+00  0.000000D+00
     23  0.000000D+00  0.000000D+00  0.000000D+00  0.000000D+00  0.000000D+00
     24  0.000000D+00  0.000000D+00  0.000000D+00  0.000000D+00  0.000000D+00
     25 -0.271259D-04 -0.353404D-05  0.525676D-03  0.000000D+00  0.000000D+00
     26 -0.218656D-05  0.000000D+00  0.423736D-04  0.000000D+00  0.000000D+00
     27  0.331053D-03  0.431305D-04 -0.641552D-02  0.000000D+00  0.000000D+00
               21            22            23            24            25 
     21  0.392941D-01
     22  0.000000D+00  0.153314D+00
     23  0.000000D+00  0.131052D+00  0.312785D+00
     24  0.000000D+00  0.980152D-02  0.159310D-01  0.449331D-01
     25  0.000000D+00 -0.178792D-04  0.219873D-04 -0.190643D-03  0.246237D+00
     26  0.000000D+00 -0.118136D-03  0.145279D-03 -0.125966D-02 -0.138506D+00
     27  0.000000D+00 -0.102670D-02  0.126260D-02 -0.109475D-01  0.144659D-01
               26            27 
     26  0.189686D+00
     27 -0.122033D-01  0.412741D-01
 Leave Link  716 at Tue Dec 15 16:20:30 2015, MaxMem=    33554432 cpu:         0.0
 (Enter /home/Applications/g09/g09/l103.exe)

 GradGradGradGradGradGradGradGradGradGradGradGradGradGradGradGradGradGrad
 Berny optimization.
 Search for a local minimum.
 Step number   1 out of a maximum of    2
 All quantities printed in internal units (Hartrees-Bohrs-Radians)
 Second derivative matrix not updated -- first step.
 ITU=  0
     Eigenvalues ---    0.01912   0.02536   0.07119   0.07432   0.07936
     Eigenvalues ---    0.08210   0.12780   0.13370   0.15498   0.21929
     Eigenvalues ---    0.26501   0.31215   0.39546   0.43765   0.62944
     Eigenvalues ---    0.85924   1.00560   1.25523   1.36329   1.54782
     Eigenvalues ---    1.69484
 Quadratic step=4.023D-01 exceeds max=3.000D-01 adjusted using Lamda=-5.388D-02.
 Angle between NR and scaled steps=  15.94 degrees.
 Angle between quadratic step and forces=  42.49 degrees.
 Linear search not attempted -- first point.
 TrRot= -0.021002 -0.000027  0.001010 -0.442971 -0.000743  0.442932
 Variable       Old X    -DE/DX   Delta X   Delta X   Delta X     New X
                                 (Linear)    (Quad)   (Total)
    X1        1.87457   0.07243   0.00000   0.06962   0.04859   1.92317
    Y1       -1.28197   0.02509   0.00000   0.00831   0.00820  -1.27377
    Z1       -0.06599   0.00814   0.00000   0.03246   0.03518  -0.03081
    X2       -0.56214  -0.06304   0.00000  -0.05985  -0.08097  -0.64312
    Y2       -2.08968  -0.01175   0.00000  -0.01860  -0.01859  -2.10826
    Z2        0.06938  -0.00407   0.00000  -0.02202  -0.02075   0.04863
    X3       -2.22620  -0.04793   0.00000  -0.12158  -0.14257  -2.36877
    Y3       -0.01775  -0.03540   0.00000  -0.03001  -0.02996  -0.04771
    Z3       -0.03340   0.00028   0.00000   0.00810   0.00755  -0.02585
    X4       -0.55923  -0.07067   0.00000  -0.05797  -0.07890  -0.63813
    Y4        2.07410   0.09463   0.00000   0.07290   0.07290   2.14700
    Z4        0.01160   0.00391   0.00000   0.00509   0.00500   0.01659
    X5        1.88518   0.03840   0.00000   0.07119   0.05029   1.93547
    Y5        1.44581  -0.07731   0.00000  -0.02504  -0.02517   1.42065
    Z5       -0.04710  -0.00958   0.00000  -0.01755  -0.01568  -0.06278
    X6        3.36613   0.05283   0.00000   0.17850   0.15759   3.52372
    Y6        2.62313   0.03654   0.00000   0.03080   0.03064   2.65377
    Z6        0.03723   0.00250   0.00000  -0.01871  -0.01616   0.02107
    X7       -1.57600   0.01345   0.00000   0.01581  -0.00504  -1.58105
    Y7        3.91180  -0.01893   0.00000   0.02819   0.02823   3.94003
    Z7        0.00321   0.00077   0.00000   0.01080   0.00951   0.01271
    X8       -1.54090   0.00136   0.00000   0.01591  -0.00521  -1.54611
    Y8       -3.83032  -0.01689   0.00000  -0.09083  -0.09081  -3.92114
    Z8       -0.03958   0.00104   0.00000  -0.01300  -0.01177  -0.05134
    X9        3.45200   0.00316   0.00000   0.07736   0.05622   3.50822
    Y9       -2.57008   0.00403   0.00000   0.02469   0.02455  -2.54553
    Z9        0.05476  -0.00299   0.00000   0.00293   0.00713   0.06188
         Item               Value     Threshold  Converged?
 Maximum Force            0.094632     0.000450     NO 
 RMS     Force            0.038550     0.000300     NO 
 Maximum Displacement     0.157591     0.001800     NO 
 RMS     Displacement     0.056577     0.001200     NO 
 Predicted change in Energy=-2.464431D-02
 GradGradGradGradGradGradGradGradGradGradGradGradGradGradGradGradGradGrad

 Leave Link  103 at Tue Dec 15 16:20:30 2015, MaxMem=    33554432 cpu:         0.0
 (Enter /home/Applications/g09/g09/l9999.exe)
 1\1\GINC-DUSTIN-DESKTOP\Force\RB3LYP-FC\3-21G\C4H4O1\DUSTIN\15-Dec-201
 5\0\\#P B3LYP/3-21G CIS(Singlets,NStates=15) pop(full) force\\FuranDFT
 \\0,1\C,0.991981,-0.678391,-0.034919\C,-0.297474,-1.105809,0.036716\O,
 -1.178054,-0.009394,-0.017674\C,-0.295931,1.097565,0.006137\C,0.997595
 ,0.765092,-0.024925\H,1.78128,1.388101,0.019703\H,-0.833985,2.070033,0
 .001697\H,-0.815409,-2.026919,-0.020944\H,1.826721,-1.360028,0.028976\
 \Version=ES64L-G09RevD.01\State=1-A\HF=-228.742689\RMSD=6.782e-09\RMSF
 =3.855e-02\Dipole=0.3883294,-0.5774289,0.0122722\PG=C01 [X(C4H4O1)]\\@


 Democracy is the recurrent suspicion that more than half of the people
 are right more than half of the time.
 -- E. B. White
 Job cpu time:       0 days  0 hours  0 minutes 50.1 seconds.
 File lengths (MBytes):  RWF=     14 Int=      0 D2E=      0 Chk=      3 Scr=      1
 Normal termination of Gaussian 09 at Tue Dec 15 16:20:30 2015.
