 Entering Gaussian System, Link 0=g09
 Input=FuranDFT_1.com
 Output=FuranDFT_1.log
 Initial command:
 /home/Applications/g09/g09/l1.exe "/home/Applications/g09/scratch/Gau-5427.inp" -scrdir="/home/Applications/g09/scratch/"
 Entering Link 1 = /home/Applications/g09/g09/l1.exe PID=      5430.
  
 Copyright (c) 1988,1990,1992,1993,1995,1998,2003,2009,2013,
            Gaussian, Inc.  All Rights Reserved.
  
 This is part of the Gaussian(R) 09 program.  It is based on
 the Gaussian(R) 03 system (copyright 2003, Gaussian, Inc.),
 the Gaussian(R) 98 system (copyright 1998, Gaussian, Inc.),
 the Gaussian(R) 94 system (copyright 1995, Gaussian, Inc.),
 the Gaussian 92(TM) system (copyright 1992, Gaussian, Inc.),
 the Gaussian 90(TM) system (copyright 1990, Gaussian, Inc.),
 the Gaussian 88(TM) system (copyright 1988, Gaussian, Inc.),
 the Gaussian 86(TM) system (copyright 1986, Carnegie Mellon
 University), and the Gaussian 82(TM) system (copyright 1983,
 Carnegie Mellon University). Gaussian is a federally registered
 trademark of Gaussian, Inc.
  
 This software contains proprietary and confidential information,
 including trade secrets, belonging to Gaussian, Inc.
  
 This software is provided under written license and may be
 used, copied, transmitted, or stored only in accord with that
 written license.
  
 The following legend is applicable only to US Government
 contracts under FAR:
  
                    RESTRICTED RIGHTS LEGEND
  
 Use, reproduction and disclosure by the US Government is
 subject to restrictions as set forth in subparagraphs (a)
 and (c) of the Commercial Computer Software - Restricted
 Rights clause in FAR 52.227-19.
  
 Gaussian, Inc.
 340 Quinnipiac St., Bldg. 40, Wallingford CT 06492
  
  
 ---------------------------------------------------------------
 Warning -- This program may not be used in any manner that
 competes with the business of Gaussian, Inc. or will provide
 assistance to any competitor of Gaussian, Inc.  The licensee
 of this program is prohibited from giving any competitor of
 Gaussian, Inc. access to this program.  By using this program,
 the user acknowledges that Gaussian, Inc. is engaged in the
 business of creating and licensing software in the field of
 computational chemistry and represents and warrants to the
 licensee that it is not a competitor of Gaussian, Inc. and that
 it will not use this program in any manner prohibited above.
 ---------------------------------------------------------------
  

 Cite this work as:
 Gaussian 09, Revision D.01,
 M. J. Frisch, G. W. Trucks, H. B. Schlegel, G. E. Scuseria, 
 M. A. Robb, J. R. Cheeseman, G. Scalmani, V. Barone, B. Mennucci, 
 G. A. Petersson, H. Nakatsuji, M. Caricato, X. Li, H. P. Hratchian, 
 A. F. Izmaylov, J. Bloino, G. Zheng, J. L. Sonnenberg, M. Hada, 
 M. Ehara, K. Toyota, R. Fukuda, J. Hasegawa, M. Ishida, T. Nakajima, 
 Y. Honda, O. Kitao, H. Nakai, T. Vreven, J. A. Montgomery, Jr., 
 J. E. Peralta, F. Ogliaro, M. Bearpark, J. J. Heyd, E. Brothers, 
 K. N. Kudin, V. N. Staroverov, T. Keith, R. Kobayashi, J. Normand, 
 K. Raghavachari, A. Rendell, J. C. Burant, S. S. Iyengar, J. Tomasi, 
 M. Cossi, N. Rega, J. M. Millam, M. Klene, J. E. Knox, J. B. Cross, 
 V. Bakken, C. Adamo, J. Jaramillo, R. Gomperts, R. E. Stratmann, 
 O. Yazyev, A. J. Austin, R. Cammi, C. Pomelli, J. W. Ochterski, 
 R. L. Martin, K. Morokuma, V. G. Zakrzewski, G. A. Voth, 
 P. Salvador, J. J. Dannenberg, S. Dapprich, A. D. Daniels, 
 O. Farkas, J. B. Foresman, J. V. Ortiz, J. Cioslowski, 
 and D. J. Fox, Gaussian, Inc., Wallingford CT, 2013.
 
 ******************************************
 Gaussian 09:  ES64L-G09RevD.01 24-Apr-2013
                15-Dec-2015 
 ******************************************
 -------------------------------------------------------
 #P B3LYP/3-21G CIS(Singlets,NStates=15) pop(full) force
 -------------------------------------------------------
 1/10=7,30=1,38=1/1,3;
 2/12=2,17=6,18=5,40=1/2;
 3/5=5,11=9,16=1,25=1,30=1,71=1,74=-5/1,2,8,3;
 4//1;
 5/5=2,38=5/2;
 8/6=1,10=1,108=15/1;
 9/15=2,41=15,42=1,48=1/14;
 10/5=4/2;
 6/7=3,18=1/1;
 7/12=6,13=5,29=1/1,2,3,16;
 1/10=7,30=1/3;
 99//99;
 Leave Link    1 at Tue Dec 15 16:10:33 2015, MaxMem=           0 cpu:         0.0
 (Enter /home/Applications/g09/g09/l101.exe)
 --------
 FuranDFT
 --------
 Symbolic Z-matrix:
 Charge =  0 Multiplicity = 1
 6                     0.97564  -0.66844   0.04444 
 6                    -0.35295  -1.05215  -0.04464 
 8                    -1.16901   0.00837   0.00169 
 6                    -0.36766   1.06548   0.02468 
 6                     0.94903   0.73648   0.01543 
 1                     1.77175   1.33961   0.0134 
 1                    -0.84933   2.03906   0.02918 
 1                    -0.79223  -2.07565   0.02142 
 1                     1.85857  -1.40388   0.03528 
 
 NAtoms=      9 NQM=        9 NQMF=       0 NMMI=      0 NMMIF=      0
                NMic=       0 NMicF=      0.
                    Isotopes and Nuclear Properties:
 (Nuclear quadrupole moments (NQMom) in fm**2, nuclear magnetic moments (NMagM)
  in nuclear magnetons)

  Atom         1           2           3           4           5           6           7           8           9
 IAtWgt=          12          12          16          12          12           1           1           1           1
 AtmWgt=  12.0000000  12.0000000  15.9949146  12.0000000  12.0000000   1.0078250   1.0078250   1.0078250   1.0078250
 NucSpn=           0           0           0           0           0           1           1           1           1
 AtZEff=   0.0000000   0.0000000   0.0000000   0.0000000   0.0000000   0.0000000   0.0000000   0.0000000   0.0000000
 NQMom=    0.0000000   0.0000000   0.0000000   0.0000000   0.0000000   0.0000000   0.0000000   0.0000000   0.0000000
 NMagM=    0.0000000   0.0000000   0.0000000   0.0000000   0.0000000   2.7928460   2.7928460   2.7928460   2.7928460
 AtZNuc=   6.0000000   6.0000000   8.0000000   6.0000000   6.0000000   1.0000000   1.0000000   1.0000000   1.0000000
 Leave Link  101 at Tue Dec 15 16:10:33 2015, MaxMem=    33554432 cpu:         0.1
 (Enter /home/Applications/g09/g09/l103.exe)

 GradGradGradGradGradGradGradGradGradGradGradGradGradGradGradGradGradGrad
 Berny optimization.
 Initialization pass.
 Trust Radius=3.00D-01 FncErr=1.00D-07 GrdErr=1.00D-07
 Number of steps in this run=      2 maximum allowed number of steps=      2.
 GradGradGradGradGradGradGradGradGradGradGradGradGradGradGradGradGradGrad

 Leave Link  103 at Tue Dec 15 16:10:33 2015, MaxMem=    33554432 cpu:         0.0
 (Enter /home/Applications/g09/g09/l202.exe)
                          Input orientation:                          
 ---------------------------------------------------------------------
 Center     Atomic      Atomic             Coordinates (Angstroms)
 Number     Number       Type             X           Y           Z
 ---------------------------------------------------------------------
      1          6           0        0.975639   -0.668440    0.044435
      2          6           0       -0.352946   -1.052150   -0.044642
      3          8           0       -1.169008    0.008370    0.001692
      4          6           0       -0.367658    1.065478    0.024677
      5          6           0        0.949033    0.736479    0.015427
      6          1           0        1.771752    1.339605    0.013397
      7          1           0       -0.849328    2.039065    0.029177
      8          1           0       -0.792227   -2.075653    0.021419
      9          1           0        1.858570   -1.403878    0.035276
 ---------------------------------------------------------------------
                    Distance matrix (angstroms):
                    1          2          3          4          5
     1  C    0.000000
     2  C    1.385751   0.000000
     3  O    2.249313   1.338957   0.000000
     4  C    2.193470   2.118813   1.326713   0.000000
     5  C    1.405470   2.213132   2.239739   1.357203   0.000000
     6  H    2.160325   3.199719   3.228063   2.156930   1.020114
     7  H    3.265168   3.131686   2.055887   1.086231   2.220590
     8  H    2.259674   1.115746   2.117901   3.169696   3.307584
     9  H    1.149139   2.240737   3.340928   3.324744   2.325678
                    6          7          8          9
     6  H    0.000000
     7  H    2.712850   0.000000
     8  H    4.270602   4.115121   0.000000
     9  H    2.744944   4.380252   2.734629   0.000000
 Stoichiometry    C4H4O
 Framework group  C1[X(C4H4O)]
 Deg. of freedom    21
 Full point group                 C1      NOp   1
 Largest Abelian subgroup         C1      NOp   1
 Largest concise Abelian subgroup C1      NOp   1
                         Standard orientation:                         
 ---------------------------------------------------------------------
 Center     Atomic      Atomic             Coordinates (Angstroms)
 Number     Number       Type             X           Y           Z
 ---------------------------------------------------------------------
      1          6           0       -1.157311    0.290330   -0.028214
      2          6           0       -0.572330   -0.964085    0.039219
      3          8           0        0.763191   -0.880420   -0.007601
      4          6           0        1.032317    0.418708   -0.009386
      5          6           0       -0.081540    1.193798    0.014300
      6          1           0       -0.168388    2.210029    0.033333
      7          1           0        2.082468    0.696339   -0.010745
      8          1           0       -1.054420   -1.966954   -0.042835
      9          1           0       -2.292005    0.471443   -0.014456
 ---------------------------------------------------------------------
 Rotational constants (GHZ):      9.8840788      9.1575612      4.7566375
 Leave Link  202 at Tue Dec 15 16:10:33 2015, MaxMem=    33554432 cpu:         0.0
 (Enter /home/Applications/g09/g09/l301.exe)
 Standard basis: 3-21G (6D, 7F)
 Ernie: Thresh=  0.10000D-02 Tol=  0.10000D-05 Strict=F.
 There are    53 symmetry adapted cartesian basis functions of A   symmetry.
 There are    53 symmetry adapted basis functions of A   symmetry.
    53 basis functions,    87 primitive gaussians,    53 cartesian basis functions
    18 alpha electrons       18 beta electrons
       nuclear repulsion energy       162.0609288131 Hartrees.
 IExCor=  402 DFT=T Ex+Corr=B3LYP ExCW=0 ScaHFX=  0.200000
 ScaDFX=  0.800000  0.720000  1.000000  0.810000 ScalE2=  1.000000  1.000000
 IRadAn=      0 IRanWt=     -1 IRanGd=            0 ICorTp=0 IEmpDi=  4
 NAtoms=    9 NActive=    9 NUniq=    9 SFac= 1.00D+00 NAtFMM=   60 NAOKFM=F Big=F
 Integral buffers will be    131072 words long.
 Regular integral format.
 Two-electron integral symmetry is turned on.
 Leave Link  301 at Tue Dec 15 16:10:33 2015, MaxMem=    33554432 cpu:         0.0
 (Enter /home/Applications/g09/g09/l302.exe)
 NPDir=0 NMtPBC=     1 NCelOv=     1 NCel=       1 NClECP=     1 NCelD=      1
         NCelK=      1 NCelE2=     1 NClLst=     1 CellRange=     0.0.
 One-electron integrals computed using PRISM.
 NBasis=    53 RedAO= T EigKep=  3.34D-03  NBF=    53
 NBsUse=    53 1.00D-06 EigRej= -1.00D+00 NBFU=    53
 Precomputing XC quadrature grid using
 IXCGrd= 4 IRadAn=           0 IRanWt=          -1 IRanGd=           0 AccXCQ= 0.00D+00.
 Generated NRdTot=       0 NPtTot=           0 NUsed=           0 NTot=          32
 NSgBfM=    53    53    53    53    53 MxSgAt=     9 MxSgA2=     9.
 Leave Link  302 at Tue Dec 15 16:10:33 2015, MaxMem=    33554432 cpu:         0.1
 (Enter /home/Applications/g09/g09/l308.exe)
 Leave Link  308 at Tue Dec 15 16:10:33 2015, MaxMem=    33554432 cpu:         0.0
 (Enter /home/Applications/g09/g09/l303.exe)
 DipDrv:  MaxL=1.
 Leave Link  303 at Tue Dec 15 16:10:33 2015, MaxMem=    33554432 cpu:         0.0
 (Enter /home/Applications/g09/g09/l401.exe)
 ExpMin= 1.83D-01 ExpMax= 3.22D+02 ExpMxC= 3.22D+02 IAcc=1 IRadAn=         1 AccDes= 0.00D+00
 Harris functional with IExCor=  402 and IRadAn=       1 diagonalized for initial guess.
 HarFok:  IExCor=  402 AccDes= 0.00D+00 IRadAn=         1 IDoV= 1 UseB2=F ITyADJ=14
 ICtDFT=  3500011 ScaDFX=  1.000000  1.000000  1.000000  1.000000
 FoFCou: FMM=F IPFlag=           0 FMFlag=      100000 FMFlg1=           0
         NFxFlg=           0 DoJE=T BraDBF=F KetDBF=T FulRan=T
         wScrn=  0.000000 ICntrl=     500 IOpCl=  0 I1Cent=   200000004 NGrid=           0
         NMat0=    1 NMatS0=      1 NMatT0=    0 NMatD0=    1 NMtDS0=    0 NMtDT0=    0
 Petite list used in FoFCou.
 Harris En= -228.723970813668    
 JPrj=0 DoOrth=F DoCkMO=F.
 Leave Link  401 at Tue Dec 15 16:10:33 2015, MaxMem=    33554432 cpu:         0.2
 (Enter /home/Applications/g09/g09/l502.exe)
 Closed shell SCF:
 Using DIIS extrapolation, IDIIS=  1040.
 Integral symmetry usage will be decided dynamically.
 Keep R1 ints in memory in canonical form, NReq=1925595.
 IVT=       27707 IEndB=       27707 NGot=    33554432 MDV=    32502130
 LenX=    32502130 LenY=    32498880
 Requested convergence on RMS density matrix=1.00D-08 within 128 cycles.
 Requested convergence on MAX density matrix=1.00D-06.
 Requested convergence on             energy=1.00D-06.
 No special actions if energy rises.
 FoFCou: FMM=F IPFlag=           0 FMFlag=           0 FMFlg1=           0
         NFxFlg=           0 DoJE=F BraDBF=F KetDBF=F FulRan=T
         wScrn=  0.000000 ICntrl=     600 IOpCl=  0 I1Cent=           0 NGrid=           0
         NMat0=    1 NMatS0=   1431 NMatT0=    0 NMatD0=    1 NMtDS0=    0 NMtDT0=    0
 Symmetry not used in FoFCou.
 Integral accuracy reduced to 1.0D-05 until final iterations.

 Cycle   1  Pass 0  IDiag  1:
 E= -228.649928944807    
 DIIS: error= 3.27D-02 at cycle   1 NSaved=   1.
 NSaved= 1 IEnMin= 1 EnMin= -228.649928944807     IErMin= 1 ErrMin= 3.27D-02
 ErrMax= 3.27D-02  0.00D+00 EMaxC= 1.00D-01 BMatC= 8.08D-02 BMatP= 8.08D-02
 IDIUse=3 WtCom= 6.73D-01 WtEn= 3.27D-01
 Coeff-Com:  0.100D+01
 Coeff-En:   0.100D+01
 Coeff:      0.100D+01
 Gap=     0.223 Goal=   None    Shift=    0.000
 GapD=    0.223 DampG=1.000 DampE=0.500 DampFc=0.5000 IDamp=-1.
 Damping current iteration by 5.00D-01
 RMSDP=1.28D-02 MaxDP=1.27D-01              OVMax= 2.17D-01

 Cycle   2  Pass 0  IDiag  1:
 E= -228.680377800857     Delta-E=       -0.030448856050 Rises=F Damp=T
 DIIS: error= 1.52D-02 at cycle   2 NSaved=   2.
 NSaved= 2 IEnMin= 2 EnMin= -228.680377800857     IErMin= 2 ErrMin= 1.52D-02
 ErrMax= 1.52D-02  0.00D+00 EMaxC= 1.00D-01 BMatC= 1.02D-02 BMatP= 8.08D-02
 IDIUse=3 WtCom= 8.48D-01 WtEn= 1.52D-01
 Coeff-Com:  0.141D+00 0.859D+00
 Coeff-En:   0.245D+00 0.755D+00
 Coeff:      0.157D+00 0.843D+00
 Gap=     0.241 Goal=   None    Shift=    0.000
 RMSDP=4.37D-03 MaxDP=3.61D-02 DE=-3.04D-02 OVMax= 1.81D-01

 Cycle   3  Pass 0  IDiag  1:
 E= -228.724975326008     Delta-E=       -0.044597525151 Rises=F Damp=F
 DIIS: error= 1.84D-02 at cycle   3 NSaved=   3.
 NSaved= 3 IEnMin= 3 EnMin= -228.724975326008     IErMin= 2 ErrMin= 1.52D-02
 ErrMax= 1.84D-02  0.00D+00 EMaxC= 1.00D-01 BMatC= 1.08D-02 BMatP= 1.02D-02
 IDIUse=3 WtCom= 8.16D-01 WtEn= 1.84D-01
 Coeff-Com:  0.508D-02 0.505D+00 0.490D+00
 Coeff-En:   0.000D+00 0.000D+00 0.100D+01
 Coeff:      0.414D-02 0.412D+00 0.584D+00
 Gap=     0.245 Goal=   None    Shift=    0.000
 RMSDP=2.77D-03 MaxDP=2.23D-02 DE=-4.46D-02 OVMax= 5.44D-02

 Cycle   4  Pass 0  IDiag  1:
 E= -228.732826451505     Delta-E=       -0.007851125497 Rises=F Damp=F
 DIIS: error= 9.22D-03 at cycle   4 NSaved=   4.
 NSaved= 4 IEnMin= 4 EnMin= -228.732826451505     IErMin= 4 ErrMin= 9.22D-03
 ErrMax= 9.22D-03  0.00D+00 EMaxC= 1.00D-01 BMatC= 2.27D-03 BMatP= 1.02D-02
 IDIUse=3 WtCom= 9.08D-01 WtEn= 9.22D-02
 Coeff-Com:  0.748D-02 0.494D-01 0.319D+00 0.624D+00
 Coeff-En:   0.000D+00 0.000D+00 0.198D+00 0.802D+00
 Coeff:      0.679D-02 0.449D-01 0.308D+00 0.640D+00
 Gap=     0.250 Goal=   None    Shift=    0.000
 RMSDP=8.92D-04 MaxDP=8.49D-03 DE=-7.85D-03 OVMax= 1.87D-02

 Cycle   5  Pass 0  IDiag  1:
 E= -228.734714713838     Delta-E=       -0.001888262333 Rises=F Damp=F
 DIIS: error= 1.41D-03 at cycle   5 NSaved=   5.
 NSaved= 5 IEnMin= 5 EnMin= -228.734714713838     IErMin= 5 ErrMin= 1.41D-03
 ErrMax= 1.41D-03  0.00D+00 EMaxC= 1.00D-01 BMatC= 7.88D-05 BMatP= 2.27D-03
 IDIUse=3 WtCom= 9.86D-01 WtEn= 1.41D-02
 Coeff-Com:  0.473D-02 0.484D-02 0.152D+00 0.370D+00 0.469D+00
 Coeff-En:   0.000D+00 0.000D+00 0.000D+00 0.000D+00 0.100D+01
 Coeff:      0.466D-02 0.477D-02 0.150D+00 0.365D+00 0.476D+00
 Gap=     0.249 Goal=   None    Shift=    0.000
 RMSDP=1.27D-04 MaxDP=1.26D-03 DE=-1.89D-03 OVMax= 2.49D-03

 Cycle   6  Pass 0  IDiag  1:
 E= -228.734772745890     Delta-E=       -0.000058032052 Rises=F Damp=F
 DIIS: error= 1.40D-04 at cycle   6 NSaved=   6.
 NSaved= 6 IEnMin= 6 EnMin= -228.734772745890     IErMin= 6 ErrMin= 1.40D-04
 ErrMax= 1.40D-04  0.00D+00 EMaxC= 1.00D-01 BMatC= 9.23D-07 BMatP= 7.88D-05
 IDIUse=3 WtCom= 9.99D-01 WtEn= 1.40D-03
 Coeff-Com:  0.124D-02-0.401D-02 0.102D-01 0.423D-01 0.131D+00 0.819D+00
 Coeff-En:   0.000D+00 0.000D+00 0.000D+00 0.000D+00 0.000D+00 0.100D+01
 Coeff:      0.124D-02-0.400D-02 0.101D-01 0.422D-01 0.131D+00 0.819D+00
 Gap=     0.249 Goal=   None    Shift=    0.000
 RMSDP=2.54D-05 MaxDP=3.01D-04 DE=-5.80D-05 OVMax= 4.15D-04

 Cycle   7  Pass 0  IDiag  1:
 E= -228.734773634231     Delta-E=       -0.000000888341 Rises=F Damp=F
 DIIS: error= 4.71D-05 at cycle   7 NSaved=   7.
 NSaved= 7 IEnMin= 7 EnMin= -228.734773634231     IErMin= 7 ErrMin= 4.71D-05
 ErrMax= 4.71D-05  0.00D+00 EMaxC= 1.00D-01 BMatC= 6.23D-08 BMatP= 9.23D-07
 IDIUse=1 WtCom= 1.00D+00 WtEn= 0.00D+00
 Coeff-Com:  0.607D-03-0.210D-02 0.332D-02 0.165D-01 0.591D-01 0.414D+00
 Coeff-Com:  0.508D+00
 Coeff:      0.607D-03-0.210D-02 0.332D-02 0.165D-01 0.591D-01 0.414D+00
 Coeff:      0.508D+00
 Gap=     0.249 Goal=   None    Shift=    0.000
 RMSDP=5.54D-06 MaxDP=8.93D-05 DE=-8.88D-07 OVMax= 1.24D-04

 Initial convergence to 1.0D-05 achieved.  Increase integral accuracy.
 Cycle   8  Pass 1  IDiag  1:
 E= -228.734743340589     Delta-E=        0.000030293642 Rises=F Damp=F
 DIIS: error= 1.26D-05 at cycle   1 NSaved=   1.
 NSaved= 1 IEnMin= 1 EnMin= -228.734743340589     IErMin= 1 ErrMin= 1.26D-05
 ErrMax= 1.26D-05  0.00D+00 EMaxC= 1.00D-01 BMatC= 1.08D-08 BMatP= 1.08D-08
 IDIUse=1 WtCom= 1.00D+00 WtEn= 0.00D+00
 Coeff-Com:  0.100D+01
 Coeff:      0.100D+01
 Gap=     0.249 Goal=   None    Shift=    0.000
 RMSDP=5.54D-06 MaxDP=8.93D-05 DE= 3.03D-05 OVMax= 7.53D-05

 Cycle   9  Pass 1  IDiag  1:
 E= -228.734743350812     Delta-E=       -0.000000010223 Rises=F Damp=F
 DIIS: error= 9.77D-06 at cycle   2 NSaved=   2.
 NSaved= 2 IEnMin= 2 EnMin= -228.734743350812     IErMin= 2 ErrMin= 9.77D-06
 ErrMax= 9.77D-06  0.00D+00 EMaxC= 1.00D-01 BMatC= 5.54D-09 BMatP= 1.08D-08
 IDIUse=1 WtCom= 1.00D+00 WtEn= 0.00D+00
 Coeff-Com:  0.380D+00 0.620D+00
 Coeff:      0.380D+00 0.620D+00
 Gap=     0.249 Goal=   None    Shift=    0.000
 RMSDP=2.54D-06 MaxDP=3.33D-05 DE=-1.02D-08 OVMax= 5.14D-05

 Cycle  10  Pass 1  IDiag  1:
 E= -228.734743353744     Delta-E=       -0.000000002932 Rises=F Damp=F
 DIIS: error= 9.65D-06 at cycle   3 NSaved=   3.
 NSaved= 3 IEnMin= 3 EnMin= -228.734743353744     IErMin= 3 ErrMin= 9.65D-06
 ErrMax= 9.65D-06  0.00D+00 EMaxC= 1.00D-01 BMatC= 2.97D-09 BMatP= 5.54D-09
 IDIUse=1 WtCom= 1.00D+00 WtEn= 0.00D+00
 Coeff-Com:  0.904D-02 0.419D+00 0.572D+00
 Coeff:      0.904D-02 0.419D+00 0.572D+00
 Gap=     0.249 Goal=   None    Shift=    0.000
 RMSDP=1.14D-06 MaxDP=1.26D-05 DE=-2.93D-09 OVMax= 2.62D-05

 Cycle  11  Pass 1  IDiag  1:
 E= -228.734743356421     Delta-E=       -0.000000002677 Rises=F Damp=F
 DIIS: error= 2.40D-06 at cycle   4 NSaved=   4.
 NSaved= 4 IEnMin= 4 EnMin= -228.734743356421     IErMin= 4 ErrMin= 2.40D-06
 ErrMax= 2.40D-06  0.00D+00 EMaxC= 1.00D-01 BMatC= 2.55D-10 BMatP= 2.97D-09
 IDIUse=1 WtCom= 1.00D+00 WtEn= 0.00D+00
 Coeff-Com: -0.169D-01 0.232D+00 0.354D+00 0.431D+00
 Coeff:     -0.169D-01 0.232D+00 0.354D+00 0.431D+00
 Gap=     0.249 Goal=   None    Shift=    0.000
 RMSDP=2.82D-07 MaxDP=4.58D-06 DE=-2.68D-09 OVMax= 5.89D-06

 Cycle  12  Pass 1  IDiag  1:
 E= -228.734743356636     Delta-E=       -0.000000000215 Rises=F Damp=F
 DIIS: error= 2.67D-07 at cycle   5 NSaved=   5.
 NSaved= 5 IEnMin= 5 EnMin= -228.734743356636     IErMin= 5 ErrMin= 2.67D-07
 ErrMax= 2.67D-07  0.00D+00 EMaxC= 1.00D-01 BMatC= 2.20D-12 BMatP= 2.55D-10
 IDIUse=1 WtCom= 1.00D+00 WtEn= 0.00D+00
 Coeff-Com: -0.494D-02 0.552D-01 0.798D-01 0.140D+00 0.730D+00
 Coeff:     -0.494D-02 0.552D-01 0.798D-01 0.140D+00 0.730D+00
 Gap=     0.249 Goal=   None    Shift=    0.000
 RMSDP=4.99D-08 MaxDP=3.76D-07 DE=-2.15D-10 OVMax= 8.79D-07

 Cycle  13  Pass 1  IDiag  1:
 E= -228.734743356639     Delta-E=       -0.000000000003 Rises=F Damp=F
 DIIS: error= 1.61D-07 at cycle   6 NSaved=   6.
 NSaved= 6 IEnMin= 6 EnMin= -228.734743356639     IErMin= 6 ErrMin= 1.61D-07
 ErrMax= 1.61D-07  0.00D+00 EMaxC= 1.00D-01 BMatC= 7.35D-13 BMatP= 2.20D-12
 IDIUse=1 WtCom= 1.00D+00 WtEn= 0.00D+00
 Coeff-Com: -0.194D-02 0.144D-01 0.198D-01 0.460D-01 0.427D+00 0.494D+00
 Coeff:     -0.194D-02 0.144D-01 0.198D-01 0.460D-01 0.427D+00 0.494D+00
 Gap=     0.249 Goal=   None    Shift=    0.000
 RMSDP=1.93D-08 MaxDP=1.91D-07 DE=-3.01D-12 OVMax= 5.55D-07

 Cycle  14  Pass 1  IDiag  1:
 E= -228.734743356639     Delta-E=        0.000000000000 Rises=F Damp=F
 DIIS: error= 2.42D-08 at cycle   7 NSaved=   7.
 NSaved= 7 IEnMin= 6 EnMin= -228.734743356639     IErMin= 7 ErrMin= 2.42D-08
 ErrMax= 2.42D-08  0.00D+00 EMaxC= 1.00D-01 BMatC= 3.74D-14 BMatP= 7.35D-13
 IDIUse=1 WtCom= 1.00D+00 WtEn= 0.00D+00
 Coeff-Com: -0.132D-03-0.437D-03-0.252D-03-0.377D-03 0.912D-01 0.195D+00
 Coeff-Com:  0.715D+00
 Coeff:     -0.132D-03-0.437D-03-0.252D-03-0.377D-03 0.912D-01 0.195D+00
 Coeff:      0.715D+00
 Gap=     0.249 Goal=   None    Shift=    0.000
 RMSDP=4.89D-09 MaxDP=3.64D-08 DE= 2.84D-13 OVMax= 1.01D-07

 SCF Done:  E(RB3LYP) =  -228.734743357     A.U. after   14 cycles
            NFock= 14  Conv=0.49D-08     -V/T= 2.0077
 KE= 2.269821087721D+02 PE=-8.566051835954D+02 EE= 2.388274026536D+02
 Leave Link  502 at Tue Dec 15 16:10:36 2015, MaxMem=    33554432 cpu:         3.1
 (Enter /home/Applications/g09/g09/l801.exe)
 DoSCS=F DFT=T ScalE2(SS,OS)=  1.000000  1.000000
 ExpMin= 1.83D-01 ExpMax= 3.22D+02 ExpMxC= 3.22D+02 IAcc=3 IRadAn=         5 AccDes= 0.00D+00
 HarFok:  IExCor=  205 AccDes= 0.00D+00 IRadAn=         5 IDoV=-2 UseB2=F ITyADJ=14
 ICtDFT= 12500011 ScaDFX=  1.000000  1.000000  1.000000  1.000000
 Largest valence mixing into a core orbital is  1.70D-04
 Largest core mixing into a valence orbital is  4.44D-05
 Range of M.O.s used for correlation:     6    53
 NBasis=    53 NAE=    18 NBE=    18 NFC=     5 NFV=     0
 NROrb=     48 NOA=    13 NOB=    13 NVA=    35 NVB=    35
 Leave Link  801 at Tue Dec 15 16:10:36 2015, MaxMem=    33554432 cpu:         0.2
 (Enter /home/Applications/g09/g09/l914.exe)
 RHF ground state
 MDV=    33554432 DFT=T DoStab=F Mixed=T DoRPA=F DoScal=F NonHer=F
 Keep R1, R2, and R3 ints in memory in canonical form, NReq=5596273.
 FoFCou: FMM=F IPFlag=           0 FMFlag=           0 FMFlg1=           0
         NFxFlg=           0 DoJE=F BraDBF=F KetDBF=F FulRan=T
         wScrn=  0.000000 ICntrl=     600 IOpCl=  0 I1Cent=           0 NGrid=           0
         NMat0=    1 NMatS0=   1431 NMatT0=    0 NMatD0=    1 NMtDS0=    0 NMtDT0=    0
 Symmetry not used in FoFCou.
 Making orbital integer symmetry assigments:
 Orbital symmetries:
       Occupied  (A) (A) (A) (A) (A) (A) (A) (A) (A) (A) (A) (A)
                 (A) (A) (A) (A) (A) (A)
       Virtual   (A) (A) (A) (A) (A) (A) (A) (A) (A) (A) (A) (A)
                 (A) (A) (A) (A) (A) (A) (A) (A) (A) (A) (A) (A)
                 (A) (A) (A) (A) (A) (A) (A) (A) (A) (A) (A)
    60 initial guesses have been made.
 Convergence on wavefunction:    0.000001000000000
 Davidson Disk Diagonalization:  ConvIn= 1.00D-06 SkipCon=T Conv= 1.00D-06.
 Max sub-space:   240 roots to seek:    60 dimension of matrix:          910
 Iteration     1 Dimension    60 NMult     0 NNew     60
 CISAX will form    60 AO SS matrices at one time.
 NMat=    60 NSing=    60 JSym2X= 0.
 New state      1 was old state      3
 New state      2 was old state      1
 New state      3 was old state      4
 New state      4 was old state      7
 New state      5 was old state      6
 New state      6 was old state      8
 New state      7 was old state      9
 New state      8 was old state     11
 New state      9 was old state     13
 New state     11 was old state      5
 New state     12 was old state     14
 New state     13 was old state     12
 New state     14 was old state      2
 New state     15 was old state     16
 Excitation Energies [eV] at current iteration:
 Root      1 :     7.396401213629573
 Root      2 :     8.100764786257717
 Root      3 :     8.365638249489555
 Root      4 :     9.008235850087203
 Root      5 :     9.199504311136074
 Root      6 :     9.653409305433748
 Root      7 :     9.910766667739553
 Root      8 :    10.092856372879490
 Root      9 :    10.220380919424790
 Root     10 :    10.360166295536900
 Root     11 :    10.407398625557350
 Root     12 :    10.699940244390080
 Root     13 :    10.748587396710960
 Root     14 :    11.109363101350650
 Root     15 :    11.267984438537590
 Root     16 :    11.339487618876250
 Root     17 :    11.377130844881090
 Root     18 :    11.443499940000520
 Root     19 :    11.608648995375380
 Root     20 :    11.821366927284290
 Root     21 :    11.897318059835730
 Root     22 :    12.273102894608360
 Root     23 :    12.560668019942200
 Root     24 :    12.901775510579900
 Root     25 :    12.905317114903370
 Root     26 :    13.214048675631810
 Root     27 :    13.512335441681960
 Root     28 :    13.629369456813960
 Root     29 :    13.801430655034850
 Root     30 :    13.994844996834940
 Root     31 :    14.119468595214540
 Root     32 :    14.158551194210840
 Root     33 :    14.209450396885100
 Root     34 :    14.226238970302510
 Root     35 :    14.289358202823990
 Root     36 :    14.727159526628260
 Root     37 :    14.850132479116750
 Root     38 :    14.908616856635800
 Root     39 :    15.063590482894640
 Root     40 :    15.138436692692160
 Root     41 :    15.257017882615760
 Root     42 :    15.293081819567260
 Root     43 :    15.497302433503470
 Root     44 :    15.541029961098740
 Root     45 :    15.599421588928460
 Root     46 :    15.639144640319430
 Root     47 :    15.750246230115510
 Root     48 :    15.800177144972800
 Root     49 :    15.850523584259080
 Root     50 :    15.886289946538420
 Root     51 :    16.136230225061880
 Root     52 :    16.284784491831040
 Root     53 :    16.300652939490500
 Root     54 :    16.386941891800090
 Root     55 :    16.434555697121880
 Root     56 :    16.695227035250430
 Root     57 :    16.892488040014540
 Root     58 :    17.212210459235460
 Root     59 :    17.491987597971590
 Root     60 :    17.855086844889190
 Iteration     2 Dimension   120 NMult    60 NNew     60
 CISAX will form    60 AO SS matrices at one time.
 NMat=    60 NSing=    60 JSym2X= 0.
 New state      1 was old state      2
 Root      1 not converged, maximum delta is    0.123898207205592
 New state      2 was old state      1
 Root      2 not converged, maximum delta is    0.169240738725578
 Root      3 not converged, maximum delta is    0.107120963629768
 Root      4 not converged, maximum delta is    0.022685472025607
 Root      5 not converged, maximum delta is    0.055743975085260
 Root      6 not converged, maximum delta is    0.196745405783436
 New state      7 was old state     11
 Root      7 not converged, maximum delta is    0.389276422762366
 New state      8 was old state      7
 Root      8 not converged, maximum delta is    0.398025336102993
 New state      9 was old state     14
 Root      9 not converged, maximum delta is    0.379284050608029
 New state     10 was old state      8
 Root     10 not converged, maximum delta is    0.041235625016003
 New state     11 was old state      9
 Root     11 not converged, maximum delta is    0.275465799456755
 New state     12 was old state     10
 Root     12 not converged, maximum delta is    0.319091256612201
 Root     13 not converged, maximum delta is    0.197608564552761
 New state     14 was old state     12
 Root     14 not converged, maximum delta is    0.175455879169639
 Root     15 not converged, maximum delta is    0.161511735056322
 Excitation Energies [eV] at current iteration:
 Root      1 :     7.235463143160907   Change is   -0.865301643096810
 Root      2 :     7.267969344557393   Change is   -0.128431869072180
 Root      3 :     8.350018965376970   Change is   -0.015619284112586
 Root      4 :     8.976679173789277   Change is   -0.031556676297927
 Root      5 :     9.160055673486998   Change is   -0.039448637649077
 Root      6 :     9.606409250828621   Change is   -0.047000054605125
 Root      7 :     9.722281557216048   Change is   -0.685117068341303
 Root      8 :     9.877181256069068   Change is   -0.033585411670484
 Root      9 :     9.927970001510813   Change is   -1.181393099839841
 Root     10 :    10.081539915474630   Change is   -0.011316457404860
 Root     11 :    10.240116952653460   Change is    0.019736033228668
 Root     12 :    10.359590086648320   Change is   -0.000576208888583
 Root     13 :    10.687490829751860   Change is   -0.061096566959100
 Root     14 :    10.719797537268080   Change is    0.019857292877997
 Root     15 :    11.227434002373460   Change is   -0.040550436164124
 Root     16 :    11.311821127976280   Change is   -0.027666490899976
 Root     17 :    11.351171264274350   Change is   -0.025959580606747
 Root     18 :    11.363267333734730   Change is   -0.080232606265789
 Root     19 :    11.581257874075940   Change is   -0.027391121299430
 Root     20 :    11.802367556035800   Change is   -0.018999371248494
 Root     21 :    11.855010316863290   Change is   -0.042307742972438
 Root     22 :    12.189810435806310   Change is   -0.083292458802046
 Root     23 :    12.524656763300400   Change is   -0.036011256641797
 Root     24 :    12.776305318019750   Change is   -0.129011796883616
 Root     25 :    12.881930173391930   Change is   -0.019845337187967
 Root     26 :    13.065154729814750   Change is   -0.447180711867212
 Root     27 :    13.160302695623330   Change is   -0.053745980008486
 Root     28 :    13.600420587466600   Change is   -0.028948869347352
 Root     29 :    13.661524000838180   Change is   -0.333320995996759
 Root     30 :    13.692733204007060   Change is   -0.108697451027786
 Root     31 :    13.850069828356590   Change is   -0.376169141945920
 Root     32 :    14.097883495193010   Change is   -0.021585100021524
 Root     33 :    14.109993199514240   Change is   -0.048557994696595
 Root     34 :    14.140316599881980   Change is   -0.149041602942003
 Root     35 :    14.180031410234170   Change is   -0.029418986650930
 Root     36 :    14.297378037968880   Change is   -0.611238818666922
 Root     37 :    14.673031744471870   Change is   -0.054127782156389
 Root     38 :    14.826472614499440   Change is   -0.023659864617308
 Root     39 :    14.884434010257290   Change is   -0.179156472637357
 Root     40 :    15.021581555353540   Change is   -0.116855137338617
 Root     41 :    15.126968435279830   Change is   -0.130049447335930
 Root     42 :    15.159722295414750   Change is   -0.133359524152508
 Root     43 :    15.200305107029570   Change is   -0.296997326473900
 Root     44 :    15.357110893048500   Change is   -0.242310695879955
 Root     45 :    15.469698418294640   Change is   -0.280547811820866
 Root     46 :    15.503375023952270   Change is   -0.037654937146466
 Root     47 :    15.577733876316610   Change is   -0.061410764002817
 Root     48 :    15.603789835994030   Change is   -0.246733748265041
 Root     49 :    15.617842173808400   Change is   -0.268447772730010
 Root     50 :    15.761464108626100   Change is   -0.038713036346699
 Root     51 :    16.085326578932600   Change is   -0.050903646129279
 Root     52 :    16.192048004444070   Change is   -0.108604935046436
 Root     53 :    16.222430945747000   Change is   -0.164510946053090
 Root     54 :    16.255816111957670   Change is   -0.028968379873363
 Root     55 :    16.300706707734210   Change is   -0.394520327516212
 Root     56 :    16.363539588970550   Change is   -0.071016108151325
 Root     57 :    16.407775292580460   Change is   -1.084212305391131
 Root     58 :    16.529308887498050   Change is   -0.682901571737412
 Root     59 :    16.719507516350740   Change is   -1.135579328538450
 Root     60 :    16.860014557950720   Change is   -0.032473482063822
 Iteration     3 Dimension   135 NMult   120 NNew     15
 CISAX will form    15 AO SS matrices at one time.
 NMat=    15 NSing=    15 JSym2X= 0.
 Root      1 not converged, maximum delta is    0.003769246555457
 Root      2 not converged, maximum delta is    0.005104744381865
 Root      3 not converged, maximum delta is    0.000173644147895
 Root      4 not converged, maximum delta is    0.000351427260202
 Root      5 not converged, maximum delta is    0.000681635263881
 Root      6 not converged, maximum delta is    0.006011001674967
 Root      7 not converged, maximum delta is    0.006822465928466
 Root      8 not converged, maximum delta is    0.014112572526033
 Root      9 not converged, maximum delta is    0.014495429815167
 Root     10 not converged, maximum delta is    0.000565778126465
 Root     11 not converged, maximum delta is    0.000594445212794
 Root     12 not converged, maximum delta is    0.000379493561271
 Root     13 not converged, maximum delta is    0.000653003675443
 Root     14 not converged, maximum delta is    0.000448145065609
 Root     15 not converged, maximum delta is    0.000306786837434
 Excitation Energies [eV] at current iteration:
 Root      1 :     7.233521988406824   Change is   -0.001941154754083
 Root      2 :     7.267074087283810   Change is   -0.000895257273583
 Root      3 :     8.350009071560821   Change is   -0.000009893816149
 Root      4 :     8.976629483254404   Change is   -0.000049690534872
 Root      5 :     9.159867407243420   Change is   -0.000188266243579
 Root      6 :     9.605051761685147   Change is   -0.001357489143475
 Root      7 :     9.720051509772205   Change is   -0.002230047443843
 Root      8 :     9.875866258457762   Change is   -0.001314997611306
 Root      9 :     9.925755493215087   Change is   -0.002214508295726
 Root     10 :    10.081504043968200   Change is   -0.000035871506433
 Root     11 :    10.240008380559940   Change is   -0.000108572093518
 Root     12 :    10.359532853177560   Change is   -0.000057233470761
 Root     13 :    10.687398917296150   Change is   -0.000091912455710
 Root     14 :    10.719736618246590   Change is   -0.000060919021487
 Root     15 :    11.227387414155250   Change is   -0.000046588218210
 Iteration     4 Dimension   150 NMult   135 NNew     15
 CISAX will form    15 AO SS matrices at one time.
 NMat=    15 NSing=    15 JSym2X= 0.
 Root      1 not converged, maximum delta is    0.000090785703794
 Root      2 not converged, maximum delta is    0.000063283849234
 Root      3 not converged, maximum delta is    0.000004738488399
 Root      4 not converged, maximum delta is    0.000006886680897
 Root      5 not converged, maximum delta is    0.000016640072473
 Root      6 not converged, maximum delta is    0.000044848940788
 Root      7 not converged, maximum delta is    0.000050847888463
 Root      8 not converged, maximum delta is    0.000058521562661
 Root      9 not converged, maximum delta is    0.000068537747139
 Root     10 not converged, maximum delta is    0.000007783968120
 Root     11 not converged, maximum delta is    0.000014217243944
 Root     12 not converged, maximum delta is    0.000009031333164
 Root     13 not converged, maximum delta is    0.000014611392834
 Root     14 not converged, maximum delta is    0.000013366535102
 Root     15 not converged, maximum delta is    0.000013787655013
 Excitation Energies [eV] at current iteration:
 Root      1 :     7.233519753098429   Change is   -0.000002235308395
 Root      2 :     7.267072860587064   Change is   -0.000001226696746
 Root      3 :     8.350009062975170   Change is   -0.000000008585651
 Root      4 :     8.976629443791643   Change is   -0.000000039462762
 Root      5 :     9.159867190357042   Change is   -0.000000216886377
 Root      6 :     9.605049910710147   Change is   -0.000001850975000
 Root      7 :     9.720048488769836   Change is   -0.000003021002369
 Root      8 :     9.875864231074145   Change is   -0.000002027383618
 Root      9 :     9.925752483742642   Change is   -0.000003009472446
 Root     10 :    10.081504009479930   Change is   -0.000000034488270
 Root     11 :    10.240008245262320   Change is   -0.000000135297622
 Root     12 :    10.359532795563380   Change is   -0.000000057614178
 Root     13 :    10.687398782222650   Change is   -0.000000135073506
 Root     14 :    10.719736529572340   Change is   -0.000000088674242
 Root     15 :    11.227387364386250   Change is   -0.000000049768997
 Iteration     5 Dimension   165 NMult   150 NNew     15
 CISAX will form    15 AO SS matrices at one time.
 NMat=    15 NSing=    15 JSym2X= 0.
 Root      1 not converged, maximum delta is    0.000001768125292
 Root      2 not converged, maximum delta is    0.000001241697059
 Root      3 has converged.
 Root      4 has converged.
 Root      5 has converged.
 Root      6 not converged, maximum delta is    0.000001401192410
 Root      7 not converged, maximum delta is    0.000001966200599
 Root      8 not converged, maximum delta is    0.000002159282643
 Root      9 not converged, maximum delta is    0.000002144411821
 Root     10 has converged.
 Root     11 has converged.
 Root     12 not converged, maximum delta is    0.000001052358872
 Root     13 has converged.
 Root     14 has converged.
 Root     15 not converged, maximum delta is    0.000001012207443
 Excitation Energies [eV] at current iteration:
 Root      1 :     7.233519751198070   Change is   -0.000000001900359
 Root      2 :     7.267072859422069   Change is   -0.000000001164994
 Root      3 :     8.350009062967398   Change is   -0.000000000007770
 Root      4 :     8.976629443762695   Change is   -0.000000000028948
 Root      5 :     9.159867190198781   Change is   -0.000000000158260
 Root      6 :     9.605049909353406   Change is   -0.000000001356740
 Root      7 :     9.720048486405402   Change is   -0.000000002364435
 Root      8 :     9.875864229188991   Change is   -0.000000001885153
 Root      9 :     9.925752481183956   Change is   -0.000000002558685
 Root     10 :    10.081504009449010   Change is   -0.000000000030912
 Root     11 :    10.240008245148590   Change is   -0.000000000113733
 Root     12 :    10.359532795506270   Change is   -0.000000000057109
 Root     13 :    10.687398782076060   Change is   -0.000000000146590
 Root     14 :    10.719736529486180   Change is   -0.000000000086162
 Root     15 :    11.227387364333060   Change is   -0.000000000053197
 Iteration     6 Dimension   172 NMult   165 NNew      7
 CISAX will form     7 AO SS matrices at one time.
 NMat=     7 NSing=     7 JSym2X= 0.
 Root      1 has converged.
 Root      2 has converged.
 Root      3 has converged.
 Root      4 has converged.
 Root      5 has converged.
 Root      6 has converged.
 Root      7 has converged.
 Root      8 has converged.
 Root      9 has converged.
 Root     10 has converged.
 Root     11 has converged.
 Root     12 has converged.
 Root     13 has converged.
 Root     14 has converged.
 Root     15 has converged.
 Excitation Energies [eV] at current iteration:
 Root      1 :     7.233519751197408   Change is   -0.000000000000663
 Root      2 :     7.267072859421657   Change is   -0.000000000000412
 Root      3 :     8.350009062967400   Change is    0.000000000000002
 Root      4 :     8.976629443762702   Change is    0.000000000000008
 Root      5 :     9.159867190198721   Change is   -0.000000000000060
 Root      6 :     9.605049909352578   Change is   -0.000000000000828
 Root      7 :     9.720048486403908   Change is   -0.000000000001494
 Root      8 :     9.875864229187425   Change is   -0.000000000001566
 Root      9 :     9.925752481181927   Change is   -0.000000000002029
 Root     10 :    10.081504009449000   Change is   -0.000000000000012
 Root     11 :    10.240008245148550   Change is   -0.000000000000033
 Root     12 :    10.359532795506230   Change is   -0.000000000000041
 Root     13 :    10.687398782075940   Change is   -0.000000000000113
 Root     14 :    10.719736529486120   Change is   -0.000000000000059
 Root     15 :    11.227387364332990   Change is   -0.000000000000068
 Convergence achieved on expansion vectors.
 ***********************************************************************
 Excited states from <AA,BB:AA,BB> singles matrix:
 ***********************************************************************
 
 1PDM for each excited state written to RWF  633
 Ground to excited state transition densities written to RWF  633
 Ground to excited state transition electric dipole moments (Au):
       state          X           Y           Z        Dip. S.      Osc.
         1         0.8109      0.7891     -0.0967      1.2896      0.2285
         2        -0.2133     -0.1575      0.0067      0.0704      0.0125
         3         0.0559      0.0074      0.0199      0.0036      0.0007
         4        -0.0825      0.0410     -0.1630      0.0351      0.0077
         5         0.2215     -0.1965      0.0299      0.0886      0.0199
         6        -0.7065      0.3728     -0.0333      0.6393      0.1504
         7         0.9418     -0.2949      0.0421      0.9758      0.2324
         8        -0.0497      0.7204     -0.0082      0.5216      0.1262
         9         0.2446     -0.9364     -0.0339      0.9379      0.2281
        10        -0.0327      0.0836     -0.0921      0.0165      0.0041
        11        -0.1522      0.0930      0.0129      0.0320      0.0080
        12        -0.0001     -0.1211      0.0309      0.0156      0.0040
        13         0.1721     -0.0043     -0.0187      0.0300      0.0079
        14        -0.0577      0.1267      0.0360      0.0207      0.0054
        15         0.0187     -0.0531     -0.1232      0.0184      0.0050
 Ground to excited state transition velocity dipole moments (Au):
       state          X           Y           Z        Dip. S.      Osc.
         1        -0.0022     -0.0145     -0.0039      0.0002      0.0006
         2         0.0341     -0.0347      0.0010      0.0024      0.0059
         3        -0.0046      0.0044      0.0111      0.0002      0.0004
         4         0.0042      0.0068      0.0833      0.0070      0.0141
         5        -0.0040      0.0087      0.0055      0.0001      0.0002
         6         0.0378      0.0027     -0.0507      0.0040      0.0076
         7        -0.0693     -0.0226     -0.0187      0.0057      0.0106
         8        -0.0152     -0.0427     -0.0029      0.0021      0.0038
         9         0.0203      0.0563     -0.0115      0.0037      0.0068
        10        -0.0025     -0.0089      0.0225      0.0006      0.0011
        11         0.0118     -0.0071      0.0096      0.0003      0.0005
        12         0.0122      0.0126     -0.0168      0.0006      0.0010
        13        -0.0245     -0.0024     -0.0320      0.0016      0.0028
        14        -0.0026     -0.0084     -0.0038      0.0001      0.0002
        15         0.0015     -0.0011     -0.0061      0.0000      0.0001
 Ground to excited state transition magnetic dipole moments (Au):
       state          X           Y           Z
         1        -0.0054      0.0262      0.3837
         2         0.0004      0.0553     -0.0892
         3        -0.2186      0.4259      0.0425
         4        -1.2702     -1.0157     -0.0316
         5         0.1531     -0.0402      0.0170
         6        -0.0803     -0.0493      0.0257
         7        -0.1559     -0.1697     -0.0863
         8        -0.0147     -0.0854     -0.1580
         9        -0.1508     -0.0881      0.1549
        10         0.3544     -0.3318      0.0311
        11         0.2776     -0.6790     -0.0034
        12        -0.2030      0.0456      0.0255
        13         0.0047      0.1801     -0.0964
        14        -0.4184      0.2736     -0.0026
        15         0.0416     -0.0256      0.0062
 Ground to excited state transition velocity quadrupole moments (Au):
       state          XX          YY          ZZ          XY          XZ          YZ
         1        -0.2273      0.2200      0.0063      0.0490      0.0074      0.0080
         2         0.0487     -0.0652      0.0197      0.0033     -0.0009      0.0022
         3        -0.0081      0.0001     -0.0015     -0.0225     -0.0977     -0.0415
         4         0.0087     -0.0164     -0.0005      0.0013      0.1221     -0.1567
         5        -0.0084     -0.0300      0.0075     -0.0607     -0.1231     -0.1166
         6        -0.1492      0.1417     -0.0163      0.1741     -0.0504     -0.0124
         7         0.1885     -0.1759      0.0254     -0.1798      0.0087     -0.0044
         8         0.2200     -0.2004     -0.0210      0.0836      0.0836     -0.0486
         9        -0.2533      0.1843      0.0329     -0.1464      0.0643     -0.0243
        10         0.0074      0.0183     -0.0096      0.0263     -0.0079      0.0370
        11        -0.0439      0.0806     -0.0165      0.0645      0.0772     -0.0040
        12        -0.0521      0.0428     -0.0013     -0.0269      0.0936     -0.0640
        13         0.0881     -0.1012      0.0062     -0.0482     -0.0454      0.0166
        14         0.0074     -0.0078     -0.0112      0.0463     -0.0029     -0.0533
        15        -0.0302      0.0170     -0.0014     -0.0362      0.1209      0.0348
 <0|del|b> * <b|rxdel|0> + <0|del|b> * <b|delr+rdel|0>
 Rotatory Strengths (R) in cgs (10**-40 erg-esu-cm/Gauss)
       state          XX          YY          ZZ    R(velocity)    E-M Angle
         1        -2.5913     -1.7323     -0.6063     -1.6433      108.56
         2        -2.6911     -0.0034     -2.5806     -1.7584      112.96
         3         2.8985      2.2169      2.5987      2.5714       57.08
         4       -11.0250     -9.4092    -11.5895    -10.6746       96.30
         5         0.5102      0.2918     -2.6313     -0.6098      119.69
         6       -10.1381      4.0279     -2.8397     -2.9833      136.31
         7         8.9124      9.2638     13.9976     10.7246       28.61
         8         7.2453      1.6125     -0.4258      2.8107       58.10
         9        -8.4090     -6.7948     -3.7870     -6.3303      133.53
        10         3.9783     -0.8324      2.1210      1.7556       76.50
        11         5.5910      2.4245      7.1355      5.0504       49.08
        12        -0.5403     -3.8526      0.0486     -1.4481      117.32
        13         3.6785      0.9193     -0.0292      1.5229       72.07
        14        -2.2222      1.2525     -1.1892     -0.7196      104.64
        15         0.2994     -0.1225     -0.0850      0.0306       90.00
 1/2[<0|r|b>*<b|rxdel|0> + (<0|rxdel|b>*<b|r|0>)*]
 Rotatory Strengths (R) in cgs (10**-40 erg-esu-cm/Gauss)
       state          XX          YY          ZZ     R(length)
         1         3.1160    -14.6205     26.2416      4.9124
         2         0.0628      6.1585      0.4231      2.2148
         3         8.6378     -2.2228     -0.5973      1.9392
         4       -74.0883     29.4486     -3.6396    -16.0931
         5       -23.9712     -5.5866     -0.3589     -9.9722
         6       -40.1327     12.9939      0.6046     -8.8447
         7       103.8467    -35.3920      2.5702     23.6750
         8        -0.5180     43.5184     -0.9208     14.0265
         9        26.0873    -58.3392      3.7081     -9.5146
        10         8.1880     19.6090      2.0294      9.9421
        11        29.8698     44.6305      0.0308     24.8437
        12        -0.0145      3.9066     -0.5576      1.1115
        13        -0.5679      0.5484     -1.2771     -0.4322
        14       -17.0612    -24.5242      0.0651    -13.8401
        15        -0.5506     -0.9608      0.5437     -0.3226
  1/2[<0|del|b>*<b|r|0> + (<0|r|b>*<b|del|0>)*] (Au)
       state          X           Y           Z        Dip. S.   Osc.(frdel)
         1        -0.0018     -0.0114      0.0004      0.0129      0.0086
         2        -0.0073      0.0055      0.0000      0.0018      0.0012
         3        -0.0003      0.0000      0.0002      0.0000      0.0000
         4        -0.0003      0.0003     -0.0136      0.0136      0.0091
         5        -0.0009     -0.0017      0.0002      0.0024      0.0016
         6        -0.0267      0.0010      0.0017      0.0240      0.0160
         7        -0.0652      0.0067     -0.0008      0.0594      0.0396
         8         0.0008     -0.0308      0.0000      0.0300      0.0200
         9         0.0050     -0.0527      0.0004      0.0474      0.0316
        10         0.0001     -0.0007     -0.0021      0.0027      0.0018
        11        -0.0018     -0.0007      0.0001      0.0023      0.0016
        12         0.0000     -0.0015     -0.0005      0.0020      0.0014
        13        -0.0042      0.0000      0.0006      0.0036      0.0024
        14         0.0001     -0.0011     -0.0001      0.0010      0.0007
        15         0.0000      0.0001      0.0007     -0.0008     -0.0006

 Excitation energies and oscillator strengths:
 
 Excited State   1:      Singlet-A      7.2335 eV  171.40 nm  f=0.2285  <S**2>=0.000
      17 -> 19         0.12404
      18 -> 19         0.66737
      18 -> 20         0.10058
 This state for optimization and/or second-order correction.
 Total Energy, E(CIS) =  -228.468916386    
 Copying the excited state density for this state as the 1-particle RhoCI density.
 
 Excited State   2:      Singlet-A      7.2671 eV  170.61 nm  f=0.0125  <S**2>=0.000
      17 -> 19         0.47513
      18 -> 19        -0.15492
      18 -> 20         0.49167
 
 Excited State   3:      Singlet-A      8.3500 eV  148.48 nm  f=0.0007  <S**2>=0.000
      18 -> 21         0.69976
 
 Excited State   4:      Singlet-A      8.9766 eV  138.12 nm  f=0.0077  <S**2>=0.000
      16 -> 19         0.69368
 
 Excited State   5:      Singlet-A      9.1599 eV  135.36 nm  f=0.0199  <S**2>=0.000
      17 -> 19         0.10912
      18 -> 20        -0.11370
      18 -> 22         0.67343
 
 Excited State   6:      Singlet-A      9.6050 eV  129.08 nm  f=0.1504  <S**2>=0.000
      17 -> 19        -0.23548
      17 -> 20        -0.21608
      17 -> 21         0.27597
      18 -> 20         0.23191
      18 -> 22         0.12900
      18 -> 23         0.46307
 
 Excited State   7:      Singlet-A      9.7200 eV  127.56 nm  f=0.2324  <S**2>=0.000
      17 -> 19         0.25960
      17 -> 20         0.36082
      17 -> 21         0.12996
      18 -> 20        -0.25409
      18 -> 23         0.40704
 
 Excited State   8:      Singlet-A      9.8759 eV  125.54 nm  f=0.1262  <S**2>=0.000
      17 -> 19        -0.15550
      17 -> 20         0.38531
      17 -> 21         0.44072
      18 -> 20         0.15507
      18 -> 23        -0.26902
 
 Excited State   9:      Singlet-A      9.9258 eV  124.91 nm  f=0.2281  <S**2>=0.000
      17 -> 19         0.23501
      17 -> 20        -0.36451
      17 -> 21         0.44364
      18 -> 20        -0.23441
      18 -> 23        -0.15075
 
 Excited State  10:      Singlet-A     10.0815 eV  122.98 nm  f=0.0041  <S**2>=0.000
      14 -> 19         0.17149
      15 -> 19         0.64949
      16 -> 20        -0.18537
 
 Excited State  11:      Singlet-A     10.2400 eV  121.08 nm  f=0.0080  <S**2>=0.000
      14 -> 19         0.62824
      15 -> 19        -0.20796
      16 -> 20        -0.17292
      18 -> 24        -0.12747
 
 Excited State  12:      Singlet-A     10.3595 eV  119.68 nm  f=0.0040  <S**2>=0.000
      14 -> 19         0.10456
      18 -> 24         0.67600
 
 Excited State  13:      Singlet-A     10.6874 eV  116.01 nm  f=0.0079  <S**2>=0.000
      16 -> 20         0.14630
      17 -> 22         0.67245
 
 Excited State  14:      Singlet-A     10.7197 eV  115.66 nm  f=0.0054  <S**2>=0.000
      13 -> 19         0.11633
      14 -> 19         0.20382
      15 -> 19         0.12334
      16 -> 20         0.62186
      17 -> 22        -0.16149
 
 Excited State  15:      Singlet-A     11.2274 eV  110.43 nm  f=0.0050  <S**2>=0.000
      13 -> 19         0.12907
      17 -> 23         0.10558
      18 -> 25         0.55537
      18 -> 26         0.37391
 SavETr:  write IOETrn=   770 NScale= 10 NData=  16 NLR=1 NState=   15 LETran=     280.
 The selected state is a singlet
 CISAX will form     1 AO SS matrices at one time.
 NMat=     1 NSing=     1 JSym2X= 0.
 CISAX will form     1 AO SS matrices at one time.
 NMat=     1 NSing=     1 JSym2X= 0.
 Leave Link  914 at Tue Dec 15 16:11:02 2015, MaxMem=    33554432 cpu:        25.6
 (Enter /home/Applications/g09/g09/l1002.exe)
 Minotr:  Closed shell wavefunction.
          Computing CIS/TD-HF/TD-KS derivatives.
          Using Z-Vector for PSCF gradient.
          Skipping F1 and S1 gradient terms here.
          IDoAtm=111111111
          Frozen-core window.
          Direct CPHF calculation.
          Differentiating once with respect to electric field.
                with respect to dipole field.
          Differentiating once with respect to nuclear coordinates.
          Requested convergence is 1.0D-10 RMS, and 1.0D-09 maximum.
          NewPWx=F KeepS1=T KeepF1=T KeepIn=T MapXYZ=F SortEE=F KeepMc=T.
          MDV=      33554290 using IRadAn=       0.
 Using stored XC quadrature information.
 Keep R1 ints in memory in canonical form, NReq=1898913.
 FoFCou: FMM=F IPFlag=           0 FMFlag=           0 FMFlg1=           0
         NFxFlg=           0 DoJE=F BraDBF=F KetDBF=F FulRan=T
         wScrn=  0.000000 ICntrl=     600 IOpCl=  0 I1Cent=           0 NGrid=           0
         NMat0=    1 NMatS0=   1431 NMatT0=    0 NMatD0=    1 NMtDS0=    0 NMtDT0=    0
 Symmetry not used in FoFCou.
          Solving linear equations separately, MaxMat=       0.
          There are     1 degrees of freedom in the 1st order CPHF.  IDoFFX=0 NUNeed=     1.
 LinEq1:  Iter=  0 NonCon=     1 RMS=3.26D-02 Max=4.24D-01 NDo=     1
 AX will form     1 AO Fock derivatives at one time.
 LinEq1:  Iter=  1 NonCon=     1 RMS=2.45D-02 Max=4.75D-01 NDo=     1
 LinEq1:  Iter=  2 NonCon=     1 RMS=1.55D-02 Max=2.76D-01 NDo=     1
 LinEq1:  Iter=  3 NonCon=     1 RMS=4.55D-03 Max=3.75D-02 NDo=     1
 LinEq1:  Iter=  4 NonCon=     1 RMS=2.96D-03 Max=3.44D-02 NDo=     1
 LinEq1:  Iter=  5 NonCon=     1 RMS=1.21D-03 Max=1.79D-02 NDo=     1
 LinEq1:  Iter=  6 NonCon=     1 RMS=6.13D-04 Max=4.76D-03 NDo=     1
 LinEq1:  Iter=  7 NonCon=     1 RMS=2.79D-04 Max=2.30D-03 NDo=     1
 LinEq1:  Iter=  8 NonCon=     1 RMS=9.41D-05 Max=4.96D-04 NDo=     1
 LinEq1:  Iter=  9 NonCon=     1 RMS=1.59D-05 Max=1.29D-04 NDo=     1
 LinEq1:  Iter= 10 NonCon=     1 RMS=1.54D-06 Max=7.02D-06 NDo=     1
 LinEq1:  Iter= 11 NonCon=     1 RMS=1.70D-07 Max=8.72D-07 NDo=     1
 LinEq1:  Iter= 12 NonCon=     1 RMS=1.79D-08 Max=1.25D-07 NDo=     1
 LinEq1:  Iter= 13 NonCon=     1 RMS=2.95D-09 Max=1.48D-08 NDo=     1
 LinEq1:  Iter= 14 NonCon=     1 RMS=2.82D-10 Max=2.11D-09 NDo=     1
 LinEq1:  Iter= 15 NonCon=     0 RMS=3.89D-11 Max=2.82D-10 NDo=     1
 Linear equations converged to 1.000D-10 1.000D-09 after    15 iterations.
 End of Minotr F.D. properties file   721 does not exist.
 End of Minotr F.D. properties file   722 does not exist.
 End of Minotr F.D. properties file   788 does not exist.
 Leave Link 1002 at Tue Dec 15 16:11:15 2015, MaxMem=    33554432 cpu:        12.7
 (Enter /home/Applications/g09/g09/l601.exe)
 Copying SCF densities to generalized density rwf, IOpCl= 0 IROHF=0.

 **********************************************************************

            Population analysis using the SCF density.

 **********************************************************************

 Orbital symmetries:
       Occupied  (A) (A) (A) (A) (A) (A) (A) (A) (A) (A) (A) (A)
                 (A) (A) (A) (A) (A) (A)
       Virtual   (A) (A) (A) (A) (A) (A) (A) (A) (A) (A) (A) (A)
                 (A) (A) (A) (A) (A) (A) (A) (A) (A) (A) (A) (A)
                 (A) (A) (A) (A) (A) (A) (A) (A) (A) (A) (A)
 The electronic state is 1-A.
 Alpha  occ. eigenvalues --  -19.12615 -10.17731 -10.17478 -10.13047 -10.11793
 Alpha  occ. eigenvalues --   -1.15630  -0.81347  -0.75001  -0.60776  -0.56699
 Alpha  occ. eigenvalues --   -0.54781  -0.46436  -0.44504  -0.41268  -0.40403
 Alpha  occ. eigenvalues --   -0.36628  -0.28392  -0.22763
 Alpha virt. eigenvalues --    0.02173   0.08072   0.12404   0.15033   0.17537
 Alpha virt. eigenvalues --    0.19309   0.23340   0.23782   0.34561   0.42279
 Alpha virt. eigenvalues --    0.47416   0.69558   0.69956   0.71764   0.74584
 Alpha virt. eigenvalues --    0.76930   0.78595   0.80187   0.81263   0.83909
 Alpha virt. eigenvalues --    0.94637   0.95981   0.98557   1.04476   1.19221
 Alpha virt. eigenvalues --    1.20110   1.32768   1.37835   1.50422   1.57925
 Alpha virt. eigenvalues --    1.61287   1.72145   1.95254   2.09446   3.22961
     Molecular Orbital Coefficients:
                           1         2         3         4         5
                           O         O         O         O         O
     Eigenvalues --   -19.12615 -10.17731 -10.17478 -10.13047 -10.11793
   1 1   C  1S          0.00018  -0.01209  -0.00135   0.98485   0.04765
   2        2S          0.00077  -0.00498  -0.00052   0.10971   0.00129
   3        2PX         0.00048  -0.00032  -0.00038   0.00226  -0.00124
   4        2PY         0.00136   0.00243   0.00058  -0.00045  -0.00049
   5        2PZ        -0.00005  -0.00009   0.00002   0.00027   0.00000
   6        3S         -0.00317   0.03501  -0.01233  -0.10169   0.03386
   7        3PX        -0.00730   0.00871  -0.00711  -0.03094   0.02119
   8        3PY         0.00091  -0.01612   0.00477   0.00616   0.00702
   9        3PZ         0.00014   0.00076  -0.00076  -0.00209   0.00045
  10 2   C  1S         -0.00033   0.98319   0.06694   0.01185   0.00079
  11        2S         -0.00007   0.10659   0.00406  -0.00283  -0.00060
  12        2PX         0.00281   0.00241  -0.00003   0.00065   0.00075
  13        2PY        -0.00003   0.00158  -0.00096  -0.00163  -0.00098
  14        2PZ        -0.00013  -0.00042  -0.00013   0.00003  -0.00006
  15        3S          0.01616  -0.07282   0.01152   0.03723  -0.00624
  16        3PX         0.01224   0.00360   0.00638  -0.00087  -0.00204
  17        3PY         0.00834  -0.01854   0.01730   0.02217  -0.00165
  18        3PZ        -0.00047   0.00175   0.00010  -0.00075   0.00056
  19 3   O  1S          0.98285   0.00030   0.00036   0.00008   0.00010
  20        2S          0.10857   0.00194   0.00222   0.00033   0.00048
  21        2PX        -0.00289  -0.00064  -0.00019   0.00005   0.00002
  22        2PY         0.00342   0.00025   0.00056  -0.00005  -0.00004
  23        2PZ         0.00013   0.00007   0.00004   0.00005  -0.00002
  24        3S         -0.06356  -0.00191  -0.00209  -0.00354  -0.00450
  25        3PX         0.00939   0.00350   0.00199   0.00264   0.00002
  26        3PY        -0.01150  -0.00251  -0.00412  -0.00010  -0.00306
  27        3PZ        -0.00039  -0.00042  -0.00020  -0.00022   0.00007
  28 4   C  1S         -0.00033  -0.06813   0.98308   0.00000   0.00898
  29        2S         -0.00011  -0.01064   0.10639  -0.00051  -0.00355
  30        2PX        -0.00047   0.00121  -0.00183   0.00061   0.00191
  31        2PY        -0.00272   0.00014  -0.00212  -0.00072  -0.00113
  32        2PZ         0.00005  -0.00003   0.00012   0.00009  -0.00005
  33        3S          0.01958   0.02357  -0.07197  -0.00848   0.04125
  34        3PX        -0.01202  -0.02247   0.01567   0.00299  -0.02470
  35        3PY        -0.01139  -0.00234  -0.00739   0.00121   0.00465
  36        3PZ         0.00005   0.00052  -0.00062  -0.00049   0.00031
  37 5   C  1S          0.00019   0.00042  -0.00927  -0.04807   0.98481
  38        2S          0.00091   0.00032  -0.00498  -0.00940   0.11033
  39        2PX        -0.00130  -0.00019  -0.00262   0.00083   0.00013
  40        2PY        -0.00033   0.00029   0.00121   0.00130  -0.00176
  41        2PZ         0.00004  -0.00001   0.00006   0.00006  -0.00011
  42        3S         -0.00509  -0.01885   0.03398   0.04120  -0.10394
  43        3PX        -0.00066  -0.00633   0.01415  -0.01060  -0.00301
  44        3PY         0.01155   0.01165  -0.01070  -0.02089   0.03320
  45        3PZ        -0.00011   0.00033  -0.00029  -0.00049   0.00126
  46 6   H  1S         -0.00125  -0.00046  -0.00119  -0.00031  -0.00468
  47        2S         -0.00480  -0.00243   0.00134   0.00408   0.00485
  48 7   H  1S          0.00026   0.00172  -0.00318   0.00003  -0.00027
  49        2S          0.00384   0.00720   0.00935   0.00050   0.00515
  50 8   H  1S          0.00034  -0.00287   0.00118  -0.00036  -0.00007
  51        2S          0.00331   0.00818   0.00752   0.00403   0.00063
  52 9   H  1S         -0.00090  -0.00109  -0.00046  -0.00268  -0.00015
  53        2S         -0.00239   0.00107  -0.00103   0.00398   0.00448
                           6         7         8         9        10
                           O         O         O         O         O
     Eigenvalues --    -1.15630  -0.81347  -0.75001  -0.60776  -0.56699
   1 1   C  1S         -0.02430   0.14064  -0.06846   0.10391   0.06141
   2        2S          0.02289  -0.15109   0.07376  -0.10599  -0.06184
   3        2PX         0.02574  -0.09659   0.00878   0.04552  -0.00675
   4        2PY        -0.01661  -0.00526  -0.08200   0.10633  -0.17802
   5        2PZ         0.00099  -0.00675   0.00354  -0.00545  -0.00264
   6        3S          0.03337  -0.27448   0.13731  -0.35266  -0.20667
   7        3PX         0.03802  -0.03660   0.01411  -0.02132  -0.00328
   8        3PY        -0.00507   0.01060   0.01762   0.04896  -0.06192
   9        3PZ         0.00059  -0.00464   0.00129  -0.00506  -0.00229
  10 2   C  1S         -0.07517   0.04643  -0.14762   0.00523  -0.10453
  11        2S          0.08137  -0.05491   0.15890  -0.00837   0.11481
  12        2PX         0.08749   0.06803   0.03833   0.18282  -0.07994
  13        2PY         0.02968  -0.09719   0.01383  -0.13058  -0.06322
  14        2PZ        -0.00411   0.00287  -0.01055   0.00197  -0.01032
  15        3S          0.05732  -0.06855   0.36041   0.02546   0.32981
  16        3PX        -0.02899   0.00657  -0.00408   0.06432  -0.05876
  17        3PY        -0.02833  -0.03324   0.04294  -0.03505  -0.01905
  18        3PZ        -0.00068   0.00210  -0.00685   0.00047  -0.00825
  19 3   O  1S         -0.21126  -0.08539   0.00211  -0.01239   0.05883
  20        2S          0.19102   0.08227  -0.00227   0.01151  -0.05947
  21        2PX        -0.07644   0.01303  -0.18737  -0.18647  -0.04606
  22        2PY         0.09279  -0.02135  -0.15802  -0.18184  -0.00486
  23        2PZ         0.00292   0.00128   0.00325   0.00856  -0.00199
  24        3S          0.67989   0.31370  -0.00756   0.05209  -0.25060
  25        3PX        -0.09718   0.00004  -0.15542  -0.16379  -0.03822
  26        3PY         0.11702  -0.00714  -0.12992  -0.15641  -0.00757
  27        3PZ         0.00399   0.00114   0.00363   0.00738  -0.00114
  28 4   C  1S         -0.07878   0.05906   0.14447   0.01444  -0.10767
  29        2S          0.08571  -0.06913  -0.15608  -0.01384   0.11927
  30        2PX        -0.04279   0.09468   0.00302  -0.08685   0.05685
  31        2PY        -0.08592  -0.09003   0.03956   0.18888   0.12945
  32        2PZ         0.00062  -0.00135  -0.00090   0.00376   0.00139
  33        3S          0.04684  -0.08676  -0.35801  -0.08109   0.33555
  34        3PX         0.04076   0.03291   0.03686  -0.00317   0.02028
  35        3PY         0.02569  -0.01576  -0.01224   0.05847   0.07698
  36        3PZ         0.00017  -0.00119  -0.00176   0.00112   0.00098
  37 5   C  1S         -0.02518   0.15428   0.05687  -0.11194   0.04623
  38        2S          0.02356  -0.16506  -0.06176   0.11341  -0.04545
  39        2PX         0.01258   0.01174  -0.08298   0.08023   0.21182
  40        2PY        -0.02864   0.08815   0.00910   0.08294  -0.04277
  41        2PZ        -0.00057   0.00322   0.00112   0.00030   0.00063
  42        3S          0.04006  -0.30999  -0.10749   0.38409  -0.16452
  43        3PX         0.00425  -0.00358   0.02176   0.03416   0.07985
  44        3PY        -0.05691   0.04964   0.00073  -0.00707  -0.01331
  45        3PZ        -0.00034   0.00281   0.00060  -0.00097   0.00083
  46 6   H  1S          0.00866  -0.06678  -0.03251   0.12787  -0.07135
  47        2S          0.02340  -0.01613  -0.00593   0.06717  -0.03860
  48 7   H  1S          0.01238  -0.01657  -0.08355  -0.02534   0.13730
  49        2S         -0.02279  -0.00596  -0.03143  -0.02119   0.07348
  50 8   H  1S          0.01003  -0.01185   0.07681   0.00935   0.13107
  51        2S         -0.02047  -0.00585   0.03039   0.00835   0.07307
  52 9   H  1S          0.00582  -0.04357   0.03108  -0.08446  -0.05617
  53        2S          0.01223  -0.01057   0.01078  -0.05324  -0.03355
                          11        12        13        14        15
                           O         O         O         O         O
     Eigenvalues --    -0.54781  -0.46436  -0.44504  -0.41268  -0.40403
   1 1   C  1S         -0.04368  -0.00509  -0.05695   0.01229  -0.00646
   2        2S          0.04107   0.00726   0.05858  -0.01016   0.01268
   3        2PX        -0.15084  -0.01640  -0.06443  -0.03212   0.34031
   4        2PY         0.04940  -0.00061   0.06424  -0.20839   0.01243
   5        2PZ        -0.00185   0.09942  -0.01339   0.00249   0.01126
   6        3S          0.18330   0.00066   0.21568  -0.07754   0.02794
   7        3PX        -0.10048  -0.03346  -0.05013  -0.00427   0.25033
   8        3PY         0.01339   0.00027   0.03619  -0.07237   0.00255
   9        3PZ         0.00217   0.06941  -0.00909  -0.00221   0.00930
  10 2   C  1S         -0.01730  -0.00193   0.04450  -0.03224  -0.02479
  11        2S          0.01652   0.00259  -0.04582   0.04167   0.02854
  12        2PX        -0.09777   0.02370   0.18665   0.05224  -0.03007
  13        2PY        -0.14860   0.02293   0.10445   0.25534   0.07926
  14        2PZ        -0.00328   0.18308  -0.01680  -0.01161   0.00212
  15        3S          0.07973   0.00915  -0.16393   0.11515   0.07869
  16        3PX        -0.03299   0.02228   0.12116  -0.00390   0.01658
  17        3PY        -0.13245   0.03150   0.06155   0.22178   0.02170
  18        3PZ        -0.00472   0.16680  -0.01610  -0.01012   0.00192
  19 3   O  1S         -0.04391   0.00193  -0.00937   0.02255  -0.00407
  20        2S          0.04294  -0.00199   0.00968  -0.02558   0.00798
  21        2PX         0.14964  -0.01230  -0.14961  -0.15349   0.10530
  22        2PY        -0.13032  -0.01462  -0.19866   0.14286  -0.10952
  23        2PZ        -0.00633   0.38960  -0.04072  -0.02060   0.00060
  24        3S          0.16267  -0.00823   0.03261  -0.06149  -0.01687
  25        3PX         0.13677  -0.01042  -0.14250  -0.15404   0.11268
  26        3PY        -0.11879  -0.01343  -0.19201   0.15277  -0.11206
  27        3PZ        -0.00563   0.38913  -0.04235  -0.02112   0.00007
  28 4   C  1S         -0.00398  -0.00362  -0.03077   0.01435   0.02745
  29        2S          0.00189   0.00420   0.02973  -0.01821  -0.03542
  30        2PX         0.20558   0.02808   0.15543   0.14204   0.22779
  31        2PY         0.02125   0.01602   0.18117  -0.05026  -0.02982
  32        2PZ        -0.00355   0.19237  -0.02530  -0.00913  -0.00338
  33        3S          0.03968   0.00555   0.11564  -0.04255  -0.10204
  34        3PX         0.16567   0.02953   0.11563   0.05898   0.18699
  35        3PY        -0.01059   0.01258   0.09114   0.02466  -0.05346
  36        3PZ        -0.00238   0.17337  -0.02350  -0.00946  -0.00208
  37 5   C  1S         -0.03121   0.00565   0.04028   0.02191  -0.01150
  38        2S          0.02759  -0.00786  -0.04262  -0.02619   0.01094
  39        2PX        -0.06786   0.00192   0.00474   0.01293  -0.23537
  40        2PY         0.19811  -0.00163  -0.11838   0.31062  -0.04131
  41        2PZ         0.00231   0.10417  -0.01883   0.00896  -0.00061
  42        3S          0.15922   0.00146  -0.13190  -0.11036   0.06597
  43        3PX        -0.01822  -0.00112   0.01449   0.01096  -0.09971
  44        3PY         0.11616  -0.01764  -0.07954   0.20827  -0.02474
  45        3PZ        -0.00007   0.07150  -0.01368   0.00747  -0.00013
  46 6   H  1S          0.13284  -0.00671  -0.12824   0.19406  -0.00263
  47        2S          0.06600   0.00128  -0.09008   0.17198  -0.00883
  48 7   H  1S          0.10230   0.02302   0.16607   0.06493   0.11943
  49        2S          0.04415   0.01299   0.12996   0.06301   0.10861
  50 8   H  1S          0.09879  -0.02361  -0.16306  -0.13488  -0.00675
  51        2S          0.04658  -0.00894  -0.13375  -0.12239  -0.01231
  52 9   H  1S          0.10677   0.01505   0.10509  -0.01730  -0.22318
  53        2S          0.06011   0.00380   0.08225  -0.01368  -0.21582
                          16        17        18        19        20
                           O         O         O         V         V
     Eigenvalues --    -0.36628  -0.28392  -0.22763   0.02173   0.08072
   1 1   C  1S          0.01228  -0.00528   0.00516  -0.00120  -0.00428
   2        2S         -0.01159   0.00648  -0.00736  -0.00263  -0.00193
   3        2PX        -0.01437   0.00962  -0.00828  -0.00361  -0.00810
   4        2PY         0.24637  -0.01763   0.00609   0.01334  -0.00172
   5        2PZ        -0.01207  -0.28736   0.19684  -0.19005  -0.32954
   6        3S         -0.09449   0.01733  -0.00746   0.03461   0.06869
   7        3PX         0.00935   0.00181   0.00306   0.01460  -0.01247
   8        3PY         0.18481  -0.01812  -0.00046   0.03092  -0.02042
   9        3PZ        -0.01268  -0.29220   0.21590  -0.31364  -0.65924
  10 2   C  1S         -0.01463   0.00005  -0.00962  -0.01403  -0.01189
  11        2S          0.01730   0.00065   0.01136   0.00898   0.00576
  12        2PX         0.13998  -0.00263  -0.00257  -0.00379   0.01607
  13        2PY        -0.19566   0.00935  -0.00004  -0.01063  -0.02724
  14        2PZ        -0.00273  -0.05874   0.33395   0.32891   0.19339
  15        3S          0.05117  -0.00017   0.03194   0.11702   0.10775
  16        3PX         0.00936   0.00240  -0.00686  -0.03006   0.03173
  17        3PY        -0.07341   0.00586  -0.01224  -0.03429  -0.06660
  18        3PZ        -0.00155  -0.02716   0.36067   0.49708   0.37237
  19 3   O  1S          0.06731  -0.00056   0.00073   0.00227   0.01036
  20        2S         -0.06653   0.00056  -0.00192  -0.00281  -0.00726
  21        2PX        -0.23544   0.01410   0.00151   0.00270   0.01448
  22        2PY         0.25401  -0.00138   0.00285   0.00327  -0.00548
  23        2PZ         0.01135   0.29197  -0.00575  -0.29754   0.01949
  24        3S         -0.25800   0.00210   0.00145  -0.01292  -0.08464
  25        3PX        -0.25506   0.01681  -0.00221  -0.00195   0.02356
  26        3PY         0.27534  -0.00025   0.00300   0.00102  -0.00986
  27        3PZ         0.01270   0.33177  -0.00558  -0.41668   0.02934
  28 4   C  1S         -0.02566   0.00151  -0.00187   0.00019  -0.00502
  29        2S          0.03004  -0.00195   0.00184  -0.00218   0.00159
  30        2PX         0.12305  -0.00070  -0.00631   0.00412   0.00155
  31        2PY        -0.14553   0.00127   0.00274  -0.00343  -0.01488
  32        2PZ        -0.00490  -0.08045  -0.32479   0.31029  -0.23252
  33        3S          0.09720  -0.00797   0.01102   0.00564   0.03993
  34        3PX         0.02884   0.00242  -0.00748  -0.00637   0.00927
  35        3PY         0.00057   0.00032   0.00193  -0.01830  -0.03666
  36        3PZ        -0.00192  -0.04464  -0.34923   0.47112  -0.45095
  37 5   C  1S          0.01661   0.00171   0.00091   0.00185   0.00012
  38        2S         -0.01521  -0.00269  -0.00094  -0.00177  -0.00423
  39        2PX        -0.20719   0.00769   0.00274   0.00508   0.00326
  40        2PY        -0.00415   0.01532   0.00587   0.00721  -0.00467
  41        2PZ        -0.00984  -0.30092  -0.17754  -0.14818   0.34917
  42        3S         -0.12014   0.00209  -0.00921  -0.02572   0.02743
  43        3PX        -0.17396   0.00384   0.00306   0.02017   0.00383
  44        3PY        -0.02517   0.01036   0.00971   0.02246  -0.02570
  45        3PZ        -0.00645  -0.31052  -0.19111  -0.24861   0.70546
  46 6   H  1S         -0.01186   0.00616   0.00048  -0.00125   0.00289
  47        2S          0.00927   0.00747  -0.00053  -0.00755   0.01082
  48 7   H  1S          0.10119  -0.00381  -0.00291  -0.00071  -0.00541
  49        2S          0.10027  -0.00483  -0.00400   0.00214  -0.02845
  50 8   H  1S          0.11225  -0.00387  -0.00715  -0.02145  -0.02067
  51        2S          0.11616  -0.00578  -0.01200  -0.08383  -0.10414
  52 9   H  1S          0.02896  -0.00633   0.00268  -0.00591  -0.00636
  53        2S          0.04810  -0.00962   0.00742  -0.01500  -0.03554
                          21        22        23        24        25
                           V         V         V         V         V
     Eigenvalues --     0.12404   0.15033   0.17537   0.19309   0.23340
   1 1   C  1S          0.07689  -0.06203   0.02308  -0.07735  -0.06903
   2        2S         -0.04952   0.05544  -0.02783   0.05832   0.01361
   3        2PX         0.21182  -0.06868  -0.10002  -0.11900   0.03615
   4        2PY        -0.08694   0.00630   0.00708   0.00056   0.13225
   5        2PZ        -0.01985  -0.02656   0.00625   0.01643   0.01481
   6        3S         -0.81491   0.49787  -0.02213   0.68496   1.29966
   7        3PX         0.60801  -0.38630  -0.12500  -0.69251   0.50017
   8        3PY        -0.20459   0.01239  -0.02512   0.11356   0.74348
   9        3PZ        -0.04872  -0.07521   0.03576   0.03770   0.06235
  10 2   C  1S          0.03587   0.12050  -0.03598   0.02584  -0.07588
  11        2S         -0.01878  -0.08749   0.02487  -0.03836   0.05705
  12        2PX         0.09286  -0.06383  -0.15053   0.05498   0.23164
  13        2PY         0.12639   0.14952  -0.19137  -0.04488   0.00647
  14        2PZ         0.02582   0.05023  -0.02320   0.00030  -0.01691
  15        3S         -0.54181  -1.14757   0.51272  -0.07280   0.75082
  16        3PX         0.21261  -0.01891  -0.51435   0.34503   0.66473
  17        3PY         0.24328   0.60047  -0.61927  -0.00768  -0.02943
  18        3PZ         0.06707   0.11305  -0.06226  -0.01693  -0.05456
  19 3   O  1S          0.01860  -0.08726  -0.01587   0.03904   0.03120
  20        2S         -0.01044   0.06416   0.01131  -0.02513  -0.01548
  21        2PX         0.05525  -0.10515  -0.01059  -0.00140   0.24622
  22        2PY        -0.05770   0.07830   0.02150  -0.09027   0.18383
  23        2PZ        -0.01080  -0.00776   0.01172  -0.00291  -0.00151
  24        3S         -0.17692   0.71939   0.13494  -0.35846  -0.32564
  25        3PX         0.09447  -0.15370  -0.03662   0.05184   0.53194
  26        3PY        -0.11776   0.13706   0.00924  -0.13507   0.35793
  27        3PZ        -0.01866  -0.01331   0.02389  -0.00688  -0.00721
  28 4   C  1S          0.04757   0.07733   0.07659  -0.04842   0.09176
  29        2S         -0.03745  -0.05152  -0.05052   0.05441  -0.06426
  30        2PX        -0.08275  -0.07325  -0.26737  -0.09475   0.00318
  31        2PY        -0.07135   0.11409  -0.08235  -0.08144   0.05926
  32        2PZ        -0.00031  -0.01034  -0.00034   0.00642  -0.00212
  33        3S         -0.57393  -0.76046  -0.96999   0.11178  -1.20209
  34        3PX        -0.22733  -0.34268  -0.95409   0.07091   0.04854
  35        3PY        -0.24279   0.29252  -0.33405  -0.08677   0.03098
  36        3PZ        -0.00196  -0.02412   0.00361   0.01031  -0.01217
  37 5   C  1S          0.01395  -0.00518  -0.03196   0.11253   0.03223
  38        2S          0.00039   0.00528   0.03925  -0.09291  -0.00714
  39        2PX         0.00616   0.02309  -0.00241   0.05188   0.21270
  40        2PY        -0.11499   0.03140  -0.09070  -0.17609   0.08547
  41        2PZ         0.00207   0.02026  -0.00315  -0.01151  -0.00168
  42        3S         -0.33573   0.06867   0.06071  -1.21387  -0.57398
  43        3PX         0.07652   0.04934  -0.02394   0.14615   1.15654
  44        3PY        -0.28717   0.15320  -0.01506  -1.11374   0.52234
  45        3PZ         0.00950   0.04661  -0.00919  -0.04746   0.01518
  46 6   H  1S          0.06764  -0.03093   0.00130   0.06981  -0.03847
  47        2S          0.64827  -0.25147   0.04104   1.91862  -0.26147
  48 7   H  1S          0.05442   0.05636   0.07408  -0.01752  -0.05254
  49        2S          0.67222   0.72552   1.65183  -0.07328   0.43660
  50 8   H  1S          0.04931   0.09559  -0.04749   0.00738   0.03284
  51        2S          0.70076   1.23706  -1.13143   0.16385  -0.05080
  52 9   H  1S          0.11509  -0.06493  -0.00802  -0.03363   0.05322
  53        2S          1.23722  -0.69904  -0.17261  -0.99488  -0.09326
                          26        27        28        29        30
                           V         V         V         V         V
     Eigenvalues --     0.23782   0.34561   0.42279   0.47416   0.69558
   1 1   C  1S         -0.03300   0.08870   0.02288   0.11560  -0.03941
   2        2S          0.00407  -0.04058   0.01493  -0.01430   0.07227
   3        2PX        -0.15226  -0.15635   0.01130  -0.20819   0.03691
   4        2PY        -0.15099   0.07201   0.25351   0.00803  -0.49209
   5        2PZ         0.01603  -0.00248  -0.00202   0.00475  -0.12069
   6        3S          0.71697  -1.53528  -0.90493  -3.04088   0.21391
   7        3PX        -0.43181  -0.80813  -0.34049  -2.42663   0.28374
   8        3PY        -0.83963   1.16206   1.70354  -0.26188   0.31753
   9        3PZ         0.04949  -0.07036  -0.05198  -0.09679   0.07465
  10 2   C  1S          0.04058  -0.08847  -0.03328  -0.08399   0.05151
  11        2S         -0.01938   0.00429   0.01834   0.03665   0.00755
  12        2PX         0.20025  -0.02086  -0.07964   0.30847  -0.23021
  13        2PY        -0.00276   0.28489   0.07338   0.03133  -0.00704
  14        2PZ         0.00162  -0.00222  -0.00137   0.00471  -0.18383
  15        3S         -0.85720   1.59990   1.09243   1.48062  -0.18674
  16        3PX         0.80292   0.02782  -1.16880   0.44575   0.19914
  17        3PY        -0.25504   1.46194   1.22175   1.39278  -0.44017
  18        3PZ         0.02800  -0.05929  -0.04910  -0.05848   0.18683
  19 3   O  1S          0.09511   0.05569   0.00185  -0.00662  -0.02860
  20        2S         -0.04459  -0.02489  -0.00113   0.00385   0.08079
  21        2PX        -0.02459   0.11318  -0.17205   0.17923  -0.10935
  22        2PY        -0.10313  -0.13158  -0.13112   0.17593   0.15905
  23        2PZ        -0.00874   0.00066   0.01255  -0.01246  -0.01783
  24        3S         -1.02024  -0.71691  -0.02121   0.08442  -0.11160
  25        3PX         0.00321   0.32447  -0.47456   0.34589  -0.08994
  26        3PY        -0.29653  -0.38685  -0.36101   0.37273   0.08267
  27        3PZ        -0.01891  -0.00047   0.02722  -0.01313  -0.04119
  28 4   C  1S         -0.01122  -0.06973   0.04695   0.09716   0.04219
[...]
     4  C   -0.149909  -0.173121   0.286234   5.081148   0.472930  -0.026475
     5  C    0.425247  -0.148500  -0.068308   0.472930   5.256654   0.392952
     6  H   -0.031225   0.005690   0.002174  -0.026475   0.392952   0.468115
     7  H    0.003635   0.004642  -0.030378   0.386786  -0.042217  -0.000698
     8  H   -0.038902   0.379604  -0.026088   0.004373   0.003175  -0.000040
     9  H    0.373716  -0.026707   0.001552   0.004454  -0.022593  -0.001253
               7          8          9
     1  C    0.003635  -0.038902   0.373716
     2  C    0.004642   0.379604  -0.026707
     3  O   -0.030378  -0.026088   0.001552
     4  C    0.386786   0.004373   0.004454
     5  C   -0.042217   0.003175  -0.022593
     6  H   -0.000698  -0.000040  -0.001253
     7  H    0.465620  -0.000064  -0.000030
     8  H   -0.000064   0.470410  -0.000361
     9  H   -0.000030  -0.000361   0.488348
 Mulliken charges:
               1
     1  C   -0.230749
     2  C    0.081425
     3  O   -0.489146
     4  C    0.113579
     5  C   -0.269340
     6  H    0.190760
     7  H    0.212703
     8  H    0.207894
     9  H    0.182874
 Sum of Mulliken charges =   0.00000
 Mulliken charges with hydrogens summed into heavy atoms:
               1
     1  C   -0.047875
     2  C    0.289319
     3  O   -0.489146
     4  C    0.326282
     5  C   -0.078580
 Electronic spatial extent (au):  <R**2>=            288.0330
 Charge=              0.0000 electrons
 Dipole moment (field-independent basis, Debye):
    X=             -0.4570    Y=              0.5256    Z=             -0.0311  Tot=              0.6972
 Quadrupole moment (field-independent basis, Debye-Ang):
   XX=            -25.6235   YY=            -26.4652   ZZ=            -31.8035
   XY=              1.9938   XZ=              0.0759   YZ=              0.1940
 Traceless Quadrupole moment (field-independent basis, Debye-Ang):
   XX=              2.3406   YY=              1.4988   ZZ=             -3.8395
   XY=              1.9938   XZ=              0.0759   YZ=              0.1940
 Octapole moment (field-independent basis, Debye-Ang**2):
  XXX=              3.3126  YYY=             -2.7700  ZZZ=             -0.1105  XYY=             -2.6093
  XXY=              1.3748  XXZ=             -0.1571  XZZ=              2.5189  YZZ=             -2.4249
  YYZ=             -0.1367  XYZ=             -0.1817
 Hexadecapole moment (field-independent basis, Debye-Ang**3):
 XXXX=           -146.0216 YYYY=           -146.9689 ZZZZ=            -30.9840 XXXY=              0.2997
 XXXZ=              0.0106 YYYX=              3.3209 YYYZ=              1.0985 ZZZX=              0.0367
 ZZZY=              0.2878 XXYY=            -55.0669 XXZZ=            -37.3590 YYZZ=            -35.9790
 XXYZ=              0.2186 YYXZ=              0.3410 ZZXY=             -1.8267
 N-N= 1.620609288131D+02 E-N=-8.566051851692D+02  KE= 2.269821087721D+02
 Orbital energies and kinetic energies (alpha):
                                 1                 2
   1         O               -19.126149         28.828427
   2         O               -10.177310         15.802556
   3         O               -10.174777         15.798172
   4         O               -10.130472         15.807450
   5         O               -10.117925         15.803659
   6         O                -1.156303          2.550361
   7         O                -0.813473          1.779262
   8         O                -0.750007          1.855501
   9         O                -0.607762          1.694984
  10         O                -0.566991          1.502593
  11         O                -0.547807          1.242073
  12         O                -0.464361          1.633873
  13         O                -0.445041          1.489512
  14         O                -0.412676          1.547544
  15         O                -0.404028          1.365959
  16         O                -0.366279          2.069812
  17         O                -0.283919          1.492246
  18         O                -0.227631          1.227069
  19         V                 0.021729          1.860215
  20         V                 0.080721          1.498453
  21         V                 0.124043          1.118836
  22         V                 0.150334          1.703606
  23         V                 0.175365          1.184738
  24         V                 0.193089          1.343639
  25         V                 0.233404          2.124404
  26         V                 0.237819          1.749332
  27         V                 0.345610          2.021253
  28         V                 0.422787          1.702548
  29         V                 0.474165          2.784448
  30         V                 0.695581          2.583327
  31         V                 0.699555          2.523800
  32         V                 0.717636          2.857111
  33         V                 0.745839          2.595781
  34         V                 0.769301          2.519424
  35         V                 0.785952          2.573055
  36         V                 0.801866          2.692916
  37         V                 0.812625          2.659685
  38         V                 0.839092          2.597112
  39         V                 0.946368          2.999096
  40         V                 0.959810          3.106082
  41         V                 0.985572          3.046187
  42         V                 1.044756          3.191745
  43         V                 1.192212          2.726304
  44         V                 1.201104          2.869144
  45         V                 1.327682          2.570362
  46         V                 1.378354          2.913514
  47         V                 1.504220          4.889560
  48         V                 1.579253          3.411703
  49         V                 1.612873          3.627046
  50         V                 1.721454          4.401047
  51         V                 1.952538          4.073450
  52         V                 2.094463          4.163905
  53         V                 3.229612          6.850898
 Total kinetic energy from orbitals= 2.269821087721D+02
 No NMR shielding tensors so no spin-rotation constants.
 Leave Link  601 at Tue Dec 15 16:11:15 2015, MaxMem=    33554432 cpu:         0.1
 (Enter /home/Applications/g09/g09/l701.exe)
 Compute integral first derivatives.
 ... and contract with generalized density number  6.
 Leave Link  701 at Tue Dec 15 16:11:15 2015, MaxMem=    33554432 cpu:         0.1
 (Enter /home/Applications/g09/g09/l702.exe)
 L702 exits ... SP integral derivatives will be done elsewhere.
 Leave Link  702 at Tue Dec 15 16:11:15 2015, MaxMem=    33554432 cpu:         0.0
 (Enter /home/Applications/g09/g09/l703.exe)
 Compute integral first derivatives, UseDBF=F ICtDFT=           0.
 Integral derivatives from FoFJK, PRISM(SPDF).
 Calling FoFJK, ICntrl=  10005127 FMM=F ISym2X=0 I1Cent= 0 IOpClX= 0 NMat=1 NMatS=1 NMatT=0.
 FoFJK:  IHMeth= 1 ICntrl=10005127 DoSepK=F KAlg= 0 I1Cent=   0 FoldK=F
 IRaf=         0 NMat=   1 IRICut=       1 DoRegI=T DoRafI=F ISym2E= 0.
 FoFCou: FMM=F IPFlag=           0 FMFlag=      100000 FMFlg1=         800
         NFxFlg=           0 DoJE=F BraDBF=F KetDBF=F FulRan=T
         wScrn=  0.000000 ICntrl=10005127 IOpCl=  0 I1Cent=           0 NGrid=           0
         NMat0=    1 NMatS0=      1 NMatT0=    0 NMatD0=    1 NMtDS0=    0 NMtDT0=    0
 Symmetry not used in FoFCou.
 Leave Link  703 at Tue Dec 15 16:11:17 2015, MaxMem=    33554432 cpu:         1.6
 (Enter /home/Applications/g09/g09/l716.exe)
 Dipole        = 7.03272034D-02 4.44300909D-01-4.38674403D-02
 ***** Axes restored to original set *****
 -------------------------------------------------------------------
 Center     Atomic                   Forces (Hartrees/Bohr)
 Number     Number              X              Y              Z
 -------------------------------------------------------------------
      1        6           0.091673258   -0.024807373   -0.001933529
      2        6           0.009818713   -0.124727708    0.001574892
      3        8          -0.129623036    0.011962402    0.001040291
      4        6          -0.019751271    0.109192909   -0.005657990
      5        6           0.036635927   -0.054584627    0.005014495
      6        1           0.034109248    0.032990329    0.000578205
      7        1           0.002686159   -0.005272116    0.002243020
      8        1           0.005495608    0.023791438   -0.002289411
      9        1          -0.031044607    0.031454747   -0.000569974
 -------------------------------------------------------------------
 Cartesian Forces:  Max     0.129623036 RMS     0.048367618
 Z-matrix is all fixed cartesians, so copy forces.
 Force constants in Cartesian coordinates: 
                1             2             3             4             5 
      1  0.810172D+00
      2 -0.199008D-01  0.792172D+00
      3  0.267098D-01  0.594623D-03  0.193239D+00
      4 -0.454741D+00 -0.934361D-01 -0.303617D-01  0.879838D+00
      5 -0.692550D-01 -0.199122D+00 -0.841713D-02 -0.408906D-01  0.876348D+00
      6 -0.273104D-01 -0.761336D-02 -0.883662D-01  0.886298D-02  0.822282D-02
      7 -0.838676D-02  0.285850D-01  0.194787D-02 -0.316030D+00  0.189295D+00
      8 -0.637844D-02  0.218756D-01  0.103253D-02  0.236125D+00 -0.398686D+00
      9 -0.174419D-02  0.271013D-02  0.862945D-02  0.167069D-01 -0.180585D-01
     10  0.888313D-02  0.170803D-03 -0.161934D-03  0.248841D-01  0.191267D-01
     11  0.355719D-01  0.652913D-03 -0.353088D-03 -0.188154D-01 -0.144684D-01
     12 -0.114716D-02  0.365691D-03 -0.119426D-02 -0.166185D-02 -0.156087D-02
     13 -0.171144D+00  0.188247D-01 -0.131883D-02  0.983487D-02 -0.343434D-01
     14 -0.468805D-02 -0.446835D+00  0.829951D-02  0.205441D-03 -0.732679D-03
     15 -0.160690D-02  0.114155D-01 -0.884462D-01  0.789885D-03 -0.366857D-02
     16  0.184584D-01  0.350269D-03  0.343245D-04  0.457292D-05 -0.121371D-05
     17 -0.251740D-01 -0.476233D-03  0.244915D-04 -0.746965D-05  0.198254D-05
     18  0.148288D-02  0.465553D-03  0.211876D-01 -0.365965D-03  0.971320D-04
     19  0.000000D+00  0.000000D+00  0.443200D-04 -0.116457D-05  0.264527D-05
     20  0.000000D+00  0.000000D+00 -0.865566D-05  0.000000D+00  0.220337D-05
     21  0.810020D-04  0.138150D-03  0.661659D-02  0.852142D-04 -0.193560D-03
     22  0.716050D-02 -0.253000D-01  0.218372D-02 -0.138813D+00 -0.810856D-01
     23 -0.309474D-02  0.106219D-01  0.402970D-03 -0.772321D-01 -0.283891D+00
     24 -0.333011D-03 -0.366731D-02  0.207643D-01  0.818850D-02  0.201185D-01
     25 -0.210403D+00  0.907052D-01  0.922425D-03 -0.497715D-02  0.171518D-01
     26  0.929192D-01 -0.178889D+00 -0.157526D-02 -0.594737D-02  0.205485D-01
     27  0.386791D-02 -0.440896D-02 -0.724299D-01 -0.224392D-02  0.346016D-02
                6             7             8             9            10 
      6  0.174021D+00
      7  0.103530D-01  0.614315D+00
      8 -0.145275D-01  0.122630D-01  0.790617D+00
      9 -0.489110D-01 -0.694137D-02  0.226123D-01  0.621128D-01
     10  0.384143D-03 -0.326215D+00 -0.247623D+00 -0.569393D-02  0.970566D+00
     11 -0.408366D-03 -0.201717D+00 -0.421013D+00 -0.861236D-02  0.326392D-01
     12 -0.226933D-02 -0.346186D-02 -0.746486D-02 -0.519896D-01  0.148384D-02
     13  0.124437D-02 -0.752623D-02  0.567107D-02  0.452550D-03 -0.514358D+00
     14  0.204796D-03 -0.300516D-01  0.227810D-01  0.292925D-03  0.936790D-01
     15 -0.937151D-03 -0.460758D-03  0.488340D-03  0.906972D-02  0.366389D-02
     16 -0.629770D-04  0.000000D+00 -0.103658D-05  0.455477D-04 -0.463771D-02
     17  0.102870D-03  0.000000D+00  0.000000D+00 -0.359995D-04  0.632733D-02
     18  0.503997D-02  0.103933D-04 -0.176691D-03  0.776389D-02  0.318667D-03
     19 -0.810577D-04  0.222052D-01 -0.168357D-01  0.131577D-03 -0.159131D+00
     20 -0.675166D-04  0.109847D-01 -0.832802D-02  0.461035D-04  0.956766D-01
     21  0.593117D-02  0.234654D-03 -0.267227D-03  0.410910D-02 -0.135407D-03
     22  0.625905D-02  0.216270D-01  0.167600D-01 -0.270627D-02  0.723210D-05
     23  0.138963D-01 -0.937542D-02 -0.727604D-02  0.141273D-02  0.206569D-05
     24 -0.630712D-01 -0.144489D-02 -0.128188D-02  0.389219D-02  0.800952D-04
     25  0.350826D-03  0.111689D-04  0.195521D-04 -0.250808D-03  0.169869D-05
     26  0.190004D-03  0.163612D-04  0.286417D-04 -0.367405D-03  0.128419D-05
     27  0.185630D-01 -0.237062D-03 -0.414998D-03  0.532344D-02  0.606380D-04
               11            12            13            14            15 
     11  0.922978D+00
     12  0.105356D-01  0.198913D+00
     13  0.705625D-01  0.397160D-02  0.991018D+00
     14 -0.210590D+00 -0.990035D-03  0.661751D-01  0.857663D+00
     15 -0.109784D-02 -0.107505D+00 -0.204278D-02 -0.778793D-02  0.228269D+00
     16 -0.185610D-01  0.127202D-04 -0.332198D+00 -0.152067D+00  0.336434D-03
     17  0.253206D-01  0.746138D-04 -0.151419D+00 -0.235767D+00  0.714446D-03
     18  0.507124D-03  0.273235D-01 -0.755175D-03  0.313747D-04 -0.945830D-01
     19  0.100333D+00  0.160587D-03  0.660356D-02  0.264259D-01  0.803906D-04
     20 -0.302878D+00 -0.120878D-02  0.326675D-02  0.130764D-01 -0.911525D-04
     21 -0.492526D-03 -0.738072D-01  0.608335D-04 -0.552937D-03  0.283259D-01
     22 -0.164274D-04  0.503376D-03  0.378911D-04 -0.100568D-04 -0.521826D-03
     23 -0.469214D-05  0.143779D-03 -0.412662D-04  0.109526D-04  0.568307D-03
     24 -0.181933D-03  0.557487D-02 -0.387388D-03  0.102818D-03  0.533500D-02
     25  0.289713D-05  0.138756D-03  0.177323D-01  0.330888D-03 -0.238342D-03
     26  0.219020D-05  0.104898D-03  0.213038D-01  0.392274D-03 -0.541085D-03
     27  0.103419D-03  0.495317D-02 -0.122518D-02  0.399475D-03  0.204712D-01
               16            17            18            19            20 
     16  0.318370D+00
     17  0.170277D+00  0.210923D+00
     18 -0.396134D-03 -0.774666D-03  0.524961D-01
     19  0.000000D+00  0.000000D+00 -0.766718D-04  0.130323D+00
     20  0.000000D+00  0.000000D+00  0.149739D-04 -0.109927D+00  0.298127D+00
     21 -0.671516D-04  0.530746D-04 -0.114464D-01 -0.259145D-03  0.131503D-02
     22  0.000000D+00  0.000000D+00  0.000000D+00  0.000000D+00  0.000000D+00
     23  0.000000D+00  0.000000D+00  0.000000D+00  0.000000D+00  0.000000D+00
     24  0.000000D+00  0.000000D+00  0.000000D+00  0.000000D+00  0.000000D+00
     25  0.272393D-05 -0.444942D-05 -0.217993D-03  0.000000D+00  0.000000D+00
     26  0.205926D-05 -0.336371D-05 -0.164800D-03  0.000000D+00  0.000000D+00
     27  0.972361D-04 -0.158831D-03 -0.778169D-02  0.000000D+00  0.000000D+00
               21            22            23            24            25 
     21  0.402708D-01
     22  0.000000D+00  0.110015D+00
     23  0.000000D+00  0.897034D-01  0.280483D+00
     24  0.000000D+00 -0.646132D-02 -0.156146D-01  0.351037D-01
     25  0.000000D+00 -0.350178D-04  0.381370D-04  0.358012D-03  0.197667D+00
     26  0.000000D+00 -0.512971D-04  0.558663D-04  0.524446D-03 -0.108244D+00
     27  0.000000D+00  0.743260D-03 -0.809464D-03 -0.759887D-02 -0.106288D-02
               26            27 
     26  0.157865D+00
     27  0.182920D-02  0.384996D-01
 Leave Link  716 at Tue Dec 15 16:11:17 2015, MaxMem=    33554432 cpu:         0.0
 (Enter /home/Applications/g09/g09/l103.exe)

 GradGradGradGradGradGradGradGradGradGradGradGradGradGradGradGradGradGrad
 Berny optimization.
 Search for a local minimum.
 Step number   1 out of a maximum of    2
 All quantities printed in internal units (Hartrees-Bohrs-Radians)
 Second derivative matrix not updated -- first step.
 ITU=  0
     Eigenvalues ---    0.01919   0.03029   0.06545   0.07499   0.07847
     Eigenvalues ---    0.08310   0.12866   0.13583   0.15799   0.22307
     Eigenvalues ---    0.26073   0.28913   0.39885   0.40983   0.60609
     Eigenvalues ---    0.84061   1.13343   1.40132   1.43504   1.52496
     Eigenvalues ---    1.71393
 Quadratic step=4.068D-01 exceeds max=3.000D-01 adjusted using Lamda=-6.782D-02.
 Angle between NR and scaled steps=  21.77 degrees.
 Angle between quadratic step and forces=  30.87 degrees.
 Linear search not attempted -- first point.
 TrRot= -0.010196 -0.012913 -0.001223 -1.252350 -0.001462  1.251967
 Variable       Old X    -DE/DX   Delta X   Delta X   Delta X     New X
                                 (Linear)    (Quad)   (Total)
    X1        1.84369   0.09167   0.00000   0.09951   0.08878   1.93247
    Y1       -1.26317  -0.02481   0.00000  -0.04906  -0.06262  -1.32578
    Z1        0.08397  -0.00193   0.00000  -0.01516  -0.01367   0.07030
    X2       -0.66697   0.00982   0.00000  -0.00167  -0.01264  -0.67962
    Y2       -1.98828  -0.12473   0.00000  -0.10316  -0.11590  -2.10418
    Z2       -0.08436   0.00157   0.00000   0.02213   0.02350  -0.06086
    X3       -2.20910  -0.12962   0.00000  -0.15039  -0.16058  -2.36968
    Y3        0.01582   0.01196   0.00000   0.00843  -0.00358   0.01223
    Z3        0.00320   0.00104   0.00000  -0.00733  -0.00967  -0.00647
    X4       -0.69477  -0.01975   0.00000  -0.03706  -0.04646  -0.74124
    Y4        2.01346   0.10919   0.00000   0.09324   0.08065   2.09411
    Z4        0.04663  -0.00566   0.00000  -0.02031  -0.02479   0.02184
    X5        1.79341   0.03664   0.00000   0.06557   0.05588   1.84929
    Y5        1.39174  -0.05458   0.00000  -0.03261  -0.04617   1.34557
    Z5        0.02915   0.00501   0.00000   0.01613   0.01387   0.04303
    X6        3.34813   0.03411   0.00000   0.10228   0.09306   3.44119
    Y6        2.53149   0.03299   0.00000   0.06733   0.05316   2.58465
    Z6        0.02532   0.00058   0.00000   0.02479   0.02154   0.04686
    X7       -1.60500   0.00269   0.00000   0.00149  -0.00722  -1.61222
    Y7        3.85327  -0.00527   0.00000   0.07923   0.06701   3.92029
    Z7        0.05514   0.00224   0.00000   0.00790   0.00048   0.05562
    X8       -1.49709   0.00550   0.00000   0.00039  -0.01134  -1.50843
    Y8       -3.92242   0.02379   0.00000  -0.01721  -0.02948  -3.95190
    Z8        0.04048  -0.00229   0.00000   0.00549   0.00905   0.04953
    X9        3.51219  -0.03104   0.00000   0.01174   0.00053   3.51272
    Y9       -2.65294   0.03145   0.00000   0.07114   0.05694  -2.59601
    Z9        0.06666  -0.00057   0.00000  -0.02430  -0.02032   0.04634
         Item               Value     Threshold  Converged?
 Maximum Force            0.129623     0.000450     NO 
 RMS     Force            0.048368     0.000300     NO 
 Maximum Displacement     0.160577     0.001800     NO 
 RMS     Displacement     0.057083     0.001200     NO 
 Predicted change in Energy=-3.553652D-02
 GradGradGradGradGradGradGradGradGradGradGradGradGradGradGradGradGradGrad

 Leave Link  103 at Tue Dec 15 16:11:17 2015, MaxMem=    33554432 cpu:         0.0
 (Enter /home/Applications/g09/g09/l9999.exe)
 1\1\GINC-DUSTIN-DESKTOP\Force\RB3LYP-FC\3-21G\C4H4O1\DUSTIN\15-Dec-201
 5\0\\#P B3LYP/3-21G CIS(Singlets,NStates=15) pop(full) force\\FuranDFT
 \\0,1\C,0.975639,-0.66844,0.044435\C,-0.352946,-1.05215,-0.044642\O,-1
 .169008,0.00837,0.001692\C,-0.367658,1.065478,0.024677\C,0.949033,0.73
 6479,0.015427\H,1.771752,1.339605,0.013397\H,-0.849328,2.039065,0.0291
 77\H,-0.792227,-2.075653,0.021419\H,1.85857,-1.403878,0.035276\\Versio
 n=ES64L-G09RevD.01\State=1-A\HF=-228.7347434\RMSD=4.886e-09\RMSF=4.837
 e-02\Dipole=0.2877623,0.3447476,0.0511423\PG=C01 [X(C4H4O1)]\\@


 THE MORE PROGRESS PHYSICAL SCIENCES MAKE, THE MORE THEY TEND TO ENTER
 THE DOMAIN OF MATHEMATICS, WHICH IS A KIND OF CENTRE TO WHICH THEY ALL
 CONVERGE.  WE MAY EVEN JUDGE THE DEGREE OF PERFECTION TO WHICH A 
 SCIENCE HAS ARRIVED BY THE FACILITY WITH WHICH IT MAY BE SUBMITTED
 TO CALCULATION.

                               -- ADOLPHE QUETELET, 1796-1874
 Job cpu time:       0 days  0 hours  0 minutes 44.0 seconds.
 File lengths (MBytes):  RWF=     14 Int=      0 D2E=      0 Chk=      3 Scr=      1
 Normal termination of Gaussian 09 at Tue Dec 15 16:11:17 2015.
