 Entering Gaussian System, Link 0=g09
 Input=FuranAM1_3.com
 Output=FuranAM1_3.log
 Initial command:
 /home/Applications/g09/g09/l1.exe "/home/Applications/g09/scratch/Gau-15289.inp" -scrdir="/home/Applications/g09/scratch/"
 Entering Link 1 = /home/Applications/g09/g09/l1.exe PID=     15297.
  
 Copyright (c) 1988,1990,1992,1993,1995,1998,2003,2009,2013,
            Gaussian, Inc.  All Rights Reserved.
  
 This is part of the Gaussian(R) 09 program.  It is based on
 the Gaussian(R) 03 system (copyright 2003, Gaussian, Inc.),
 the Gaussian(R) 98 system (copyright 1998, Gaussian, Inc.),
 the Gaussian(R) 94 system (copyright 1995, Gaussian, Inc.),
 the Gaussian 92(TM) system (copyright 1992, Gaussian, Inc.),
 the Gaussian 90(TM) system (copyright 1990, Gaussian, Inc.),
 the Gaussian 88(TM) system (copyright 1988, Gaussian, Inc.),
 the Gaussian 86(TM) system (copyright 1986, Carnegie Mellon
 University), and the Gaussian 82(TM) system (copyright 1983,
 Carnegie Mellon University). Gaussian is a federally registered
 trademark of Gaussian, Inc.
  
 This software contains proprietary and confidential information,
 including trade secrets, belonging to Gaussian, Inc.
  
 This software is provided under written license and may be
 used, copied, transmitted, or stored only in accord with that
 written license.
  
 The following legend is applicable only to US Government
 contracts under FAR:
  
                    RESTRICTED RIGHTS LEGEND
  
 Use, reproduction and disclosure by the US Government is
 subject to restrictions as set forth in subparagraphs (a)
 and (c) of the Commercial Computer Software - Restricted
 Rights clause in FAR 52.227-19.
  
 Gaussian, Inc.
 340 Quinnipiac St., Bldg. 40, Wallingford CT 06492
  
  
 ---------------------------------------------------------------
 Warning -- This program may not be used in any manner that
 competes with the business of Gaussian, Inc. or will provide
 assistance to any competitor of Gaussian, Inc.  The licensee
 of this program is prohibited from giving any competitor of
 Gaussian, Inc. access to this program.  By using this program,
 the user acknowledges that Gaussian, Inc. is engaged in the
 business of creating and licensing software in the field of
 computational chemistry and represents and warrants to the
 licensee that it is not a competitor of Gaussian, Inc. and that
 it will not use this program in any manner prohibited above.
 ---------------------------------------------------------------
  

 Cite this work as:
 Gaussian 09, Revision D.01,
 M. J. Frisch, G. W. Trucks, H. B. Schlegel, G. E. Scuseria, 
 M. A. Robb, J. R. Cheeseman, G. Scalmani, V. Barone, B. Mennucci, 
 G. A. Petersson, H. Nakatsuji, M. Caricato, X. Li, H. P. Hratchian, 
 A. F. Izmaylov, J. Bloino, G. Zheng, J. L. Sonnenberg, M. Hada, 
 M. Ehara, K. Toyota, R. Fukuda, J. Hasegawa, M. Ishida, T. Nakajima, 
 Y. Honda, O. Kitao, H. Nakai, T. Vreven, J. A. Montgomery, Jr., 
 J. E. Peralta, F. Ogliaro, M. Bearpark, J. J. Heyd, E. Brothers, 
 K. N. Kudin, V. N. Staroverov, T. Keith, R. Kobayashi, J. Normand, 
 K. Raghavachari, A. Rendell, J. C. Burant, S. S. Iyengar, J. Tomasi, 
 M. Cossi, N. Rega, J. M. Millam, M. Klene, J. E. Knox, J. B. Cross, 
 V. Bakken, C. Adamo, J. Jaramillo, R. Gomperts, R. E. Stratmann, 
 O. Yazyev, A. J. Austin, R. Cammi, C. Pomelli, J. W. Ochterski, 
 R. L. Martin, K. Morokuma, V. G. Zakrzewski, G. A. Voth, 
 P. Salvador, J. J. Dannenberg, S. Dapprich, A. D. Daniels, 
 O. Farkas, J. B. Foresman, J. V. Ortiz, J. Cioslowski, 
 and D. J. Fox, Gaussian, Inc., Wallingford CT, 2013.
 
 ******************************************
 Gaussian 09:  ES64L-G09RevD.01 24-Apr-2013
                11-Dec-2015 
 ******************************************
 ------------------------------------------------------------
 #P AM1(Input,print) CIS(Singlets,NStates=15) pop(full) force
 ------------------------------------------------------------
 1/10=7,30=1,38=1/1,3;
 2/12=2,17=6,18=5,40=1/2;
 3/5=2,16=1,25=1,41=700000,71=1,135=100,136=1/1,2,8,3;
 4/35=1/1;
 5/5=2,35=1,38=5/2;
 8/6=1,10=1,108=15/1;
 9/15=2,41=15,42=1,48=1,49=10/14;
 10/5=4/2;
 6/7=3,18=1/1;
 7/12=6,13=5,29=1/1,2,3,16;
 1/10=7,30=1/3;
 99//99;
 Leave Link    1 at Fri Dec 11 13:18:12 2015, MaxMem=           0 cpu:         0.0
 (Enter /home/Applications/g09/g09/l101.exe)
 -----------------
 AM1-Reparam Input
 -----------------
 Symbolic Z-matrix:
 Charge =  0 Multiplicity = 1
 6                     0.91885  -0.76077  -0.0085 
 6                    -0.30016  -1.12821   0.00453 
 8                    -1.15751   0.03562  -0.03918 
 6                    -0.32227   1.12949   0.02124 
 6                     0.9833    0.68709   0.02449 
 1                     1.79399   1.35673  -0.02893 
 1                    -0.8345    2.02651   0.00135 
 1                    -0.87384  -2.03263   0.00724 
 1                     1.769    -1.32664   0.03068 
 
 NAtoms=      9 NQM=        9 NQMF=       0 NMMI=      0 NMMIF=      0
                NMic=       0 NMicF=      0.
                    Isotopes and Nuclear Properties:
 (Nuclear quadrupole moments (NQMom) in fm**2, nuclear magnetic moments (NMagM)
  in nuclear magnetons)

  Atom         1           2           3           4           5           6           7           8           9
 IAtWgt=          12          12          16          12          12           1           1           1           1
 AtmWgt=  12.0000000  12.0000000  15.9949146  12.0000000  12.0000000   1.0078250   1.0078250   1.0078250   1.0078250
 NucSpn=           0           0           0           0           0           1           1           1           1
 AtZEff=   0.0000000   0.0000000   0.0000000   0.0000000   0.0000000   0.0000000   0.0000000   0.0000000   0.0000000
 NQMom=    0.0000000   0.0000000   0.0000000   0.0000000   0.0000000   0.0000000   0.0000000   0.0000000   0.0000000
 NMagM=    0.0000000   0.0000000   0.0000000   0.0000000   0.0000000   2.7928460   2.7928460   2.7928460   2.7928460
 AtZNuc=   6.0000000   6.0000000   8.0000000   6.0000000   6.0000000   1.0000000   1.0000000   1.0000000   1.0000000
 Leave Link  101 at Fri Dec 11 13:18:12 2015, MaxMem=    33554432 cpu:         0.0
 (Enter /home/Applications/g09/g09/l103.exe)

 GradGradGradGradGradGradGradGradGradGradGradGradGradGradGradGradGradGrad
 Berny optimization.
 Initialization pass.
 Trust Radius=3.00D-01 FncErr=1.00D-07 GrdErr=1.00D-07
 Number of steps in this run=      2 maximum allowed number of steps=      2.
 GradGradGradGradGradGradGradGradGradGradGradGradGradGradGradGradGradGrad

 Leave Link  103 at Fri Dec 11 13:18:12 2015, MaxMem=    33554432 cpu:         0.0
 (Enter /home/Applications/g09/g09/l202.exe)
                          Input orientation:                          
 ---------------------------------------------------------------------
 Center     Atomic      Atomic             Coordinates (Angstroms)
 Number     Number       Type             X           Y           Z
 ---------------------------------------------------------------------
      1          6           0        0.918849   -0.760767   -0.008496
      2          6           0       -0.300155   -1.128205    0.004534
      3          8           0       -1.157509    0.035618   -0.039177
      4          6           0       -0.322273    1.129487    0.021236
      5          6           0        0.983295    0.687086    0.024486
      6          1           0        1.793990    1.356733   -0.028934
      7          1           0       -0.834503    2.026513    0.001354
      8          1           0       -0.873835   -2.032627    0.007242
      9          1           0        1.769000   -1.326640    0.030682
 ---------------------------------------------------------------------
                    Distance matrix (angstroms):
                    1          2          3          4          5
     1  C    0.000000
     2  C    1.273244   0.000000
     3  O    2.224058   1.446185   0.000000
     4  C    2.261488   2.257862   1.377613   0.000000
     5  C    1.449662   2.223269   2.238639   1.378491   0.000000
     6  H    2.291309   3.249843   3.233697   2.129020   1.052857
     7  H    3.292912   3.199654   2.017335   1.033165   2.258094
     8  H    2.198088   1.071025   2.088124   3.209888   3.293337
     9  H    1.022010   2.078813   3.228790   3.225844   2.161588
                    6          7          8          9
     6  H    0.000000
     7  H    2.712655   0.000000
     8  H    4.313509   4.059335   0.000000
     9  H    2.684151   4.245318   2.735607   0.000000
 Stoichiometry    C4H4O
 Framework group  C1[X(C4H4O)]
 Deg. of freedom    21
 Full point group                 C1      NOp   1
 Largest Abelian subgroup         C1      NOp   1
 Largest concise Abelian subgroup C1      NOp   1
                         Standard orientation:                         
 ---------------------------------------------------------------------
 Center     Atomic      Atomic             Coordinates (Angstroms)
 Number     Number       Type             X           Y           Z
 ---------------------------------------------------------------------
      1          6           0       -0.885270    0.787392    0.015701
      2          6           0       -1.065905   -0.472591   -0.015346
      3          8           0        0.213108   -1.146504    0.022311
      4          6           0        1.169657   -0.156108   -0.021829
      5          6           0        0.536669    1.068398   -0.009674
      6          1           0        1.077165    1.969415    0.057703
      7          1           0        2.133243   -0.528447   -0.004625
      8          1           0       -1.874166   -1.175156   -0.029939
      9          1           0       -1.572016    1.543671   -0.014736
 ---------------------------------------------------------------------
 Rotational constants (GHZ):      9.5581294      9.0780585      4.6580549
 Leave Link  202 at Fri Dec 11 13:18:12 2015, MaxMem=    33554432 cpu:         0.0
 (Enter /home/Applications/g09/g09/l301.exe)

 Semi-emprical parameters in input format:
 Method=8 CoreType=1 PeptideFC=0.0114510000 RIJScale=0.5291770000
 ****
 H       
 PQN=1 NValence=1 F0ss=0.4721550000 ZetaOverlap=1.1880780000 U=-0.4188110000
 Beta=-0.2268830000 CoreKO=1.0589200000 KON=0,0,0,1.0589200000 KON=1,0,1,1.0589200000
 KON=0,1,1,1.0589200000 KON=2,1,1,1.0589200000 EISol=-0.4188110042 EHeat=0.0830298228
 Alpha=1.5252600000
 GCore=0.0085280000,1.4001430000,2.2676710000
 GCore=0.0003530000,1.4001430000,3.4015070000
 GCore=-0.0012730000,0.5600570000,3.9684250000
 ****
 C       
 PQN=2,2 NValence=4 F0ss=0.4494440000 F0sp=0.4215150000 F0pp=0.3768030000 F2pp=0.1898720000
 G1sp=0.2679030000
 ZetaOverlap=1.8086650000,1.6851160000
 U=-1.9120180000,-1.4557970000
 Beta=-0.5775440000,-0.2836780000 DDN=0,1,0.8236740000 DDN=1,1,0.7268010000
 CoreKO=1.1124280000 KON=0,0,0,1.1124280000 KON=1,0,1,0.8219700000 KON=0,1,1,1.1124280000
 KON=2,1,1,0.7783930000 EISol=-4.4398989268 EHeat=0.2723305520 Alpha=1.4014060000
 DipHyp=1.6472532266
 GCore=0.0007890000,1.4001430000,3.0235620000
 GCore=0.0031890000,1.4001430000,3.4959930000
 GCore=-0.0013930000,1.4001430000,3.8739390000
 GCore=-0.0000880000,1.4001430000,5.0077740000
 ****
 O       
 PQN=2,2 NValence=6 F0ss=0.5666750000 F0sp=0.5321300000 F0pp=0.4958710000 F2pp=0.2358080000
 G1sp=0.4343770000
 ZetaOverlap=3.1080320000,2.5240390000
 U=-3.5951870000,-2.8760900000
 Beta=-1.0757550000,-1.0757550000 DDN=0,1,0.4988900000 DDN=1,1,0.4852320000
 CoreKO=0.8822960000 KON=0,0,0,0.8822960000 KON=1,0,1,0.5019540000 KON=0,1,1,0.8822960000
 KON=2,1,1,0.5515580000 EISol=-11.6164441184 EHeat=0.0949133088 Alpha=2.3576810000
 DipHyp=0.9977225968
 GCore=0.0195120000,1.4001430000,1.6023330000
 GCore=0.0056550000,1.9602000000,2.7307880000
 ****
 
 Standard basis: VSTO-6G (5D, 7F)
 Ernie: Thresh=  0.10000D-02 Tol=  0.10000D-05 Strict=F.
  NNHCO=     0 NNPyr=     0 NCTC=     0               EPep=         0.000000000
    EC=        68.632280470  ECS=         1.872790914   EG=         0.330349471
   EHC=         0.000000000  EAt=       -31.051283842  AtH=         1.516354808
 EPDDG=         0.000000000  ECC=        70.835420855 EAtT=        32.567638650
 There are    24 symmetry adapted cartesian basis functions of A   symmetry.
 There are    24 symmetry adapted basis functions of A   symmetry.
    24 basis functions,   144 primitive gaussians,    24 cartesian basis functions
    13 alpha electrons       13 beta electrons
       nuclear repulsion energy       103.4030595059 Hartrees.
 IExCor=    0 DFT=F Ex=HF Corr=None ExCW=0 ScaHFX=  1.000000
 ScaDFX=  1.000000  1.000000  1.000000  1.000000 ScalE2=  1.000000  1.000000
 IRadAn=      0 IRanWt=     -1 IRanGd=            0 ICorTp=0 IEmpDi=  4
 Integral buffers will be    131072 words long.
 Regular integral format.
 Two-electron integral symmetry is turned off.
 Leave Link  301 at Fri Dec 11 13:18:12 2015, MaxMem=    33554432 cpu:         0.0
 (Enter /home/Applications/g09/g09/l302.exe)
 Do NDO integrals.
 NPDir=0 NMtPBC=     1 NCelOv=     1 NCel=       1 NClECP=     1 NCelD=      1
         NCelK=      1 NCelE2=     1 NClLst=     1 CellRange=     0.0.
 One-electron integrals computed using PRISM.
 NBasis=    24 RedAO= F EigKep=  0.00D+00  NBF=    24
 NBsUse=    24 1.00D-04 EigRej=  0.00D+00 NBFU=    24
 Leave Link  302 at Fri Dec 11 13:18:13 2015, MaxMem=    33554432 cpu:         0.0
 (Enter /home/Applications/g09/g09/l308.exe)
 Leave Link  308 at Fri Dec 11 13:18:13 2015, MaxMem=    33554432 cpu:         0.0
 (Enter /home/Applications/g09/g09/l303.exe)
 DipDrv:  MaxL=1.
 Leave Link  303 at Fri Dec 11 13:18:13 2015, MaxMem=    33554432 cpu:         0.0
 (Enter /home/Applications/g09/g09/l401.exe)
 Simple Huckel Guess.
 JPrj=0 DoOrth=F DoCkMO=F.
 Leave Link  401 at Fri Dec 11 13:18:13 2015, MaxMem=    33554432 cpu:         0.0
 (Enter /home/Applications/g09/g09/l502.exe)
 Closed shell SCF:
 Using DIIS extrapolation, IDIIS=  1040.
 Overlap will be assumed to be unity.
 Two-electron integral symmetry not used.
 Keep J ints in memory in canonical form, NReq=888082.
 IVT=       79475 IEndB=       79475 NGot=    33554432 MDV=    33473473
 LenX=    33473473 LenY=    33472456
 Requested convergence on RMS density matrix=1.00D-08 within 128 cycles.
 Requested convergence on MAX density matrix=1.00D-06.
 Requested convergence on             energy=1.00D-06.
 No special actions if energy rises.
 FoFCou: FMM=F IPFlag=           0 FMFlag=           0 FMFlg1=           0
         NFxFlg=           0 DoJE=F BraDBF=F KetDBF=F FulRan=T
         wScrn=  0.000000 ICntrl=     600 IOpCl=  2 I1Cent=           0 NGrid=           0
         NMat0=    1 NMatS0=     54 NMatT0=    0 NMatD0=    1 NMtDS0=    0 NMtDT0=    0
 Symmetry not used in FoFCou.

 Cycle   1  Pass 1  IDiag  1:
 E= 0.337293706879777    
 DIIS: error= 5.74D-02 at cycle   1 NSaved=   1.
 NSaved= 1 IEnMin= 1 EnMin= 0.337293706879777     IErMin= 1 ErrMin= 5.74D-02
 ErrMax= 5.74D-02  0.00D+00 EMaxC= 1.00D-01 BMatC= 1.09D-01 BMatP= 1.09D-01
 IDIUse=3 WtCom= 4.26D-01 WtEn= 5.74D-01
 Coeff-Com:  0.100D+01
 Coeff-En:   0.100D+01
 Coeff:      0.100D+01
 GapD=    2.000 DampG=2.000 DampE=0.500 DampFc=1.0000 IDamp=-1.
 RMSDP=1.93D-02 MaxDP=1.57D-01              OVMax= 0.00D+00

 Cycle   2  Pass 1  IDiag  1:
 E= 0.619175930622049E-01 Delta-E=       -0.275376113818 Rises=F Damp=F
 DIIS: error= 1.99D-02 at cycle   2 NSaved=   2.
 NSaved= 2 IEnMin= 2 EnMin= 0.619175930622049E-01 IErMin= 2 ErrMin= 1.99D-02
 ErrMax= 1.99D-02  0.00D+00 EMaxC= 1.00D-01 BMatC= 9.40D-03 BMatP= 1.09D-01
 IDIUse=3 WtCom= 8.01D-01 WtEn= 1.99D-01
 Coeff-Com: -0.362D+00 0.136D+01
 Coeff-En:   0.000D+00 0.100D+01
 Coeff:     -0.290D+00 0.129D+01
 RMSDP=8.11D-03 MaxDP=7.56D-02 DE=-2.75D-01 OVMax= 0.00D+00

 Cycle   3  Pass 1  IDiag  3:
 E= 0.321371640595629E-01 Delta-E=       -0.029780429003 Rises=F Damp=F
 DIIS: error= 3.60D-03 at cycle   3 NSaved=   3.
 NSaved= 3 IEnMin= 3 EnMin= 0.321371640595629E-01 IErMin= 3 ErrMin= 3.60D-03
 ErrMax= 3.60D-03  0.00D+00 EMaxC= 1.00D-01 BMatC= 3.45D-04 BMatP= 9.40D-03
 IDIUse=3 WtCom= 9.64D-01 WtEn= 3.60D-02
 Coeff-Com:  0.147D+00-0.639D+00 0.149D+01
 Coeff-En:   0.000D+00 0.000D+00 0.100D+01
 Coeff:      0.142D+00-0.616D+00 0.147D+01
 Gap=     0.379 Goal=   None    Shift=    0.000
 RMSDP=2.51D-03 MaxDP=2.95D-02 DE=-2.98D-02 OVMax= 2.70D-02

 Cycle   4  Pass 1  IDiag  3:
 E= 0.302094725149260E-01 Delta-E=       -0.001927691545 Rises=F Damp=F
 DIIS: error= 1.11D-03 at cycle   4 NSaved=   4.
 NSaved= 4 IEnMin= 4 EnMin= 0.302094725149260E-01 IErMin= 4 ErrMin= 1.11D-03
 ErrMax= 1.11D-03  0.00D+00 EMaxC= 1.00D-01 BMatC= 2.55D-05 BMatP= 3.45D-04
 IDIUse=3 WtCom= 9.89D-01 WtEn= 1.11D-02
 Coeff-Com:  0.157D-01-0.591D-01-0.154D+00 0.120D+01
 Coeff-En:   0.000D+00 0.000D+00 0.000D+00 0.100D+01
 Coeff:      0.156D-01-0.585D-01-0.152D+00 0.119D+01
 Gap=     0.380 Goal=   None    Shift=    0.000
 RMSDP=7.84D-04 MaxDP=9.70D-03 DE=-1.93D-03 OVMax= 9.36D-03

 Cycle   5  Pass 1  IDiag  3:
 E= 0.300495719704088E-01 Delta-E=       -0.000159900545 Rises=F Damp=F
 DIIS: error= 2.26D-04 at cycle   5 NSaved=   5.
 NSaved= 5 IEnMin= 5 EnMin= 0.300495719704088E-01 IErMin= 5 ErrMin= 2.26D-04
 ErrMax= 2.26D-04  0.00D+00 EMaxC= 1.00D-01 BMatC= 1.97D-06 BMatP= 2.55D-05
 IDIUse=3 WtCom= 9.98D-01 WtEn= 2.26D-03
 Coeff-Com: -0.895D-02 0.376D-01-0.505D-02-0.450D+00 0.143D+01
 Coeff-En:   0.000D+00 0.000D+00 0.000D+00 0.000D+00 0.100D+01
 Coeff:     -0.893D-02 0.376D-01-0.504D-02-0.449D+00 0.143D+01
 Gap=     0.380 Goal=   None    Shift=    0.000
 RMSDP=2.67D-04 MaxDP=2.13D-03 DE=-1.60D-04 OVMax= 2.76D-03

 Cycle   6  Pass 1  IDiag  3:
 E= 0.300342609251629E-01 Delta-E=       -0.000015311045 Rises=F Damp=F
 DIIS: error= 9.70D-05 at cycle   6 NSaved=   6.
 NSaved= 6 IEnMin= 6 EnMin= 0.300342609251629E-01 IErMin= 6 ErrMin= 9.70D-05
 ErrMax= 9.70D-05  0.00D+00 EMaxC= 1.00D-01 BMatC= 1.98D-07 BMatP= 1.97D-06
 IDIUse=1 WtCom= 1.00D+00 WtEn= 0.00D+00
 Coeff-Com:  0.302D-02-0.124D-01 0.153D-01 0.110D+00-0.639D+00 0.152D+01
 Coeff:      0.302D-02-0.124D-01 0.153D-01 0.110D+00-0.639D+00 0.152D+01
 Gap=     0.380 Goal=   None    Shift=    0.000
 RMSDP=1.00D-04 MaxDP=8.28D-04 DE=-1.53D-05 OVMax= 1.20D-03

 Cycle   7  Pass 1  IDiag  3:
 E= 0.300324597762511E-01 Delta-E=       -0.000001801149 Rises=F Damp=F
 DIIS: error= 3.29D-05 at cycle   7 NSaved=   7.
 NSaved= 7 IEnMin= 7 EnMin= 0.300324597762511E-01 IErMin= 7 ErrMin= 3.29D-05
 ErrMax= 3.29D-05  0.00D+00 EMaxC= 1.00D-01 BMatC= 1.62D-08 BMatP= 1.98D-07
 IDIUse=1 WtCom= 1.00D+00 WtEn= 0.00D+00
 Coeff-Com: -0.374D-03 0.999D-03-0.869D-03-0.266D-01 0.172D+00-0.667D+00
 Coeff-Com:  0.152D+01
 Coeff:     -0.374D-03 0.999D-03-0.869D-03-0.266D-01 0.172D+00-0.667D+00
 Coeff:      0.152D+01
 Gap=     0.380 Goal=   None    Shift=    0.000
 RMSDP=3.27D-05 MaxDP=3.01D-04 DE=-1.80D-06 OVMax= 3.48D-04

 Cycle   8  Pass 1  IDiag  3:
 E= 0.300323115676804E-01 Delta-E=       -0.000000148209 Rises=F Damp=F
 DIIS: error= 5.85D-06 at cycle   8 NSaved=   8.
 NSaved= 8 IEnMin= 8 EnMin= 0.300323115676804E-01 IErMin= 8 ErrMin= 5.85D-06
 ErrMax= 5.85D-06  0.00D+00 EMaxC= 1.00D-01 BMatC= 6.30D-10 BMatP= 1.62D-08
 IDIUse=1 WtCom= 1.00D+00 WtEn= 0.00D+00
 Coeff-Com:  0.215D-04 0.224D-03-0.794D-03 0.985D-02-0.579D-01 0.259D+00
 Coeff-Com: -0.746D+00 0.154D+01
 Coeff:      0.215D-04 0.224D-03-0.794D-03 0.985D-02-0.579D-01 0.259D+00
 Coeff:     -0.746D+00 0.154D+01
 Gap=     0.380 Goal=   None    Shift=    0.000
 RMSDP=5.60D-06 MaxDP=5.09D-05 DE=-1.48D-07 OVMax= 6.15D-05

 Cycle   9  Pass 1  IDiag  3:
 E= 0.300323066623918E-01 Delta-E=       -0.000000004905 Rises=F Damp=F
 DIIS: error= 8.23D-07 at cycle   9 NSaved=   9.
 NSaved= 9 IEnMin= 9 EnMin= 0.300323066623918E-01 IErMin= 9 ErrMin= 8.23D-07
 ErrMax= 8.23D-07  0.00D+00 EMaxC= 1.00D-01 BMatC= 2.52D-11 BMatP= 6.30D-10
 IDIUse=1 WtCom= 1.00D+00 WtEn= 0.00D+00
 Coeff-Com:  0.302D-04-0.255D-03 0.533D-03-0.302D-02 0.173D-01-0.879D-01
 Coeff-Com:  0.276D+00-0.691D+00 0.149D+01
 Coeff:      0.302D-04-0.255D-03 0.533D-03-0.302D-02 0.173D-01-0.879D-01
 Coeff:      0.276D+00-0.691D+00 0.149D+01
 Gap=     0.380 Goal=   None    Shift=    0.000
 RMSDP=9.33D-07 MaxDP=7.92D-06 DE=-4.91D-09 OVMax= 9.35D-06

 Cycle  10  Pass 1  IDiag  3:
 E= 0.300323065035144E-01 Delta-E=       -0.000000000159 Rises=F Damp=F
 DIIS: error= 1.59D-07 at cycle  10 NSaved=  10.
 NSaved=10 IEnMin=10 EnMin= 0.300323065035144E-01 IErMin=10 ErrMin= 1.59D-07
 ErrMax= 1.59D-07  0.00D+00 EMaxC= 1.00D-01 BMatC= 8.91D-13 BMatP= 2.52D-11
 IDIUse=1 WtCom= 1.00D+00 WtEn= 0.00D+00
 Coeff-Com: -0.153D-04 0.116D-03-0.236D-03 0.117D-02-0.647D-02 0.337D-01
 Coeff-Com: -0.107D+00 0.274D+00-0.694D+00 0.150D+01
 Coeff:     -0.153D-04 0.116D-03-0.236D-03 0.117D-02-0.647D-02 0.337D-01
 Coeff:     -0.107D+00 0.274D+00-0.694D+00 0.150D+01
 Gap=     0.380 Goal=   None    Shift=    0.000
 RMSDP=1.64D-07 MaxDP=1.46D-06 DE=-1.59D-10 OVMax= 1.31D-06

 Cycle  11  Pass 1  IDiag  3:
 E= 0.300323064977164E-01 Delta-E=       -0.000000000006 Rises=F Damp=F
 DIIS: error= 3.19D-08 at cycle  11 NSaved=  11.
 NSaved=11 IEnMin=11 EnMin= 0.300323064977164E-01 IErMin=11 ErrMin= 3.19D-08
 ErrMax= 3.19D-08  0.00D+00 EMaxC= 1.00D-01 BMatC= 3.95D-14 BMatP= 8.91D-13
 IDIUse=1 WtCom= 1.00D+00 WtEn= 0.00D+00
 Coeff-Com:  0.396D-05-0.314D-04 0.636D-04-0.328D-03 0.176D-02-0.919D-02
 Coeff-Com:  0.291D-01-0.738D-01 0.194D+00-0.541D+00 0.140D+01
 Coeff:      0.396D-05-0.314D-04 0.636D-04-0.328D-03 0.176D-02-0.919D-02
 Coeff:      0.291D-01-0.738D-01 0.194D+00-0.541D+00 0.140D+01
 Gap=     0.380 Goal=   None    Shift=    0.000
 RMSDP=3.68D-08 MaxDP=3.19D-07 DE=-5.80D-12 OVMax= 3.97D-07

 Cycle  12  Pass 1  IDiag  3:
 E= 0.300323064975174E-01 Delta-E=        0.000000000000 Rises=F Damp=F
 DIIS: error= 9.58D-09 at cycle  12 NSaved=  12.
 NSaved=12 IEnMin=12 EnMin= 0.300323064975174E-01 IErMin=12 ErrMin= 9.58D-09
 ErrMax= 9.58D-09  0.00D+00 EMaxC= 1.00D-01 BMatC= 3.58D-15 BMatP= 3.95D-14
 IDIUse=1 WtCom= 1.00D+00 WtEn= 0.00D+00
 Coeff-Com: -0.777D-06 0.658D-05-0.121D-04 0.660D-04-0.356D-03 0.194D-02
 Coeff-Com: -0.609D-02 0.151D-01-0.404D-01 0.136D+00-0.629D+00 0.152D+01
 Coeff:     -0.777D-06 0.658D-05-0.121D-04 0.660D-04-0.356D-03 0.194D-02
 Coeff:     -0.609D-02 0.151D-01-0.404D-01 0.136D+00-0.629D+00 0.152D+01
 Gap=     0.380 Goal=   None    Shift=    0.000
 RMSDP=1.33D-08 MaxDP=1.15D-07 DE=-1.99D-13 OVMax= 1.20D-07

 Cycle  13  Pass 1  IDiag  3:
 E= 0.300323064974606E-01 Delta-E=        0.000000000000 Rises=F Damp=F
 DIIS: error= 2.67D-09 at cycle  13 NSaved=  13.
 NSaved=13 IEnMin=13 EnMin= 0.300323064974606E-01 IErMin=13 ErrMin= 2.67D-09
 ErrMax= 2.67D-09  0.00D+00 EMaxC= 1.00D-01 BMatC= 1.93D-16 BMatP= 3.58D-15
 IDIUse=1 WtCom= 1.00D+00 WtEn= 0.00D+00
 Coeff-Com:  0.108D-06-0.955D-06 0.144D-05-0.798D-05 0.379D-04-0.234D-03
 Coeff-Com:  0.717D-03-0.162D-02 0.474D-02-0.238D-01 0.183D+00-0.652D+00
 Coeff-Com:  0.149D+01
 Coeff:      0.108D-06-0.955D-06 0.144D-05-0.798D-05 0.379D-04-0.234D-03
 Coeff:      0.717D-03-0.162D-02 0.474D-02-0.238D-01 0.183D+00-0.652D+00
 Coeff:      0.149D+01
 Gap=     0.380 Goal=   None    Shift=    0.000
 RMSDP=2.98D-09 MaxDP=2.85D-08 DE=-5.68D-14 OVMax= 3.02D-08

 Cycle  14  Pass 2  IDiag  1:
 SCF Done:  E(RAM1) =  0.300323064975E-01 A.U. after   14 cycles
            NFock= 13  Conv=0.30D-08     -V/T= 1.0018
 KE=-1.655653520961D+01 PE=-1.709091837837D+02 EE= 8.409269179392D+01
 Leave Link  502 at Fri Dec 11 13:18:13 2015, MaxMem=    33554432 cpu:         0.0
 (Enter /home/Applications/g09/g09/l801.exe)
 Range of M.O.s used for correlation:     1    24
 NBasis=    24 NAE=    13 NBE=    13 NFC=     0 NFV=     0
 NROrb=     24 NOA=    13 NOB=    13 NVA=    11 NVB=    11
 Leave Link  801 at Fri Dec 11 13:18:13 2015, MaxMem=    33554432 cpu:         0.0
 (Enter /home/Applications/g09/g09/l914.exe)
 RHF ground state
 MDV=    33554432 DFT=F DoStab=F Mixed=F DoRPA=F DoScal=F NonHer=F
 Making orbital integer symmetry assigments:
 Orbital symmetries:
       Occupied  (A) (A) (A) (A) (A) (A) (A) (A) (A) (A) (A) (A)
                 (A)
       Virtual   (A) (A) (A) (A) (A) (A) (A) (A) (A) (A) (A)
    60 initial guesses have been made.
 Convergence on wavefunction:    0.000001000000000
 Davidson Disk Diagonalization:  ConvIn= 1.00D-06 SkipCon=T Conv= 1.00D-06.
 Max sub-space:   240 roots to seek:    60 dimension of matrix:          286
 Iteration     1 Dimension    60 NMult     0 NNew     60
 CISAX will form    60 AO SS matrices at one time.
 NMat=    60 NSing=    60 JSym2X= 0.
 FoFJK:  IHMeth= 8 ICntrl=       0 DoSepK=F KAlg= 0 I1Cent=   0 FoldK=F
 IRaf=         1 NMat= 120 IRICut=       1 DoRegI=T DoRafI=F ISym2E= 0.
 FoFCou: FMM=F IPFlag=           0 FMFlag=      100000 FMFlg1=           0
         NFxFlg=           0 DoJE=F BraDBF=F KetDBF=F FulRan=T
         wScrn=  0.000000 ICntrl=       0 IOpCl=  0 I1Cent=           0 NGrid=           0
         NMat0=  120 NMatS0=     60 NMatT0=    0 NMatD0=  120 NMtDS0=    0 NMtDT0=    0
 Symmetry not used in FoFCou.
 New state      2 was old state      4
 New state      3 was old state      2
 New state      4 was old state      7
 New state      5 was old state      8
 New state      6 was old state      3
 New state      7 was old state      6
 New state      8 was old state      5
 New state     11 was old state     13
 New state     12 was old state     20
 New state     13 was old state     12
 New state     14 was old state     15
 New state     15 was old state     18
 Excitation Energies [eV] at current iteration:
 Root      1 :     4.590264567033124
 Root      2 :     5.180889448357185
 Root      3 :     5.295317759787758
 Root      4 :     5.957314688275556
 Root      5 :     6.016990194297944
 Root      6 :     6.364337705692066
 Root      7 :     6.442527717257062
 Root      8 :     6.672996651247023
 Root      9 :     6.731863468255192
 Root     10 :     7.044117020042989
 Root     11 :     7.337036902150968
 Root     12 :     7.507513208828062
 Root     13 :     7.669168114632535
 Root     14 :     7.804651318885629
 Root     15 :     7.969594492570090
 Root     16 :     8.043333619472472
 Root     17 :     8.186598534138978
 Root     18 :     8.232668258111191
 Root     19 :     8.311620120162647
 Root     20 :     8.742357794222730
 Root     21 :     8.802542146737668
 Root     22 :     8.963068242547541
 Root     23 :     9.005478703118323
 Root     24 :     9.339949992153912
 Root     25 :     9.455259587951804
 Root     26 :     9.595759947552361
 Root     27 :     9.677518218059609
 Root     28 :     9.727764031427341
 Root     29 :     9.786434572109995
 Root     30 :     9.829034876221552
 Root     31 :     9.951362923232262
 Root     32 :    10.154967812821600
 Root     33 :    10.293241788811510
 Root     34 :    10.352940770430600
 Root     35 :    10.488583583366050
 Root     36 :    10.522192199708480
 Root     37 :    10.552602574639040
 Root     38 :    10.824168249499970
 Root     39 :    10.874908663655290
 Root     40 :    10.939536561409960
 Root     41 :    10.941393407317090
 Root     42 :    11.226980506178050
 Root     43 :    11.306289162568370
 Root     44 :    11.436178517375710
 Root     45 :    11.460779927197640
 Root     46 :    11.657198158990780
 Root     47 :    11.762748128179600
 Root     48 :    11.933240454824090
 Root     49 :    12.083910887244970
 Root     50 :    12.247333450731880
 Root     51 :    12.319202228536770
 Root     52 :    12.569270841334330
 Root     53 :    12.707727502024040
 Root     54 :    13.015581505880610
 Root     55 :    13.130576172061920
 Root     56 :    13.267531828209980
 Root     57 :    13.296457381437570
 Root     58 :    13.504193774479990
 Root     59 :    13.545132813561070
 Root     60 :    13.682035613264600
 Iteration     2 Dimension   120 NMult    60 NNew     60
 CISAX will form    60 AO SS matrices at one time.
 NMat=    60 NSing=    60 JSym2X= 0.
 Root      1 not converged, maximum delta is    0.024430149452817
 Root      2 not converged, maximum delta is    0.036852802618616
 Root      3 not converged, maximum delta is    0.018434644135338
 Root      4 not converged, maximum delta is    0.227091013279337
 Root      5 not converged, maximum delta is    0.206433986986461
 Root      6 not converged, maximum delta is    0.165380690234650
 Root      7 not converged, maximum delta is    0.148624204716436
 New state      8 was old state      9
 Root      8 not converged, maximum delta is    0.054198044957073
 New state      9 was old state      8
 Root      9 not converged, maximum delta is    0.039280474829013
 Root     10 not converged, maximum delta is    0.049244576642596
 Root     11 not converged, maximum delta is    0.143183195006141
 Root     12 not converged, maximum delta is    0.211556452901418
 Root     13 not converged, maximum delta is    0.070768491613824
 Root     14 not converged, maximum delta is    0.069125495938663
 Root     15 not converged, maximum delta is    0.214309516609555
 Excitation Energies [eV] at current iteration:
 Root      1 :     4.518799090282265   Change is   -0.071465476750859
 Root      2 :     5.139448922137661   Change is   -0.041440526219523
 Root      3 :     5.276065637534334   Change is   -0.019252122253425
 Root      4 :     5.843111414914432   Change is   -0.114203273361123
 Root      5 :     5.936918528051754   Change is   -0.080071666246190
 Root      6 :     6.246703274591999   Change is   -0.117634431100068
 Root      7 :     6.374959686898179   Change is   -0.067568030358883
 Root      8 :     6.574303539681216   Change is   -0.157559928573976
 Root      9 :     6.639871796753607   Change is   -0.033124854493415
 Root     10 :     6.981884032515323   Change is   -0.062232987527666
 Root     11 :     7.177603280988213   Change is   -0.159433621162755
 Root     12 :     7.353723739537706   Change is   -0.153789469290355
 Root     13 :     7.578771075767004   Change is   -0.090397038865531
 Root     14 :     7.717979659670490   Change is   -0.086671659215138
 Root     15 :     7.895083927380202   Change is   -0.074510565189889
 Root     16 :     7.925210312134115   Change is   -0.118123307338357
 Root     17 :     7.934763276515927   Change is   -0.251835257623052
 Root     18 :     8.121529396383883   Change is   -0.111138861727308
 Root     19 :     8.159209034118986   Change is   -0.152411086043661
 Root     20 :     8.463863816800695   Change is   -0.278493977422037
 Root     21 :     8.634953983530300   Change is   -0.167588163207367
 Root     22 :     8.908371636365038   Change is   -0.054696606182504
 Root     23 :     8.948565450274911   Change is   -0.056913252843412
 Root     24 :     9.056695112671813   Change is   -0.398564475279993
 Root     25 :     9.170927590391800   Change is   -0.169022401762113
 Root     26 :     9.396009936438544   Change is   -0.390424635671451
 Root     27 :     9.458856565552416   Change is   -0.136903381999946
 Root     28 :     9.485036564712969   Change is   -0.466326358519292
 Root     29 :     9.587739013451431   Change is   -0.089779204608178
 Root     30 :     9.638173554465361   Change is   -0.190861321756191
 Root     31 :     9.697022898895712   Change is   -0.030741132531628
 Root     32 :     9.745820643425752   Change is   -0.547421145385762
 Root     33 :     9.869428009079934   Change is   -0.285539803741664
 Root     34 :     9.963273608666707   Change is   -0.589328965972331
 Root     35 :    10.152410422387170   Change is   -0.671757827112800
 Root     36 :    10.186164047118210   Change is   -0.166776723312388
 Root     37 :    10.228857267985490   Change is   -0.259726315380558
 Root     38 :    10.353780505852350   Change is   -0.585756055557616
 Root     39 :    10.405106566625380   Change is   -0.117085633083100
 Root     40 :    10.566932253509060   Change is   -0.660048252668990
 Root     41 :    10.620614754718760   Change is   -0.254293908936535
 Root     42 :    10.719310119776260   Change is   -0.586979042792104
 Root     43 :    10.834117550535060   Change is   -0.107275856782028
 Root     44 :    10.863620994203540   Change is   -0.572557523172166
 Root     45 :    11.038064411811330   Change is   -0.422715515386309
 Root     46 :    11.143639772422540   Change is   -0.619108355757061
 Root     47 :    11.348886743832470   Change is   -0.308311415158308
 Root     48 :    11.507884578176850   Change is   -0.425355876647243
 Root     49 :    11.753433493072570   Change is   -0.330477394172406
 Root     50 :    11.846530732932510   Change is   -0.472671495604253
 Root     51 :    11.858872329764330   Change is   -0.388461120967555
 Root     52 :    12.125621042789610   Change is   -1.004955129272311
 Root     53 :    12.247963413744610   Change is   -0.321307427589717
 Root     54 :    12.397702044756880   Change is   -0.310025457267163
 Root     55 :    12.460438510898720
 Root     56 :    12.813880380345830   Change is   -0.453651447864152
 Root     57 :    12.949132277637760   Change is   -0.596000535923311
 Root     58 :    12.976736951270030   Change is   -0.038844554610579
 Root     59 :    13.028921340608840   Change is   -0.267536040828729
 Root     60 :    13.273638822795080   Change is   -0.230554951684913
 Iteration     3 Dimension   135 NMult   120 NNew     15
 CISAX will form    15 AO SS matrices at one time.
 NMat=    15 NSing=    15 JSym2X= 0.
 Root      1 not converged, maximum delta is    0.001302779975716
 Root      2 not converged, maximum delta is    0.000096643993431
 Root      3 not converged, maximum delta is    0.000435709384258
 Root      4 not converged, maximum delta is    0.000133913313100
 Root      5 not converged, maximum delta is    0.000152096090204
 Root      6 not converged, maximum delta is    0.001474246301713
 Root      7 not converged, maximum delta is    0.000887972053302
 Root      8 not converged, maximum delta is    0.000184976709364
 Root      9 not converged, maximum delta is    0.000719332740476
 Root     10 not converged, maximum delta is    0.000365203307658
 Root     11 not converged, maximum delta is    0.000403513244781
 Root     12 not converged, maximum delta is    0.000175023266667
 Root     13 not converged, maximum delta is    0.000335126431346
 Root     14 not converged, maximum delta is    0.000224548268630
 Root     15 not converged, maximum delta is    0.000408344507147
 Excitation Energies [eV] at current iteration:
 Root      1 :     4.518575844307557   Change is   -0.000223245974708
 Root      2 :     5.139445874120396   Change is   -0.000003048017266
 Root      3 :     5.276028308281958   Change is   -0.000037329252376
 Root      4 :     5.843108226222572   Change is   -0.000003188691860
 Root      5 :     5.936913653512406   Change is   -0.000004874539348
 Root      6 :     6.245981813951601   Change is   -0.000721460640398
 Root      7 :     6.374890801961941   Change is   -0.000068884936238
 Root      8 :     6.574293601783233   Change is   -0.000009937897983
 Root      9 :     6.639754042742965   Change is   -0.000117754010643
 Root     10 :     6.981845922971877   Change is   -0.000038109543446
 Root     11 :     7.177586541661116   Change is   -0.000016739327097
 Root     12 :     7.353713986559642   Change is   -0.000009752978065
 Root     13 :     7.578757822910800   Change is   -0.000013252856203
 Root     14 :     7.717968765194736   Change is   -0.000010894475755
 Root     15 :     7.895068532095372   Change is   -0.000015395284830
 Iteration     4 Dimension   143 NMult   135 NNew      8
 CISAX will form     8 AO SS matrices at one time.
 NMat=     8 NSing=     8 JSym2X= 0.
 Root      1 not converged, maximum delta is    0.000019875837232
 Root      2 not converged, maximum delta is    0.000001507195877
 Root      3 not converged, maximum delta is    0.000008702897807
 Root      4 not converged, maximum delta is    0.000002398366219
 Root      5 not converged, maximum delta is    0.000004599353554
 Root      6 not converged, maximum delta is    0.000086001465022
 Root      7 not converged, maximum delta is    0.000027578934329
 Root      8 not converged, maximum delta is    0.000006462664234
 Root      9 not converged, maximum delta is    0.000041770505387
 Root     10 not converged, maximum delta is    0.000011689682341
 Root     11 not converged, maximum delta is    0.000012349178362
 Root     12 not converged, maximum delta is    0.000008555288383
 Root     13 not converged, maximum delta is    0.000016978785336
 Root     14 not converged, maximum delta is    0.000011556311661
 Root     15 not converged, maximum delta is    0.000013870649659
 Excitation Energies [eV] at current iteration:
 Root      1 :     4.518575657194710   Change is   -0.000000187112847
 Root      2 :     5.139445873186631   Change is   -0.000000000933765
 Root      3 :     5.276028284338253   Change is   -0.000000023943706
 Root      4 :     5.843108223213102   Change is   -0.000000003009470
 Root      5 :     5.936913647892744   Change is   -0.000000005619662
 Root      6 :     6.245979600495251   Change is   -0.000002213456350
 Root      7 :     6.374890593395005   Change is   -0.000000208566936
 Root      8 :     6.574293589765584   Change is   -0.000000012017649
 Root      9 :     6.639753695007909   Change is   -0.000000347735056
 Root     10 :     6.981845862054207   Change is   -0.000000060917669
 Root     11 :     7.177586481157055   Change is   -0.000000060504060
 Root     12 :     7.353713961184142   Change is   -0.000000025375500
 Root     13 :     7.578757780625977   Change is   -0.000000042284824
 Root     14 :     7.717968719398098   Change is   -0.000000045796637
 Root     15 :     7.895068508858802   Change is   -0.000000023236570
 Convergence achieved on expansion vectors.
 ***********************************************************************
 Excited states from <AA,BB:AA,BB> singles matrix:
 ***********************************************************************
 
 1PDM for each excited state written to RWF  633
 Ground to excited state transition densities written to RWF  633
 Ground to excited state transition electric dipole moments (Au):
       state          X           Y           Z        Dip. S.      Osc.
         1        -0.8651      0.2517     -0.0249      0.8123      0.0899
         2        -0.0197      0.0102     -0.0108      0.0006      0.0001
         3         0.0029      0.2435      0.0181      0.0596      0.0077
         4        -0.0173     -0.0262     -0.0724      0.0062      0.0009
         5         0.0363      0.0280      0.0891      0.0100      0.0015
         6         0.3510      1.3058      0.0471      1.8306      0.2801
         7        -0.0831     -0.4576      0.1057      0.2275      0.0355
         8        -0.0061     -0.0308      0.0704      0.0059      0.0010
         9         0.6582     -0.5837     -0.0680      0.7785      0.1266
        10         0.0377      0.1934     -0.0810      0.0454      0.0078
        11        -0.0297      0.0456      0.0094      0.0030      0.0005
        12         0.0361      0.0424      0.0970      0.0125      0.0023
        13        -0.0232     -0.0051      0.0083      0.0006      0.0001
        14         0.0157      0.0209     -0.1826      0.0340      0.0064
        15        -0.0311      0.0138      0.0670      0.0056      0.0011
 Ground to excited state transition velocity dipole moments (Au):
       state          X           Y           Z        Dip. S.      Osc.
         1         0.0683     -0.0399      0.0074      0.0063      0.0253
         2        -0.0011     -0.0003      0.0039      0.0000      0.0001
         3        -0.0107     -0.0187     -0.0088      0.0005      0.0019
         4         0.0012      0.0128      0.0225      0.0007      0.0021
         5        -0.0006     -0.0052     -0.0895      0.0080      0.0246
         6        -0.0511     -0.2600     -0.0513      0.0728      0.2115
         7         0.0067      0.0935     -0.1531      0.0322      0.0917
         8        -0.0006      0.0085     -0.0594      0.0036      0.0099
         9        -0.1358      0.1280      0.0261      0.0355      0.0970
        10        -0.0067     -0.0475      0.0162      0.0026      0.0067
        11         0.0079     -0.0093      0.0512      0.0028      0.0070
        12        -0.0067     -0.0131      0.0457      0.0023      0.0057
        13         0.0002     -0.0007     -0.0810      0.0066      0.0157
        14        -0.0034     -0.0124      0.0461      0.0023      0.0054
        15         0.0076     -0.0051     -0.0370      0.0015      0.0033
 Ground to excited state transition magnetic dipole moments (Au):
       state          X           Y           Z
         1         0.0398      0.0165     -0.7715
         2         0.0208      0.5857      0.0159
         3        -0.0289      0.0341     -0.0623
         4        -0.3522     -0.1538     -0.0337
         5         0.1644     -0.3484     -0.0196
         6         0.0505      0.1231      0.1652
         7        -0.3089      0.2602     -0.0350
         8        -0.0785      0.0290      0.0016
         9         0.0209      0.0209     -0.0543
        10        -1.3659     -0.5361     -0.0332
        11        -0.1147      0.4712      0.0310
        12         0.3322      0.1217     -0.0132
        13        -0.1771     -0.2945     -0.0510
        14         0.1027      0.6139     -0.0536
        15        -0.6940      0.3964     -0.0239
 Ground to excited state transition velocity quadrupole moments (Au):
       state          XX          YY          ZZ          XY          XZ          YZ
         1         0.2290     -0.1808     -0.0218     -0.4115     -0.0077     -0.0048
         2         0.0038      0.0202     -0.0133      0.0045      0.1503      0.0676
         3         0.1435     -0.2012      0.0729     -0.1345     -0.0033      0.0082
         4         0.0026     -0.0031      0.0020     -0.0156      0.1246     -0.2351
         5         0.0078      0.0219     -0.0159     -0.0059     -0.0406      0.1320
         6         0.4094     -0.2029     -0.0436     -0.0112     -0.0061     -0.0390
         7        -0.1508      0.0953      0.0137     -0.0315     -0.1350     -0.0278
         8        -0.0154      0.0051      0.0101     -0.0211      0.0473      0.1939
         9        -0.0931     -0.0075      0.0005     -0.5229     -0.0260      0.0094
        10         0.0754     -0.0497     -0.0090     -0.0279     -0.0577      0.0491
        11         0.0118      0.0281     -0.0063      0.0485     -0.2568     -0.0469
        12         0.0255     -0.0353      0.0323     -0.0288     -0.1431      0.1648
        13         0.0173     -0.0061      0.0092     -0.0182     -0.0997      0.0183
        14         0.0157     -0.0390     -0.0058     -0.0212     -0.0486      0.3374
        15        -0.0040     -0.0378      0.0108      0.0018      0.1877      0.1017
 <0|del|b> * <b|rxdel|0> + <0|del|b> * <b|delr+rdel|0>
 Rotatory Strengths (R) in cgs (10**-40 erg-esu-cm/Gauss)
       state          XX          YY          ZZ    R(velocity)    E-M Angle
         1       -20.6867     -0.5869      5.7372     -5.1788       93.41
         2        -0.0893     -0.0939     -0.3087     -0.1640       93.16
         3         1.8641     -0.7466     -0.3274      0.2634       83.03
         4        -7.6921     -1.8650     -0.8536     -3.4702      108.44
         5         6.3095      1.7122      3.2630      3.7616       84.22
         6       -63.9092    -14.8526    -53.8965    -44.2194      138.78
         7        71.1171     -2.6313     14.8033     27.7630       67.72
         8         1.4662     -2.0746      1.1726      0.1881       87.80
         9       -13.1335     11.7753     -3.1935     -1.5172       97.75
        10        29.9338     12.0557     51.9316     31.3071       62.68
        11        -3.6103     -2.9178     -3.3928     -3.3070       98.31
        12        -7.0647     -3.3941     -1.0907     -3.8498      105.05
        13         7.2900      3.3380      0.3342      3.6541       81.17
        14       -14.5265     -3.7451     -7.7242     -8.6653      110.41
        15        -0.3054     -4.3129    -11.0065     -5.2083      102.14
 1/2[<0|r|b>*<b|rxdel|0> + (<0|rxdel|b>*<b|r|0>)*]
 Rotatory Strengths (R) in cgs (10**-40 erg-esu-cm/Gauss)
       state          XX          YY          ZZ     R(length)
         1        24.3435     -2.9418    -13.5759      2.6086
         2         0.2904     -4.2166      0.1210     -1.2684
         3         0.0601     -5.8636      0.7968     -1.6689
         4        -4.3193     -2.8541     -1.7254     -2.9663
         5        -4.2241      6.8935      1.2371      1.3022
         6       -12.5362   -113.6475     -5.5003    -43.8947
         7       -18.1622     84.2107      2.6127     22.8871
         8        -0.3370      0.6311     -0.0819      0.0708
         9        -9.7165      8.6463     -2.6091     -1.2264
        10        36.3900     73.3172     -1.9038     35.9345
        11        -2.4055    -15.1887     -0.2061     -5.9334
        12        -8.4889     -3.6488      0.9063     -3.7438
        13        -2.9080     -1.0723      0.2982     -1.2274
        14        -1.1362     -9.0709     -6.9281     -5.7117
        15       -15.2468     -3.8571      1.1334     -5.9902
  1/2[<0|del|b>*<b|r|0> + (<0|r|b>*<b|del|0>)*] (Au)
       state          X           Y           Z        Dip. S.   Osc.(frdel)
         1        -0.0591     -0.0100     -0.0002      0.0693      0.0462
         2         0.0000      0.0000      0.0000      0.0000      0.0000
         3         0.0000     -0.0046     -0.0002      0.0048      0.0032
         4         0.0000     -0.0003     -0.0016      0.0020      0.0013
         5         0.0000     -0.0001     -0.0080      0.0081      0.0054
         6        -0.0179     -0.3395     -0.0024      0.3598      0.2399
         7        -0.0006     -0.0428     -0.0162      0.0595      0.0397
         8         0.0000     -0.0003     -0.0042      0.0044      0.0030
         9        -0.0894     -0.0747     -0.0018      0.1659      0.1106
        10        -0.0003     -0.0092     -0.0013      0.0107      0.0072
        11        -0.0002     -0.0004      0.0005      0.0002      0.0001
        12        -0.0002     -0.0006      0.0044     -0.0036     -0.0024
        13         0.0000      0.0000     -0.0007      0.0007      0.0004
        14        -0.0001     -0.0003     -0.0084      0.0087      0.0058
        15        -0.0002     -0.0001     -0.0025      0.0028      0.0019

 Excitation energies and oscillator strengths:
 
 Excited State   1:      Singlet-A      4.5186 eV  274.39 nm  f=0.0899  <S**2>=0.000
      12 -> 15         0.18221
      13 -> 14         0.67173
 This state for optimization and/or second-order correction.
 Total Energy, E(CIS) =  0.196086913656    
 Copying the excited state density for this state as the 1-particle RhoCI density.
 
 Excited State   2:      Singlet-A      5.1394 eV  241.24 nm  f=0.0001  <S**2>=0.000
      13 -> 16         0.68291
 
 Excited State   3:      Singlet-A      5.2760 eV  235.00 nm  f=0.0077  <S**2>=0.000
      12 -> 14        -0.41381
      13 -> 15         0.56475
 
 Excited State   4:      Singlet-A      5.8431 eV  212.19 nm  f=0.0009  <S**2>=0.000
      12 -> 18         0.14249
      13 -> 18         0.56132
      13 -> 22        -0.30641
      13 -> 23         0.14976
 
 Excited State   5:      Singlet-A      5.9369 eV  208.84 nm  f=0.0015  <S**2>=0.000
       7 -> 16        -0.17497
      12 -> 16         0.65198
      12 -> 22         0.10233
      13 -> 16        -0.10231
 
 Excited State   6:      Singlet-A      6.2460 eV  198.50 nm  f=0.2801  <S**2>=0.000
      11 -> 16        -0.12779
      12 -> 14         0.50890
      13 -> 15         0.37012
      13 -> 17         0.17518
 
 Excited State   7:      Singlet-A      6.3749 eV  194.49 nm  f=0.0355  <S**2>=0.000
      12 -> 14        -0.14705
      12 -> 19         0.11317
      13 -> 15        -0.12762
      13 -> 17         0.58847
      13 -> 19         0.19052
      13 -> 20         0.10803
      13 -> 23         0.13335
 
 Excited State   8:      Singlet-A      6.5743 eV  188.59 nm  f=0.0010  <S**2>=0.000
      12 -> 17         0.10620
      12 -> 19        -0.22121
      12 -> 22         0.14584
      12 -> 23         0.17663
      12 -> 24         0.12566
      13 -> 19         0.49797
      13 -> 22        -0.18828
      13 -> 23        -0.18778
 
 Excited State   9:      Singlet-A      6.6398 eV  186.73 nm  f=0.1266  <S**2>=0.000
      12 -> 15         0.66237
      13 -> 14        -0.16313
 
 Excited State  10:      Singlet-A      6.9818 eV  177.58 nm  f=0.0078  <S**2>=0.000
      10 -> 14         0.35263
      10 -> 15         0.18791
      11 -> 14         0.53245
 
 Excited State  11:      Singlet-A      7.1776 eV  172.74 nm  f=0.0005  <S**2>=0.000
       7 -> 24        -0.10022
      12 -> 17         0.53471
      12 -> 18        -0.19659
      12 -> 19         0.25175
      12 -> 20         0.12602
      13 -> 17        -0.15225
      13 -> 18         0.10426
 
 Excited State  12:      Singlet-A      7.3537 eV  168.60 nm  f=0.0023  <S**2>=0.000
      11 -> 14         0.11130
      12 -> 17         0.20470
      12 -> 19        -0.30759
      12 -> 20         0.10568
      12 -> 23         0.15353
      13 -> 19        -0.29887
      13 -> 20         0.33755
      13 -> 24        -0.22392
 
 Excited State  13:      Singlet-A      7.5788 eV  163.59 nm  f=0.0001  <S**2>=0.000
       9 -> 14        -0.13393
      10 -> 14         0.50884
      10 -> 15         0.13502
      11 -> 14        -0.38347
      13 -> 17         0.10934
 
 Excited State  14:      Singlet-A      7.7180 eV  160.64 nm  f=0.0064  <S**2>=0.000
      11 -> 15         0.10039
      13 -> 18         0.29883
      13 -> 21         0.21447
      13 -> 22         0.48822
      13 -> 23        -0.20443
 
 Excited State  15:      Singlet-A      7.8951 eV  157.04 nm  f=0.0011  <S**2>=0.000
       8 -> 14         0.11757
       9 -> 14         0.33304
       9 -> 15        -0.23112
      10 -> 14         0.12523
      10 -> 15        -0.30365
      11 -> 15         0.27865
      12 -> 18        -0.10761
      13 -> 19        -0.11783
      13 -> 20         0.16413
      13 -> 22        -0.14355
      13 -> 24         0.12411
 SavETr:  write IOETrn=   770 NScale= 10 NData=  16 NLR=1 NState=   15 LETran=     280.
 The selected state is a singlet
 CISAX will form     1 AO SS matrices at one time.
 NMat=     1 NSing=     1 JSym2X= 0.
 Leave Link  914 at Fri Dec 11 13:18:13 2015, MaxMem=    33554432 cpu:         0.1
 (Enter /home/Applications/g09/g09/l1002.exe)
 Minotr:  Closed shell wavefunction.
          Computing CIS/TD-HF/TD-KS derivatives.
          Using Z-Vector for PSCF gradient.
          Skipping F1 and S1 gradient terms here.
          IDoAtm=111111111
          Direct CPHF calculation.
          Differentiating once with respect to electric field.
                with respect to dipole field.
          Differentiating once with respect to nuclear coordinates.
          Electric field/nuclear overlap derivatives assumed to be zero.
          Requested convergence is 1.0D-10 RMS, and 1.0D-09 maximum.
          NewPWx=T KeepS1=F KeepF1=F KeepIn=T MapXYZ=F SortEE=F KeepMc=T.
          MDV=      33495423 using IRadAn=       0.
 Keep J ints in memory in canonical form, NReq=871704.
 FoFCou: FMM=F IPFlag=           0 FMFlag=           0 FMFlg1=           0
         NFxFlg=           0 DoJE=F BraDBF=F KetDBF=F FulRan=T
         wScrn=  0.000000 ICntrl=     600 IOpCl=  2 I1Cent=           0 NGrid=           0
         NMat0=    1 NMatS0=     54 NMatT0=    0 NMatD0=    1 NMtDS0=    0 NMtDT0=    0
 Symmetry not used in FoFCou.
          Solving linear equations separately, MaxMat=       0.
          There are     1 degrees of freedom in the 1st order CPHF.  IDoFFX=0 NUNeed=     1.
 LinEq1:  Iter=  0 NonCon=     1 RMS=1.21D-02 Max=9.12D-02 NDo=     1
 AX will form     1 AO Fock derivatives at one time.
 LinEq1:  Iter=  1 NonCon=     1 RMS=2.80D-03 Max=1.70D-02 NDo=     1
 LinEq1:  Iter=  2 NonCon=     1 RMS=3.69D-04 Max=2.22D-03 NDo=     1
 LinEq1:  Iter=  3 NonCon=     1 RMS=4.74D-05 Max=1.85D-04 NDo=     1
 LinEq1:  Iter=  4 NonCon=     1 RMS=5.77D-06 Max=2.99D-05 NDo=     1
 LinEq1:  Iter=  5 NonCon=     1 RMS=7.11D-07 Max=3.48D-06 NDo=     1
 LinEq1:  Iter=  6 NonCon=     1 RMS=9.91D-08 Max=5.02D-07 NDo=     1
 LinEq1:  Iter=  7 NonCon=     1 RMS=1.25D-08 Max=6.22D-08 NDo=     1
 LinEq1:  Iter=  8 NonCon=     1 RMS=1.57D-09 Max=5.25D-09 NDo=     1
 LinEq1:  Iter=  9 NonCon=     1 RMS=1.77D-10 Max=6.46D-10 NDo=     1
 LinEq1:  Iter= 10 NonCon=     0 RMS=1.75D-11 Max=5.91D-11 NDo=     1
 Linear equations converged to 1.000D-10 1.000D-09 after    10 iterations.
 End of Minotr F.D. properties file   721 does not exist.
 End of Minotr F.D. properties file   722 does not exist.
 End of Minotr F.D. properties file   788 does not exist.
 Leave Link 1002 at Fri Dec 11 13:18:13 2015, MaxMem=    33554432 cpu:         0.0
 (Enter /home/Applications/g09/g09/l601.exe)
 Copying SCF densities to generalized density rwf, IOpCl= 0 IROHF=0.

 **********************************************************************

            Population analysis using the SCF density.

 **********************************************************************

 Orbital symmetries:
       Occupied  (A) (A) (A) (A) (A) (A) (A) (A) (A) (A) (A) (A)
                 (A)
       Virtual   (A) (A) (A) (A) (A) (A) (A) (A) (A) (A) (A)
 The electronic state is 1-A.
 Alpha  occ. eigenvalues --   -1.53998  -1.23916  -1.11112  -0.82530  -0.81506
 Alpha  occ. eigenvalues --   -0.68345  -0.58475  -0.56043  -0.52436  -0.50547
 Alpha  occ. eigenvalues --   -0.49478  -0.40427  -0.35203
 Alpha virt. eigenvalues --    0.02827   0.06530   0.09712   0.13526   0.14775
 Alpha virt. eigenvalues --    0.15675   0.17990   0.18955   0.19250   0.20826
 Alpha virt. eigenvalues --    0.21582
     Molecular Orbital Coefficients:
                           1         2         3         4         5
                           O         O         O         O         O
     Eigenvalues --    -1.53998  -1.23916  -1.11112  -0.82530  -0.81506
   1 1   C  1S          0.33469  -0.49609  -0.21310  -0.02026   0.40347
   2        1PX         0.08282  -0.04539   0.16001  -0.23058  -0.08720
   3        1PY        -0.10849   0.03907   0.16041  -0.24767   0.21066
   4        1PZ        -0.00374   0.00594   0.00273  -0.00438  -0.00326
   5 2   C  1S          0.37448  -0.21057  -0.47217   0.23740  -0.34640
   6        1PX         0.16002   0.08528   0.00677  -0.18339  -0.03879
   7        1PY         0.04794  -0.22708  -0.01028   0.14806   0.30676
   8        1PZ         0.00470   0.00004  -0.00532  -0.00507  -0.00053
   9 3   O  1S          0.59744   0.63228  -0.13088  -0.25117   0.15178
  10        1PX        -0.01738   0.06096   0.26706   0.26173   0.41844
  11        1PY         0.18968   0.00530   0.05894   0.16289  -0.04428
  12        1PZ        -0.00707  -0.00339  -0.00065  -0.00970   0.00564
  13 4   C  1S          0.37082   0.01290   0.51891   0.41842  -0.09050
  14        1PX        -0.17365  -0.03076   0.00837   0.13753  -0.05771
  15        1PY        -0.03326  -0.22326   0.09681  -0.19888  -0.30420
  16        1PZ         0.00590   0.00365   0.00468   0.00004   0.00749
  17 5   C  1S          0.30686  -0.36597   0.40694  -0.39358  -0.14483
  18        1PX        -0.05085   0.10120   0.15556   0.10598  -0.26981
  19        1PY        -0.12413   0.01854  -0.09285  -0.20952   0.07862
  20        1PZ         0.00173  -0.00238   0.00189  -0.00974   0.00257
  21 6   H  1S          0.07078  -0.11821   0.16474  -0.24691  -0.10077
  22 7   H  1S          0.08882   0.02122   0.20516   0.30458  -0.01559
  23 8   H  1S          0.08511  -0.05141  -0.18670   0.12932  -0.25108
  24 9   H  1S          0.08249  -0.17608  -0.08337  -0.02793   0.30328
                           6         7         8         9        10
                           O         O         O         O         O
     Eigenvalues --    -0.68345  -0.58475  -0.56043  -0.52436  -0.50547
   1 1   C  1S         -0.05779   0.00263  -0.14981   0.00435  -0.01298
   2        1PX         0.24704  -0.00807  -0.00555  -0.01370   0.46778
   3        1PY        -0.21052  -0.04145  -0.12921   0.51188   0.02360
   4        1PZ        -0.00142   0.26578  -0.00240   0.02013   0.01719
   5 2   C  1S         -0.08720  -0.00230   0.12168  -0.02277   0.09624
   6        1PX         0.33133  -0.00159  -0.39501  -0.13055   0.06148
   7        1PY         0.16650   0.03522   0.03060  -0.48578  -0.16192
   8        1PZ         0.00342   0.37871  -0.01638   0.01709   0.00422
   9 3   O  1S         -0.18308   0.01055  -0.01600  -0.12123  -0.12392
  10        1PX        -0.03999   0.00099   0.48274  -0.05687   0.02336
  11        1PY         0.44283   0.01231   0.12285   0.27390   0.13620
  12        1PZ        -0.01120   0.75397  -0.00490   0.04792  -0.00623
  13 4   C  1S         -0.06571  -0.00880  -0.13382   0.10675  -0.03483
  14        1PX        -0.37291   0.01889  -0.40863  -0.21763   0.23641
  15        1PY         0.01741   0.01463  -0.15095  -0.00080  -0.43173
  16        1PZ        -0.00093   0.38997   0.01646   0.03076   0.01655
  17 5   C  1S         -0.09427  -0.00563   0.16155  -0.04069   0.04229
  18        1PX        -0.17033   0.02333   0.09384  -0.17028  -0.44396
  19        1PY        -0.28255   0.00307   0.17784  -0.20419   0.31164
  20        1PZ        -0.00733   0.24432   0.01392   0.01088   0.03196
  21 6   H  1S         -0.25211   0.01593   0.24264  -0.22880   0.07699
  22 7   H  1S         -0.25539   0.00680  -0.32635  -0.08667   0.29000
  23 8   H  1S         -0.26538  -0.02058   0.27332   0.31421   0.12180
  24 9   H  1S         -0.23276  -0.02101  -0.16009   0.31231  -0.24645
                          11        12        13        14        15
                           O         O         O         V         V
     Eigenvalues --    -0.49478  -0.40427  -0.35203   0.02827   0.06530
   1 1   C  1S         -0.03377   0.01810  -0.00076  -0.00892   0.01349
   2        1PX        -0.32641  -0.00344   0.00088  -0.00820  -0.00582
   3        1PY         0.08782  -0.00662   0.00367  -0.00614   0.00539
   4        1PZ         0.01130   0.64341  -0.20522  -0.27176   0.63041
   5 2   C  1S          0.03245  -0.00947   0.00463  -0.00266   0.00671
   6        1PX         0.27339  -0.01170   0.01664  -0.00856   0.01290
   7        1PY        -0.00128  -0.00765   0.00458  -0.00616   0.00393
   8        1PZ         0.00737   0.36184  -0.50170   0.49060  -0.48114
   9 3   O  1S         -0.12236  -0.00142   0.00107  -0.00237   0.00522
  10        1PX        -0.15403   0.00359  -0.00426   0.00154   0.01263
  11        1PY         0.54286  -0.03486  -0.01580  -0.00365   0.01436
  12        1PZ        -0.03389  -0.53228  -0.16761  -0.33871   0.02359
  13 4   C  1S          0.00384   0.00538  -0.00760  -0.01392  -0.01703
  14        1PX        -0.01652  -0.01210   0.00931   0.00327   0.01263
  15        1PY        -0.18935   0.00801   0.02029   0.00423   0.01814
  16        1PZ         0.00403  -0.01654   0.59418   0.62689   0.31390
  17 5   C  1S         -0.07031  -0.00734  -0.01334   0.02090   0.01402
  18        1PX         0.27334   0.00746   0.00834  -0.00501   0.01147
  19        1PY         0.39897  -0.02891  -0.03019   0.01198   0.02245
  20        1PZ         0.02161   0.41017   0.56799  -0.41969  -0.51831
  21 6   H  1S          0.35171  -0.00613  -0.00275  -0.01721  -0.02373
  22 7   H  1S          0.04154  -0.01141   0.00209   0.01154   0.01078
  23 8   H  1S         -0.15562   0.00129  -0.00666  -0.00257   0.00069
  24 9   H  1S          0.22132  -0.00361   0.00752   0.00259  -0.01400
                          16        17        18        19        20
                           V         V         V         V         V
     Eigenvalues --     0.09712   0.13526   0.14775   0.15675   0.17990
   1 1   C  1S          0.04156   0.26071   0.16231  -0.17832   0.14248
   2        1PX        -0.08495   0.36191  -0.10902   0.24127   0.33146
   3        1PY         0.02239   0.00187   0.09552   0.31411   0.18845
   4        1PZ        -0.00881  -0.01247  -0.00231  -0.00322   0.00035
   5 2   C  1S         -0.27197  -0.25379  -0.05667   0.39828   0.18619
   6        1PX        -0.41650   0.29874  -0.17279  -0.03324  -0.32442
   7        1PY         0.29181   0.09056   0.01945   0.14637  -0.10794
   8        1PZ        -0.00398   0.01330  -0.00733   0.01878   0.00050
   9 3   O  1S          0.22238   0.02612  -0.00065   0.06216   0.04532
  10        1PX        -0.18510   0.13737  -0.23416   0.25755   0.02144
  11        1PY         0.48551   0.07325  -0.06463   0.14663   0.09288
  12        1PZ        -0.02702  -0.00777  -0.00182  -0.00909  -0.00758
  13 4   C  1S         -0.20101   0.02139   0.53671   0.02099  -0.11141
  14        1PX         0.14728   0.23732   0.01982   0.33966  -0.02430
  15        1PY         0.32694   0.08876   0.11373   0.20847   0.11089
  16        1PZ        -0.01876   0.00297   0.02272  -0.01480   0.00467
  17 5   C  1S          0.06358  -0.28034  -0.27030   0.07952  -0.37148
  18        1PX        -0.10336   0.35329  -0.26753   0.16811   0.12597
  19        1PY         0.06452  -0.02792   0.29776   0.25581  -0.31516
  20        1PZ         0.02166  -0.01541  -0.00823   0.02334  -0.03104
  21 6   H  1S         -0.11047   0.11865   0.12028  -0.38503   0.47907
  22 7   H  1S          0.25586  -0.22052  -0.45249  -0.24854   0.13461
  23 8   H  1S          0.19234   0.53085  -0.07307  -0.24747  -0.37793
  24 9   H  1S         -0.18534   0.01665  -0.31672   0.08194  -0.04026
                          21        22        23        24
                           V         V         V         V
     Eigenvalues --     0.18955   0.19250   0.20826   0.21582
   1 1   C  1S         -0.38789   0.21413   0.22241   0.10789
   2        1PX         0.18350  -0.11602   0.30559  -0.24339
   3        1PY        -0.35851  -0.21581  -0.38972  -0.22654
   4        1PZ         0.02429  -0.00704  -0.00855  -0.01068
   5 2   C  1S         -0.06259  -0.13224  -0.16223   0.01052
   6        1PX        -0.13508  -0.21021  -0.23375   0.23217
   7        1PY         0.12580  -0.32040  -0.31544  -0.43930
   8        1PZ        -0.01050  -0.01194  -0.01202   0.00612
   9 3   O  1S          0.05181   0.04034  -0.00664   0.02615
  10        1PX        -0.07392  -0.05653  -0.09267   0.47615
  11        1PY         0.07640   0.18672  -0.01375   0.12024
  12        1PZ        -0.00691  -0.00306   0.00305  -0.00331
  13 4   C  1S          0.11626  -0.07190   0.08164  -0.08466
  14        1PX         0.19191   0.46214  -0.25778   0.15824
  15        1PY         0.05977  -0.35955   0.08789   0.48702
  16        1PZ         0.00791  -0.00185  -0.00111  -0.01619
  17 5   C  1S         -0.05530   0.26539  -0.08345  -0.07537
  18        1PX        -0.33006   0.15151   0.26287  -0.29545
  19        1PY        -0.07382  -0.26930   0.41550   0.06875
  20        1PZ        -0.01436  -0.00160   0.01203   0.00849
  21 6   H  1S          0.22377  -0.06793  -0.30608   0.10154
  22 7   H  1S         -0.19824  -0.36206   0.13874   0.05195
  23 8   H  1S          0.03220  -0.17948  -0.16233  -0.06559
  24 9   H  1S          0.61039  -0.08967   0.21629  -0.06352
     Density Matrix:
                           1         2         3         4         5
   1 1   C  1S          1.18836
   2        1PX        -0.04602   0.96396
   3        1PY         0.06076  -0.04384   0.95564
   4        1PZ         0.01284   0.00071  -0.00449   1.05530
   5 2   C  1S          0.34006  -0.09388  -0.52017  -0.02023   1.23447
   6        1PX         0.05415   0.16312  -0.07113  -0.01702  -0.10066
   7        1PY         0.47487  -0.15243  -0.56151  -0.02519  -0.03169
   8        1PZ         0.02507  -0.00744  -0.01853   0.87390  -0.01083
   9 3   O  1S         -0.00259  -0.03415  -0.00493  -0.00444   0.08212
  10        1PX         0.01055  -0.01782  -0.05138  -0.00298  -0.33509
  11        1PY        -0.07272  -0.03462   0.04214  -0.00787   0.19429
  12        1PZ        -0.00556   0.00311   0.00034  -0.21431  -0.01152
  13 4   C  1S         -0.02629  -0.01977   0.01281   0.00652   0.01108
  14        1PX         0.01684  -0.01864  -0.00775  -0.00719   0.00044
  15        1PY        -0.01188  -0.07974  -0.03277  -0.00687  -0.04114
  16        1PZ        -0.00034   0.00706   0.00501  -0.05607   0.00354
  17 5   C  1S          0.25967   0.45937   0.11571  -0.00928  -0.02565
  18        1PX        -0.43923  -0.64439  -0.19910   0.00592   0.00205
  19        1PY        -0.04841  -0.07384   0.08416  -0.00974   0.02093
  20        1PZ         0.01494   0.01112   0.00036   0.42657   0.00221
  21 6   H  1S         -0.04830  -0.07217  -0.01854   0.00443   0.05090
  22 7   H  1S          0.04187   0.06468   0.01450  -0.00408   0.04706
  23 8   H  1S         -0.06148   0.01624   0.09060   0.00444   0.60889
  24 9   H  1S          0.58009  -0.53350   0.57139  -0.01327  -0.05413
                           6         7         8         9        10
   6        1PX         0.85970
   7        1PY         0.09098   0.92434
   8        1PZ        -0.00774  -0.00259   1.05356
   9 3   O  1S          0.21849  -0.11138   0.00760   1.87774
  10        1PX        -0.59461   0.36367  -0.01857   0.02685   1.16222
  11        1PY         0.44479  -0.11973   0.01702  -0.27612  -0.03517
  12        1PZ        -0.03061   0.01270   0.35526   0.01356  -0.00091
  13 4   C  1S          0.01323  -0.03587   0.00602   0.09584   0.27032
  14        1PX         0.04643  -0.01019  -0.00171  -0.18689  -0.29349
  15        1PY         0.02396  -0.01058  -0.00391  -0.18753  -0.44201
  16        1PZ         0.00349   0.00202  -0.31210   0.00949   0.01662
  17 5   C  1S         -0.01607  -0.01403  -0.00154  -0.00309   0.02666
  18        1PX        -0.06250   0.07095   0.00200   0.03563  -0.05447
  19        1PY         0.01463  -0.01860   0.00734   0.00103   0.02234
  20        1PZ         0.00914  -0.00652  -0.08749  -0.00417   0.00393
  21 6   H  1S          0.00587   0.05070   0.00024   0.02062   0.03324
  22 7   H  1S          0.09421  -0.03887  -0.00059  -0.03534  -0.02867
  23 8   H  1S         -0.55613  -0.49789  -0.00753  -0.03595   0.05165
  24 9   H  1S         -0.03624  -0.04545  -0.00895   0.02496  -0.08097
                          11        12        13        14        15
  11        1PY         1.33809
  12        1PZ         0.03114   1.76741
  13 4   C  1S          0.30804  -0.01841   1.25045
  14        1PX        -0.51771   0.02725   0.09935   0.92714
  15        1PY        -0.38755   0.02825   0.02475  -0.07910   0.87687
  16        1PZ         0.02310   0.40877  -0.00691   0.00469   0.00872
  17 5   C  1S         -0.08500   0.00828   0.29453  -0.19076   0.40376
  18        1PX         0.01309  -0.00723   0.25735  -0.01930   0.35729
  19        1PY         0.06964   0.00632  -0.45012   0.26240  -0.46747
  20        1PZ        -0.00802  -0.25922  -0.01645   0.01024   0.00014
  21 6   H  1S          0.08825  -0.00875  -0.05160   0.04397  -0.04159
  22 7   H  1S         -0.07015   0.00813   0.61929   0.68809  -0.26359
  23 8   H  1S         -0.05782   0.00629   0.04130  -0.06538  -0.05688
  24 9   H  1S          0.08190  -0.00147   0.05104  -0.01781   0.05193
                          16        17        18        19        20
  16        1PZ         1.01405
  17 5   C  1S         -0.01362   1.22644
  18        1PX         0.00587   0.01577   0.92071
  19        1PY        -0.02622   0.07563   0.04043   0.97131
  20        1PZ         0.85438  -0.00800   0.00831  -0.01108   1.10501
  21 6   H  1S          0.00910   0.58917   0.35603   0.68652   0.03095
  22 7   H  1S          0.00541  -0.06080  -0.04727   0.08867   0.00442
  23 8   H  1S          0.00272   0.05418  -0.07383  -0.01123  -0.00115
  24 9   H  1S          0.00412  -0.03935   0.04226   0.01754  -0.00222
                          21        22        23        24
  21 6   H  1S          0.84390
  22 7   H  1S          0.01216   0.81738
  23 8   H  1S         -0.01926  -0.01699   0.81576
  24 9   H  1S         -0.00767  -0.00898   0.00789   0.85019
    Full Mulliken population analysis:
                           1         2         3         4         5
   1 1   C  1S          1.18836
   2        1PX         0.00000   0.96396
   3        1PY         0.00000   0.00000   0.95564
   4        1PZ         0.00000   0.00000   0.00000   1.05530
   5 2   C  1S          0.00000   0.00000   0.00000   0.00000   1.23447
   6        1PX         0.00000   0.00000   0.00000   0.00000   0.00000
   7        1PY         0.00000   0.00000   0.00000   0.00000   0.00000
   8        1PZ         0.00000   0.00000   0.00000   0.00000   0.00000
   9 3   O  1S          0.00000   0.00000   0.00000   0.00000   0.00000
  10        1PX         0.00000   0.00000   0.00000   0.00000   0.00000
  11        1PY         0.00000   0.00000   0.00000   0.00000   0.00000
  12        1PZ         0.00000   0.00000   0.00000   0.00000   0.00000
  13 4   C  1S          0.00000   0.00000   0.00000   0.00000   0.00000
  14        1PX         0.00000   0.00000   0.00000   0.00000   0.00000
  15        1PY         0.00000   0.00000   0.00000   0.00000   0.00000
  16        1PZ         0.00000   0.00000   0.00000   0.00000   0.00000
  17 5   C  1S          0.00000   0.00000   0.00000   0.00000   0.00000
  18        1PX         0.00000   0.00000   0.00000   0.00000   0.00000
  19        1PY         0.00000   0.00000   0.00000   0.00000   0.00000
  20        1PZ         0.00000   0.00000   0.00000   0.00000   0.00000
  21 6   H  1S          0.00000   0.00000   0.00000   0.00000   0.00000
  22 7   H  1S          0.00000   0.00000   0.00000   0.00000   0.00000
  23 8   H  1S          0.00000   0.00000   0.00000   0.00000   0.00000
  24 9   H  1S          0.00000   0.00000   0.00000   0.00000   0.00000
                           6         7         8         9        10
   6        1PX         0.85970
   7        1PY         0.00000   0.92434
   8        1PZ         0.00000   0.00000   1.05356
   9 3   O  1S          0.00000   0.00000   0.00000   1.87774
  10        1PX         0.00000   0.00000   0.00000   0.00000   1.16222
  11        1PY         0.00000   0.00000   0.00000   0.00000   0.00000
  12        1PZ         0.00000   0.00000   0.00000   0.00000   0.00000
  13 4   C  1S          0.00000   0.00000   0.00000   0.00000   0.00000
  14        1PX         0.00000   0.00000   0.00000   0.00000   0.00000
  15        1PY         0.00000   0.00000   0.00000   0.00000   0.00000
  16        1PZ         0.00000   0.00000   0.00000   0.00000   0.00000
  17 5   C  1S          0.00000   0.00000   0.00000   0.00000   0.00000
  18        1PX         0.00000   0.00000   0.00000   0.00000   0.00000
  19        1PY         0.00000   0.00000   0.00000   0.00000   0.00000
  20        1PZ         0.00000   0.00000   0.00000   0.00000   0.00000
  21 6   H  1S          0.00000   0.00000   0.00000   0.00000   0.00000
  22 7   H  1S          0.00000   0.00000   0.00000   0.00000   0.00000
  23 8   H  1S          0.00000   0.00000   0.00000   0.00000   0.00000
  24 9   H  1S          0.00000   0.00000   0.00000   0.00000   0.00000
                          11        12        13        14        15
  11        1PY         1.33809
  12        1PZ         0.00000   1.76741
  13 4   C  1S          0.00000   0.00000   1.25045
  14        1PX         0.00000   0.00000   0.00000   0.92714
  15        1PY         0.00000   0.00000   0.00000   0.00000   0.87687
  16        1PZ         0.00000   0.00000   0.00000   0.00000   0.00000
  17 5   C  1S          0.00000   0.00000   0.00000   0.00000   0.00000
  18        1PX         0.00000   0.00000   0.00000   0.00000   0.00000
  19        1PY         0.00000   0.00000   0.00000   0.00000   0.00000
  20        1PZ         0.00000   0.00000   0.00000   0.00000   0.00000
  21 6   H  1S          0.00000   0.00000   0.00000   0.00000   0.00000
  22 7   H  1S          0.00000   0.00000   0.00000   0.00000   0.00000
  23 8   H  1S          0.00000   0.00000   0.00000   0.00000   0.00000
  24 9   H  1S          0.00000   0.00000   0.00000   0.00000   0.00000
                          16        17        18        19        20
  16        1PZ         1.01405
  17 5   C  1S          0.00000   1.22644
  18        1PX         0.00000   0.00000   0.92071
  19        1PY         0.00000   0.00000   0.00000   0.97131
  20        1PZ         0.00000   0.00000   0.00000   0.00000   1.10501
  21 6   H  1S          0.00000   0.00000   0.00000   0.00000   0.00000
  22 7   H  1S          0.00000   0.00000   0.00000   0.00000   0.00000
  23 8   H  1S          0.00000   0.00000   0.00000   0.00000   0.00000
  24 9   H  1S          0.00000   0.00000   0.00000   0.00000   0.00000
                          21        22        23        24
  21 6   H  1S          0.84390
  22 7   H  1S          0.00000   0.81738
  23 8   H  1S          0.00000   0.00000   0.81576
  24 9   H  1S          0.00000   0.00000   0.00000   0.85019
     Gross orbital populations:
                           1
   1 1   C  1S          1.18836
   2        1PX         0.96396
   3        1PY         0.95564
   4        1PZ         1.05530
   5 2   C  1S          1.23447
   6        1PX         0.85970
   7        1PY         0.92434
   8        1PZ         1.05356
   9 3   O  1S          1.87774
  10        1PX         1.16222
  11        1PY         1.33809
  12        1PZ         1.76741
  13 4   C  1S          1.25045
  14        1PX         0.92714
  15        1PY         0.87687
  16        1PZ         1.01405
  17 5   C  1S          1.22644
  18        1PX         0.92071
  19        1PY         0.97131
  20        1PZ         1.10501
  21 6   H  1S          0.84390
  22 7   H  1S          0.81738
  23 8   H  1S          0.81576
  24 9   H  1S          0.85019
          Condensed to atoms (all electrons):
               1          2          3          4          5          6
     1  C    4.163259   0.000000   0.000000   0.000000   0.000000   0.000000
     2  C    0.000000   4.072065   0.000000   0.000000   0.000000   0.000000
     3  O    0.000000   0.000000   6.145463   0.000000   0.000000   0.000000
     4  C    0.000000   0.000000   0.000000   4.068515   0.000000   0.000000
     5  C    0.000000   0.000000   0.000000   0.000000   4.223475   0.000000
     6  H    0.000000   0.000000   0.000000   0.000000   0.000000   0.843898
     7  H    0.000000   0.000000   0.000000   0.000000   0.000000   0.000000
     8  H    0.000000   0.000000   0.000000   0.000000   0.000000   0.000000
     9  H    0.000000   0.000000   0.000000   0.000000   0.000000   0.000000
               7          8          9
     1  C    0.000000   0.000000   0.000000
     2  C    0.000000   0.000000   0.000000
     3  O    0.000000   0.000000   0.000000
     4  C    0.000000   0.000000   0.000000
     5  C    0.000000   0.000000   0.000000
     6  H    0.000000   0.000000   0.000000
     7  H    0.817377   0.000000   0.000000
     8  H    0.000000   0.815763   0.000000
     9  H    0.000000   0.000000   0.850185
 Mulliken charges:
               1
     1  C   -0.163259
     2  C   -0.072065
     3  O   -0.145463
     4  C   -0.068515
     5  C   -0.223475
     6  H    0.156102
     7  H    0.182623
     8  H    0.184237
     9  H    0.149815
 Sum of Mulliken charges =   0.00000
 Mulliken charges with hydrogens summed into heavy atoms:
               1
     1  C   -0.013444
     2  C    0.112172
     3  O   -0.145463
     4  C    0.114107
     5  C   -0.067372
 Charge=              0.0000 electrons
 Dipole moment (field-independent basis, Debye):
    X=             -0.0935    Y=              0.4939    Z=              0.0167  Tot=              0.5030
 N-N= 1.034030595059D+02 E-N=-1.709091837793D+02  KE=-1.655653520961D+01
 Orbital energies and kinetic energies (alpha):
                                 1                 2
   1         O                -1.539983         -1.306566
   2         O                -1.239163         -1.045084
   3         O                -1.111119         -0.971351
   4         O                -0.825299         -0.727024
   5         O                -0.815060         -0.713791
   6         O                -0.683448         -0.603593
   7         O                -0.584753         -0.479076
   8         O                -0.560429         -0.495359
   9         O                -0.524362         -0.439365
  10         O                -0.505472         -0.417785
  11         O                -0.494779         -0.418684
  12         O                -0.404269         -0.344967
  13         O                -0.352032         -0.315622
  14         V                 0.028271         -0.199304
  15         V                 0.065303         -0.187778
  16         V                 0.097121         -0.178696
  17         V                 0.135260         -0.208133
  18         V                 0.147747         -0.208295
  19         V                 0.156753         -0.170286
  20         V                 0.179897         -0.191873
  21         V                 0.189554         -0.195652
  22         V                 0.192498         -0.125847
  23         V                 0.208258         -0.121994
  24         V                 0.215820         -0.058957
 Total kinetic energy from orbitals=-1.655653520961D+01
 Leave Link  601 at Fri Dec 11 13:18:13 2015, MaxMem=    33554432 cpu:         0.0
 (Enter /home/Applications/g09/g09/l701.exe)
 Compute integral first derivatives.
 ... and contract with generalized density number  6.
 Leave Link  701 at Fri Dec 11 13:18:13 2015, MaxMem=    33554432 cpu:         0.0
 (Enter /home/Applications/g09/g09/l702.exe)
 L702 exits ... SP integral derivatives will be done elsewhere.
 Leave Link  702 at Fri Dec 11 13:18:13 2015, MaxMem=    33554432 cpu:         0.0
 (Enter /home/Applications/g09/g09/l703.exe)
 Compute integral first derivatives, UseDBF=F ICtDFT=           0.
 Integral derivatives from FoFJK, PRISM(SPDF).
 Calling FoFJK, ICntrl=  10005127 FMM=F ISym2X=0 I1Cent= 0 IOpClX= 0 NMat=1 NMatS=1 NMatT=0.
 FoFJK:  IHMeth= 8 ICntrl=10005127 DoSepK=F KAlg= 0 I1Cent=   0 FoldK=F
 IRaf=         0 NMat=   1 IRICut=       1 DoRegI=T DoRafI=F ISym2E= 0.
 FoFCou: FMM=F IPFlag=           0 FMFlag=      100000 FMFlg1=         800
         NFxFlg=           0 DoJE=F BraDBF=F KetDBF=F FulRan=T
         wScrn=  0.000000 ICntrl=10005127 IOpCl=  0 I1Cent=           0 NGrid=           0
         NMat0=    1 NMatS0=      1 NMatT0=    0 NMatD0=    1 NMtDS0=    0 NMtDT0=    0
 Symmetry not used in FoFCou.
 Leave Link  703 at Fri Dec 11 13:18:13 2015, MaxMem=    33554432 cpu:         0.0
 (Enter /home/Applications/g09/g09/l716.exe)
 Dipole        = 8.47176224D-02 3.09261135D-01 1.21131904D-02
 ***** Axes restored to original set *****
 -------------------------------------------------------------------
 Center     Atomic                   Forces (Hartrees/Bohr)
 Number     Number              X              Y              Z
 -------------------------------------------------------------------
      1        6           0.154521141    0.094911756    0.005622255
      2        6          -0.168052490   -0.045348277   -0.003015933
      3        8          -0.039338915    0.000943001    0.000753137
      4        6          -0.052146614   -0.019040584   -0.000473271
      5        6           0.050866090   -0.036444868   -0.005211234
      6        1           0.027838116    0.008210171    0.001135514
      7        1          -0.016429660    0.041840472    0.000605276
      8        1          -0.006451031   -0.010937514    0.000966355
      9        1           0.049193363   -0.034134155   -0.000382099
 -------------------------------------------------------------------
 Cartesian Forces:  Max     0.168052490 RMS     0.053889344
 Z-matrix is all fixed cartesians, so copy forces.
 Force constants in Cartesian coordinates: 
                1             2             3             4             5 
      1  0.118573D+01
      2  0.152022D-01  0.824555D+00
      3  0.532513D-02 -0.123950D-02  0.262267D+00
      4 -0.705710D+00 -0.162700D+00  0.715361D-02  0.109430D+01
      5 -0.139111D+00 -0.259675D+00  0.353426D-02  0.151639D+00  0.819776D+00
      6  0.919951D-02  0.203767D-02 -0.154821D+00  0.147185D-02 -0.115973D-01
      7 -0.884232D-02  0.292848D-01 -0.126070D-02 -0.226564D+00  0.109353D+00
      8 -0.649627D-02  0.215183D-01 -0.549861D-03  0.151879D+00 -0.281742D+00
      9  0.534674D-03 -0.131602D-02  0.352325D-02 -0.914280D-02  0.796361D-02
     10  0.112245D-01 -0.493797D-03  0.538074D-04  0.223608D-01  0.165328D-01
     11  0.331349D-01 -0.147034D-02 -0.159073D-03 -0.171411D-01 -0.126779D-01
     12  0.136003D-02 -0.174632D-03  0.529236D-05  0.119812D-02  0.100743D-02
     13 -0.166831D+00  0.295976D-03  0.549180D-03  0.109025D-01 -0.362449D-01
     14 -0.215458D-01 -0.382098D+00 -0.953702D-02 -0.486231D-03  0.158892D-02
     15  0.762719D-03 -0.963002D-02 -0.788414D-01 -0.127384D-03  0.104899D-02
     16  0.184708D-01 -0.811200D-03 -0.481179D-03  0.663596D-05 -0.879064D-05
     17 -0.225254D-01  0.958443D-03  0.194006D-02 -0.201427D-05  0.266830D-05
     18 -0.205681D-02 -0.296101D-03  0.170173D-01  0.754565D-04 -0.999571D-04
     19  0.000000D+00  0.000000D+00  0.433274D-04  0.150387D-04  0.194614D-05
     20 -0.180004D-05 -0.399720D-05  0.178987D-03  0.283964D-05  0.000000D+00
     21 -0.699872D-04 -0.155415D-03  0.695920D-02 -0.259333D-03 -0.335600D-04
     22  0.800184D-02 -0.265412D-01  0.154962D-03 -0.189790D+00 -0.120419D+00
     23 -0.507630D-02  0.168429D-01  0.520776D-04 -0.114951D+00 -0.294628D+00
     24 -0.230332D-03  0.254507D-02  0.502210D-01 -0.116723D-02 -0.756856D-03
     25 -0.342047D+00  0.145765D+00 -0.115381D-01 -0.552130D-02  0.182569D-01
     26  0.146420D+00 -0.220627D+00  0.578007D-02 -0.823981D-02  0.273547D-01
     27 -0.148249D-01  0.822895D-02 -0.106330D+00  0.797703D-03 -0.106663D-02
                6             7             8             9            10 
      6  0.258687D+00
      7 -0.841371D-02  0.481622D+00
      8  0.904703D-02  0.482482D-01  0.604985D+00
      9 -0.439128D-01  0.242837D-01  0.699540D-02  0.490086D-01
     10  0.165380D-02 -0.278112D+00 -0.198709D+00 -0.165166D-01  0.908095D+00
     11 -0.123492D-02 -0.159095D+00 -0.347286D+00 -0.146673D-01 -0.616699D-01
     12 -0.165436D-02 -0.148174D-01 -0.157048D-01 -0.405168D-01  0.193748D-01
     13 -0.175315D-02 -0.938325D-02  0.717371D-02 -0.330894D-03 -0.459664D+00
     14  0.226450D-03 -0.277044D-01  0.211920D-01 -0.466896D-03  0.108118D+00
     15 -0.378446D-02 -0.180604D-02  0.571641D-03  0.520649D-02  0.139526D-02
     16  0.372927D-03 -0.166076D-05 -0.417680D-05  0.985880D-04 -0.630391D-02
     17 -0.113198D-03 -0.560210D-05 -0.140893D-04  0.332559D-03  0.763252D-02
     18  0.424050D-02 -0.954286D-04 -0.240003D-03  0.566495D-02  0.102422D-04
     19 -0.243155D-03  0.216316D-01 -0.165709D-01  0.974808D-03 -0.197606D+00
     20 -0.459129D-04  0.123816D-01 -0.949122D-02  0.671868D-03  0.128592D+00
     21  0.419304D-02  0.132039D-02 -0.129531D-02  0.519853D-02 -0.579524D-02
     22 -0.582366D-03  0.196505D-01  0.144823D-01  0.167155D-03  0.356383D-05
     23  0.115840D-02 -0.124621D-01 -0.918375D-02 -0.879504D-04 -0.268381D-05
     24 -0.107497D+00  0.794268D-03  0.811864D-03  0.603732D-02 -0.141359D-03
     25 -0.170571D-02  0.000000D+00 -0.255039D-05 -0.686010D-04  0.206342D-05
     26  0.521760D-03  0.000000D+00  0.213686D-04  0.574778D-03  0.000000D+00
     27  0.445496D-01 -0.506243D-05  0.363984D-03  0.979051D-02 -0.346888D-04
               11            12            13            14            15 
     11  0.899842D+00
     12  0.100916D-01  0.194554D+00
     13  0.866803D-01 -0.412515D-02  0.878606D+00
     14 -0.216108D+00  0.240694D-03  0.509041D-01  0.792990D+00
     15 -0.109770D-02 -0.999731D-01 -0.129884D-01 -0.167133D-02  0.195874D+00
     16 -0.185895D-01  0.189635D-02 -0.279016D+00 -0.134420D+00  0.133345D-01
     17  0.225218D-01 -0.336766D-03 -0.138914D+00 -0.231213D+00  0.923207D-02
     18  0.210630D-03  0.245573D-01  0.163107D-01  0.111621D-01 -0.767450D-01
     19  0.136676D+00 -0.462394D-02  0.877224D-02  0.258812D-01 -0.892171D-03
     20 -0.344823D+00  0.490245D-02  0.501329D-02  0.147960D-01  0.172492D-03
     21  0.695211D-02 -0.827076D-01  0.183713D-03  0.768184D-03  0.307679D-01
     22  0.000000D+00 -0.576221D-04  0.236797D-05 -0.313685D-05  0.133075D-03
     23  0.000000D+00  0.433935D-04  0.000000D+00  0.121350D-05 -0.514806D-04
     24 -0.182932D-04  0.228558D-02  0.195700D-03 -0.259244D-03  0.109980D-01
     25  0.458208D-05 -0.205177D-03  0.166119D-01 -0.743712D-03  0.188471D-03
     26  0.155080D-05 -0.694419D-04  0.250928D-01 -0.114939D-02  0.142535D-02
     27 -0.770305D-04  0.344929D-02  0.195828D-02 -0.462977D-03  0.164975D-01
               16            17            18            19            20 
     16  0.266815D+00
     17  0.153828D+00  0.207764D+00
     18 -0.145225D-01 -0.105760D-01  0.418698D-01
     19 -0.116981D-05 -0.394602D-05 -0.672183D-04  0.167189D+00
     20 -0.483254D-05 -0.163012D-04 -0.277682D-03 -0.145983D+00  0.339538D+00
     21 -0.187894D-03 -0.633806D-03 -0.107965D-01  0.480835D-02 -0.560221D-02
     22  0.000000D+00  0.000000D+00  0.000000D+00  0.000000D+00  0.000000D+00
     23  0.000000D+00  0.000000D+00  0.000000D+00  0.000000D+00  0.000000D+00
     24  0.000000D+00  0.000000D+00  0.000000D+00  0.000000D+00  0.000000D+00
     25  0.303847D-04 -0.922295D-05  0.345501D-03  0.000000D+00  0.000000D+00
     26  0.102837D-04 -0.312149D-05  0.116934D-03  0.000000D+00  0.000000D+00
     27 -0.510806D-03  0.155050D-03 -0.580830D-02  0.000000D+00  0.000000D+00
               21            22            23            24            25 
     21  0.463855D-01
     22  0.000000D+00  0.162130D+00
     23  0.000000D+00  0.132494D+00  0.286963D+00
     24  0.000000D+00  0.415407D-03 -0.120365D-02  0.570138D-01
     25  0.000000D+00  0.161586D-05  0.000000D+00  0.133542D-03  0.330923D+00
     26  0.000000D+00 -0.135386D-04  0.523745D-05 -0.111889D-02 -0.163270D+00
     27  0.000000D+00 -0.230610D-03  0.892123D-04 -0.190587D-01  0.128501D-01
               26            27 
     26  0.194397D+00
     27 -0.723056D-02  0.569103D-01
 Leave Link  716 at Fri Dec 11 13:18:13 2015, MaxMem=    33554432 cpu:         0.0
 (Enter /home/Applications/g09/g09/l103.exe)

 GradGradGradGradGradGradGradGradGradGradGradGradGradGradGradGradGradGrad
 Berny optimization.
 Search for a local minimum.
 Step number   1 out of a maximum of    2
 All quantities printed in internal units (Hartrees-Bohrs-Radians)
 Second derivative matrix not updated -- first step.
 ITU=  0
     Eigenvalues ---    0.01977   0.02951   0.07441   0.07657   0.08478
     Eigenvalues ---    0.09041   0.13378   0.15267   0.16630   0.24291
     Eigenvalues ---    0.28061   0.33360   0.47473   0.48694   0.66861
     Eigenvalues ---    0.88192   1.00178   1.32799   1.37879   1.53175
     Eigenvalues ---    2.00416
 Quadratic step=5.027D-01 exceeds max=3.000D-01 adjusted using Lamda=-1.797D-01.
 Angle between NR and scaled steps=  15.38 degrees.
 Angle between quadratic step and forces=  38.64 degrees.
 Linear search not attempted -- first point.
 TrRot= -0.012306  0.000241 -0.000363  0.936339  0.000540 -0.935450
 Variable       Old X    -DE/DX   Delta X   Delta X   Delta X     New X
                                 (Linear)    (Quad)   (Total)
    X1        1.73637   0.15452   0.00000   0.11880   0.10773   1.84410
    Y1       -1.43764   0.09491   0.00000   0.04171   0.04360  -1.39405
    Z1       -0.01606   0.00562   0.00000   0.01302   0.01267  -0.00338
    X2       -0.56721  -0.16805   0.00000  -0.08806  -0.09846  -0.66567
    Y2       -2.13200  -0.04535   0.00000  -0.00740  -0.00774  -2.13974
    Z2        0.00857  -0.00302   0.00000  -0.00741  -0.00663   0.00194
    X3       -2.18738  -0.03934   0.00000  -0.11108  -0.12347  -2.31085
    Y3        0.06731   0.00094   0.00000   0.00025  -0.00158   0.06573
    Z3       -0.07403   0.00075   0.00000   0.00384   0.00418  -0.06985
    X4       -0.60901  -0.05215   0.00000  -0.05474  -0.06892  -0.67792
    Y4        2.13442  -0.01904   0.00000  -0.02066  -0.02099   2.11343
    Z4        0.04013  -0.00047   0.00000  -0.00421  -0.00527   0.03486
    X5        1.85816   0.05087   0.00000   0.07430   0.06086   1.91902
    Y5        1.29840  -0.03644   0.00000  -0.00842  -0.00645   1.29196
    Z5        0.04627  -0.00521   0.00000  -0.01145  -0.01300   0.03328
    X6        3.39015   0.02784   0.00000   0.10029   0.08568   3.47583
    Y6        2.56385   0.00821   0.00000   0.01121   0.01453   2.57839
    Z6       -0.05468   0.00114   0.00000   0.00570   0.00310  -0.05158
    X7       -1.57698  -0.01643   0.00000  -0.02789  -0.04366  -1.62064
    Y7        3.82955   0.04184   0.00000   0.07517   0.07398   3.90354
    Z7        0.00256   0.00061   0.00000   0.00599   0.00444   0.00700
    X8       -1.65131  -0.00645   0.00000  -0.04558  -0.05444  -1.70575
    Y8       -3.84111  -0.01094   0.00000  -0.03967  -0.04093  -3.88204
    Z8        0.01369   0.00097   0.00000  -0.00347  -0.00160   0.01208
    X9        3.34293   0.04919   0.00000   0.14469   0.13468   3.47760
    Y9       -2.50699  -0.03413   0.00000  -0.05780  -0.05443  -2.56141
    Z9        0.05798  -0.00038   0.00000   0.00247   0.00211   0.06009
         Item               Value     Threshold  Converged?
 Maximum Force            0.168052     0.000450     NO 
 RMS     Force            0.053889     0.000300     NO 
 Maximum Displacement     0.134679     0.001800     NO 
 RMS     Displacement     0.057275     0.001200     NO 
 Predicted change in Energy=-4.090129D-02
 GradGradGradGradGradGradGradGradGradGradGradGradGradGradGradGradGradGrad

 Leave Link  103 at Fri Dec 11 13:18:13 2015, MaxMem=    33554432 cpu:         0.0
 (Enter /home/Applications/g09/g09/l9999.exe)
 1\1\GINC-DUSTIN-DESKTOP\Force\RAM1-FC\STO-3G\C4H4O1\DUSTIN\11-Dec-2015
 \0\\#P AM1(Input,print) CIS(Singlets,NStates=15) pop(full) force\\AM1-
 Reparam Input\\0,1\C,0.918849,-0.760767,-0.008496\C,-0.300155,-1.12820
 5,0.004534\O,-1.157509,0.035618,-0.039177\C,-0.322273,1.129487,0.02123
 6\C,0.983295,0.687086,0.024486\H,1.79399,1.356733,-0.028934\H,-0.83450
 3,2.026513,0.001354\H,-0.873835,-2.032627,0.007242\H,1.769,-1.32664,0.
 030682\\Version=ES64L-G09RevD.01\State=1-A\HF=0.0300323\RMSD=2.979e-09
 \RMSF=5.389e-02\Dipole=0.2932133,0.1301333,-0.0075857\PG=C01 [X(C4H4O1
 )]\\@


 YOU SHOULDN'T LET PEOPLE DRIVE YOU CRAZY
 WHEN YOU KNOW IT'S WITHIN WALKING DISTANCE.
 Job cpu time:       0 days  0 hours  0 minutes  0.7 seconds.
 File lengths (MBytes):  RWF=      7 Int=      0 D2E=      0 Chk=      2 Scr=      1
 Normal termination of Gaussian 09 at Fri Dec 11 13:18:13 2015.
