 Entering Gaussian System, Link 0=g09
 Input=FuranBestInput.com
 Output=FuranBestInput.log
 Initial command:
 /home/Applications/g09/g09/l1.exe "/home/Applications/g09/scratch/Gau-5248.inp" -scrdir="/home/Applications/g09/scratch/"
 Entering Link 1 = /home/Applications/g09/g09/l1.exe PID=      5250.
  
 Copyright (c) 1988,1990,1992,1993,1995,1998,2003,2009,2013,
            Gaussian, Inc.  All Rights Reserved.
  
 This is part of the Gaussian(R) 09 program.  It is based on
 the Gaussian(R) 03 system (copyright 2003, Gaussian, Inc.),
 the Gaussian(R) 98 system (copyright 1998, Gaussian, Inc.),
 the Gaussian(R) 94 system (copyright 1995, Gaussian, Inc.),
 the Gaussian 92(TM) system (copyright 1992, Gaussian, Inc.),
 the Gaussian 90(TM) system (copyright 1990, Gaussian, Inc.),
 the Gaussian 88(TM) system (copyright 1988, Gaussian, Inc.),
 the Gaussian 86(TM) system (copyright 1986, Carnegie Mellon
 University), and the Gaussian 82(TM) system (copyright 1983,
 Carnegie Mellon University). Gaussian is a federally registered
 trademark of Gaussian, Inc.
  
 This software contains proprietary and confidential information,
 including trade secrets, belonging to Gaussian, Inc.
  
 This software is provided under written license and may be
 used, copied, transmitted, or stored only in accord with that
 written license.
  
 The following legend is applicable only to US Government
 contracts under FAR:
  
                    RESTRICTED RIGHTS LEGEND
  
 Use, reproduction and disclosure by the US Government is
 subject to restrictions as set forth in subparagraphs (a)
 and (c) of the Commercial Computer Software - Restricted
 Rights clause in FAR 52.227-19.
  
 Gaussian, Inc.
 340 Quinnipiac St., Bldg. 40, Wallingford CT 06492
  
  
 ---------------------------------------------------------------
 Warning -- This program may not be used in any manner that
 competes with the business of Gaussian, Inc. or will provide
 assistance to any competitor of Gaussian, Inc.  The licensee
 of this program is prohibited from giving any competitor of
 Gaussian, Inc. access to this program.  By using this program,
 the user acknowledges that Gaussian, Inc. is engaged in the
 business of creating and licensing software in the field of
 computational chemistry and represents and warrants to the
 licensee that it is not a competitor of Gaussian, Inc. and that
 it will not use this program in any manner prohibited above.
 ---------------------------------------------------------------
  

 Cite this work as:
 Gaussian 09, Revision D.01,
 M. J. Frisch, G. W. Trucks, H. B. Schlegel, G. E. Scuseria, 
 M. A. Robb, J. R. Cheeseman, G. Scalmani, V. Barone, B. Mennucci, 
 G. A. Petersson, H. Nakatsuji, M. Caricato, X. Li, H. P. Hratchian, 
 A. F. Izmaylov, J. Bloino, G. Zheng, J. L. Sonnenberg, M. Hada, 
 M. Ehara, K. Toyota, R. Fukuda, J. Hasegawa, M. Ishida, T. Nakajima, 
 Y. Honda, O. Kitao, H. Nakai, T. Vreven, J. A. Montgomery, Jr., 
 J. E. Peralta, F. Ogliaro, M. Bearpark, J. J. Heyd, E. Brothers, 
 K. N. Kudin, V. N. Staroverov, T. Keith, R. Kobayashi, J. Normand, 
 K. Raghavachari, A. Rendell, J. C. Burant, S. S. Iyengar, J. Tomasi, 
 M. Cossi, N. Rega, J. M. Millam, M. Klene, J. E. Knox, J. B. Cross, 
 V. Bakken, C. Adamo, J. Jaramillo, R. Gomperts, R. E. Stratmann, 
 O. Yazyev, A. J. Austin, R. Cammi, C. Pomelli, J. W. Ochterski, 
 R. L. Martin, K. Morokuma, V. G. Zakrzewski, G. A. Voth, 
 P. Salvador, J. J. Dannenberg, S. Dapprich, A. D. Daniels, 
 O. Farkas, J. B. Foresman, J. V. Ortiz, J. Cioslowski, 
 and D. J. Fox, Gaussian, Inc., Wallingford CT, 2013.
 
 ******************************************
 Gaussian 09:  ES64L-G09RevD.01 24-Apr-2013
                15-Dec-2015 
 ******************************************
 ----------------------------
 #P AM1(Input,print) Opt Freq
 ----------------------------
 1/14=-1,18=20,19=15,26=1,38=1/1,3;
 2/9=110,12=2,17=6,18=5,40=1/2;
 3/5=2,16=1,25=1,41=700000,71=1,135=100,136=1/1,2,3;
 4/35=1/1;
 5/5=2,35=1,38=5/2;
 6/7=2,8=2,9=2,10=2,28=1/1;
 7//1,2,3,16;
 1/14=-1,18=20,19=15,26=1/3(2);
 2/9=110/2;
 99//99;
 2/9=110/2;
 3/5=2,16=1,25=1,41=700000,71=1,135=20,136=1/1,2,3;
 4/5=5,16=3,35=1/1;
 5/5=2,35=1,38=5/2;
 7//1,2,3,16;
 1/14=-1,18=20,19=15,26=1/3(-5);
 2/9=110/2;
 6/7=2,8=2,9=2,10=2,19=2,28=1/1;
 99/9=1/99;
 Leave Link    1 at Tue Dec 15 16:09:59 2015, MaxMem=           0 cpu:         0.0
 (Enter /home/Applications/g09/g09/l101.exe)
 -----------------
 AM1-Reparam Input
 -----------------
 Symbolic Z-matrix:
 Charge =  0 Multiplicity = 1
 6                     0.95192  -0.7183   -0.00361 
 6                    -0.34439  -1.0618    0.04137 
 8                    -1.18132  -0.00822  -0.0032 
 6                    -0.35885   1.0515    0.0226 
 6                     0.96128   0.76551  -0.02326 
 1                     1.86028   1.37042  -0.02105 
 1                    -0.83582   2.02654  -0.03036 
 1                    -0.82143  -2.09677   0.03464 
 1                     1.78668  -1.37747   0.04721 
 
 NAtoms=      9 NQM=        9 NQMF=       0 NMMI=      0 NMMIF=      0
                NMic=       0 NMicF=      0.
                    Isotopes and Nuclear Properties:
 (Nuclear quadrupole moments (NQMom) in fm**2, nuclear magnetic moments (NMagM)
  in nuclear magnetons)

  Atom         1           2           3           4           5           6           7           8           9
 IAtWgt=          12          12          16          12          12           1           1           1           1
 AtmWgt=  12.0000000  12.0000000  15.9949146  12.0000000  12.0000000   1.0078250   1.0078250   1.0078250   1.0078250
 NucSpn=           0           0           0           0           0           1           1           1           1
 AtZEff=   0.0000000   0.0000000   0.0000000   0.0000000   0.0000000   0.0000000   0.0000000   0.0000000   0.0000000
 NQMom=    0.0000000   0.0000000   0.0000000   0.0000000   0.0000000   0.0000000   0.0000000   0.0000000   0.0000000
 NMagM=    0.0000000   0.0000000   0.0000000   0.0000000   0.0000000   2.7928460   2.7928460   2.7928460   2.7928460
 AtZNuc=   6.0000000   6.0000000   8.0000000   6.0000000   6.0000000   1.0000000   1.0000000   1.0000000   1.0000000
 Leave Link  101 at Tue Dec 15 16:09:59 2015, MaxMem=    33554432 cpu:         0.0
 (Enter /home/Applications/g09/g09/l103.exe)

 GradGradGradGradGradGradGradGradGradGradGradGradGradGradGradGradGradGrad
 Berny optimization.
 Initialization pass.
                           ----------------------------
                           !    Initial Parameters    !
                           ! (Angstroms and Degrees)  !
 --------------------------                            --------------------------
 ! Name  Definition              Value          Derivative Info.                !
 --------------------------------------------------------------------------------
 ! R1    R(1,2)                  1.3418         estimate D2E/DX2                !
 ! R2    R(1,5)                  1.484          estimate D2E/DX2                !
 ! R3    R(1,9)                  1.0649         estimate D2E/DX2                !
 ! R4    R(2,3)                  1.3463         estimate D2E/DX2                !
 ! R5    R(2,8)                  1.1396         estimate D2E/DX2                !
 ! R6    R(3,4)                  1.3417         estimate D2E/DX2                !
 ! R7    R(4,5)                  1.3515         estimate D2E/DX2                !
 ! R8    R(4,7)                  1.0867         estimate D2E/DX2                !
 ! R9    R(5,6)                  1.0836         estimate D2E/DX2                !
 ! A1    A(2,1,5)              105.219          estimate D2E/DX2                !
 ! A2    A(2,1,9)              126.6749         estimate D2E/DX2                !
 ! A3    A(5,1,9)              127.9261         estimate D2E/DX2                !
 ! A4    A(1,2,3)              113.524          estimate D2E/DX2                !
 ! A5    A(1,2,8)              129.545          estimate D2E/DX2                !
 ! A6    A(3,2,8)              116.7628         estimate D2E/DX2                !
 ! A7    A(2,3,4)              103.6741         estimate D2E/DX2                !
 ! A8    A(3,4,5)              115.5295         estimate D2E/DX2                !
 ! A9    A(3,4,7)              116.0189         estimate D2E/DX2                !
 ! A10   A(5,4,7)              128.0908         estimate D2E/DX2                !
 ! A11   A(1,5,4)              101.8281         estimate D2E/DX2                !
 ! A12   A(1,5,6)              124.2914         estimate D2E/DX2                !
 ! A13   A(4,5,6)              133.8035         estimate D2E/DX2                !
 ! D1    D(5,1,2,3)              2.6435         estimate D2E/DX2                !
 ! D2    D(5,1,2,8)            177.7104         estimate D2E/DX2                !
 ! D3    D(9,1,2,3)            178.0595         estimate D2E/DX2                !
 ! D4    D(9,1,2,8)             -6.8737         estimate D2E/DX2                !
 ! D5    D(2,1,5,4)              0.3613         estimate D2E/DX2                !
 ! D6    D(2,1,5,6)            177.5569         estimate D2E/DX2                !
 ! D7    D(9,1,5,4)           -174.9776         estimate D2E/DX2                !
 ! D8    D(9,1,5,6)              2.218          estimate D2E/DX2                !
 ! D9    D(1,2,3,4)             -4.5192         estimate D2E/DX2                !
 ! D10   D(8,2,3,4)            179.7399         estimate D2E/DX2                !
 ! D11   D(2,3,4,5)              4.9027         estimate D2E/DX2                !
 ! D12   D(2,3,4,7)            178.5726         estimate D2E/DX2                !
 ! D13   D(3,4,5,1)             -3.3338         estimate D2E/DX2                !
 ! D14   D(3,4,5,6)            179.8769         estimate D2E/DX2                !
 ! D15   D(7,4,5,1)           -176.1015         estimate D2E/DX2                !
 ! D16   D(7,4,5,6)              7.1092         estimate D2E/DX2                !
 --------------------------------------------------------------------------------
 Trust Radius=3.00D-01 FncErr=1.00D-07 GrdErr=1.00D-07
 Number of steps in this run=     48 maximum allowed number of steps=    100.
 GradGradGradGradGradGradGradGradGradGradGradGradGradGradGradGradGradGrad

 Leave Link  103 at Tue Dec 15 16:09:59 2015, MaxMem=    33554432 cpu:         0.0
 (Enter /home/Applications/g09/g09/l202.exe)
                          Input orientation:                          
 ---------------------------------------------------------------------
 Center     Atomic      Atomic             Coordinates (Angstroms)
 Number     Number       Type             X           Y           Z
 ---------------------------------------------------------------------
      1          6           0        0.951918   -0.718298   -0.003610
      2          6           0       -0.344393   -1.061798    0.041366
      3          8           0       -1.181318   -0.008224   -0.003195
      4          6           0       -0.358846    1.051504    0.022601
      5          6           0        0.961278    0.765508   -0.023255
      6          1           0        1.860275    1.370415   -0.021046
      7          1           0       -0.835817    2.026539   -0.030363
      8          1           0       -0.821431   -2.096771    0.034638
      9          1           0        1.786683   -1.377470    0.047206
 ---------------------------------------------------------------------
                    Distance matrix (angstroms):
                    1          2          3          4          5
     1  C    0.000000
     2  C    1.341804   0.000000
     3  O    2.248311   1.346272   0.000000
     4  C    2.202496   2.113435   1.341696   0.000000
     5  C    1.483966   2.246775   2.278109   1.351526   0.000000
     6  H    2.277749   3.283309   3.339499   2.242344   1.083565
     7  H    3.275796   3.128013   2.064066   1.086738   2.195404
     8  H    2.246423   1.139640   2.119665   3.182101   3.372543
     9  H    1.064858   2.154337   3.269007   3.240959   2.297523
                    6          7          8          9
     6  H    0.000000
     7  H    2.774797   0.000000
     8  H    4.383609   4.123847   0.000000
     9  H    2.749717   4.297767   2.705515   0.000000
 Stoichiometry    C4H4O
 Framework group  C1[X(C4H4O)]
 Deg. of freedom    21
 Full point group                 C1      NOp   1
 Largest Abelian subgroup         C1      NOp   1
 Largest concise Abelian subgroup C1      NOp   1
                         Standard orientation:                         
 ---------------------------------------------------------------------
 Center     Atomic      Atomic             Coordinates (Angstroms)
 Number     Number       Type             X           Y           Z
 ---------------------------------------------------------------------
      1          6           0        0.206645    1.180304   -0.013360
      2          6           0        1.102162    0.181565    0.018377
      3          8           0        0.543217   -1.042668   -0.017433
      4          6           0       -0.773955   -0.791418    0.028168
      5          6           0       -1.119586    0.514524   -0.012826
      6          1           0       -2.066751    1.040570    0.003531
      7          1           0       -1.426584   -1.659309   -0.014727
      8          1           0        2.240653    0.226800   -0.005537
      9          1           0        0.415356    2.223432    0.034037
 ---------------------------------------------------------------------
 Rotational constants (GHZ):      9.6756333      9.1090042      4.6939586
 Leave Link  202 at Tue Dec 15 16:09:59 2015, MaxMem=    33554432 cpu:         0.0
 (Enter /home/Applications/g09/g09/l301.exe)

 Semi-emprical parameters in input format:
 Method=8 CoreType=1 PeptideFC=0.0109550000 RIJScale=0.5291770000
 ****
 H       
 PQN=1 NValence=1 F0ss=0.4721550000 ZetaOverlap=1.1834540000 U=-0.4188110000
 Beta=-0.2132790000 CoreKO=1.0592910000 KON=0,0,0,1.1263880000 KON=1,0,1,0.9506990000
 KON=0,1,1,1.0589200000 KON=2,1,1,1.0589200000 EISol=-0.4188110042 EHeat=0.0830298228
 Alpha=1.4758640000
 GCore=0.0085280000,1.3669200000,2.2563000000
 GCore=0.0003510000,1.4729190000,3.1686430000
 GCore=-0.0013830000,0.4671410000,4.0712970000
 ****
 C       
 PQN=2,2 NValence=4 F0ss=0.4812790000 F0sp=0.4215150000 F0pp=0.3770800000 F2pp=0.2049700000
 G1sp=0.2912820000
 ZetaOverlap=1.6010000000,1.5293440000
 U=-1.7412020000,-1.5534530000
 Beta=-0.6106050000,-0.3368760000 DDN=0,1,0.9006370000 DDN=1,1,0.8573000000
 CoreKO=1.1124280000 KON=0,0,0,1.2563760000 KON=1,0,1,0.7432930000 KON=0,1,1,1.0027900000
 KON=2,1,1,0.8006380000 EISol=-4.4398989268 EHeat=0.2723305520 Alpha=1.3995250000
 DipHyp=1.8011703711
 GCore=0.0008290000,1.4001430000,3.3689620000
 GCore=0.0033490000,1.4001430000,3.5880090000
 GCore=-0.0015210000,1.2643140000,3.4940790000
 GCore=-0.0000990000,1.4996170000,5.0077740000
 ****
 O       
 PQN=2,2 NValence=6 F0ss=0.5666750000 F0sp=0.5639160000 F0pp=0.4651320000 F2pp=0.2487570000
 G1sp=0.4328860000
 ZetaOverlap=2.7010600000,2.2291470000
 U=-3.8435150000,-2.8760900000
 Beta=-1.0926820000,-1.2908370000 DDN=0,1,0.5242670000 DDN=1,1,0.4544990000
 CoreKO=0.8615750000 KON=0,0,0,0.8011410000 KON=1,0,1,0.5176490000 KON=0,1,1,0.8822960000
 KON=2,1,1,0.5160390000 EISol=-11.6164441184 EHeat=0.0949133088 Alpha=2.2050720000
 DipHyp=1.0484736769
 GCore=0.0168040000,1.4001430000,1.8666110000
 GCore=0.0057170000,1.8223580000,2.7307880000
 ****
 
 Standard basis: VSTO-6G (5D, 7F)
 Ernie: Thresh=  0.10000D-02 Tol=  0.10000D-05 Strict=F.
  NNHCO=     0 NNPyr=     0 NCTC=     0               EPep=         0.000000000
    EC=        68.819909573  ECS=         1.871523912   EG=         0.418769934
   EHC=         0.000000000  EAt=       -31.051283842  AtH=         1.516354808
 EPDDG=         0.000000000  ECC=        71.110203418 EAtT=        32.567638650
 There are    24 symmetry adapted cartesian basis functions of A   symmetry.
 There are    24 symmetry adapted basis functions of A   symmetry.
    24 basis functions,   144 primitive gaussians,    24 cartesian basis functions
    13 alpha electrons       13 beta electrons
       nuclear repulsion energy       103.6778420683 Hartrees.
 IExCor=    0 DFT=F Ex=HF Corr=None ExCW=0 ScaHFX=  1.000000
 ScaDFX=  1.000000  1.000000  1.000000  1.000000 ScalE2=  1.000000  1.000000
 IRadAn=      0 IRanWt=     -1 IRanGd=            0 ICorTp=0 IEmpDi=  4
 Integral buffers will be    131072 words long.
 Regular integral format.
 Two-electron integral symmetry is turned off.
 Leave Link  301 at Tue Dec 15 16:09:59 2015, MaxMem=    33554432 cpu:         0.0
 (Enter /home/Applications/g09/g09/l302.exe)
 Do NDO integrals.
 NPDir=0 NMtPBC=     1 NCelOv=     1 NCel=       1 NClECP=     1 NCelD=      1
         NCelK=      1 NCelE2=     1 NClLst=     1 CellRange=     0.0.
 One-electron integrals computed using PRISM.
 NBasis=    24 RedAO= F EigKep=  0.00D+00  NBF=    24
 NBsUse=    24 1.00D-04 EigRej=  0.00D+00 NBFU=    24
 Leave Link  302 at Tue Dec 15 16:09:59 2015, MaxMem=    33554432 cpu:         0.0
 (Enter /home/Applications/g09/g09/l303.exe)
 DipDrv:  MaxL=1.
 Leave Link  303 at Tue Dec 15 16:09:59 2015, MaxMem=    33554432 cpu:         0.0
 (Enter /home/Applications/g09/g09/l401.exe)
 Simple Huckel Guess.
 JPrj=0 DoOrth=F DoCkMO=F.
 Leave Link  401 at Tue Dec 15 16:09:59 2015, MaxMem=    33554432 cpu:         0.0
 (Enter /home/Applications/g09/g09/l502.exe)
 Closed shell SCF:
 Using DIIS extrapolation, IDIIS=  1040.
 Overlap will be assumed to be unity.
 Two-electron integral symmetry not used.
 Keep J ints in memory in canonical form, NReq=888082.
 IVT=       79475 IEndB=       79475 NGot=    33554432 MDV=    33473473
 LenX=    33473473 LenY=    33472456
 Requested convergence on RMS density matrix=1.00D-08 within 128 cycles.
 Requested convergence on MAX density matrix=1.00D-06.
 Requested convergence on             energy=1.00D-06.
 No special actions if energy rises.
 FoFCou: FMM=F IPFlag=           0 FMFlag=           0 FMFlg1=           0
         NFxFlg=           0 DoJE=F BraDBF=F KetDBF=F FulRan=T
         wScrn=  0.000000 ICntrl=     600 IOpCl=  2 I1Cent=           0 NGrid=           0
         NMat0=    1 NMatS0=     54 NMatT0=    0 NMatD0=    1 NMtDS0=    0 NMtDT0=    0
 Symmetry not used in FoFCou.

 Cycle   1  Pass 1  IDiag  1:
 E= -2.03066218466907    
 DIIS: error= 5.10D-02 at cycle   1 NSaved=   1.
 NSaved= 1 IEnMin= 1 EnMin= -2.03066218466907     IErMin= 1 ErrMin= 5.10D-02
 ErrMax= 5.10D-02  0.00D+00 EMaxC= 1.00D-01 BMatC= 8.63D-02 BMatP= 8.63D-02
 IDIUse=3 WtCom= 4.90D-01 WtEn= 5.10D-01
 Coeff-Com:  0.100D+01
 Coeff-En:   0.100D+01
 Coeff:      0.100D+01
 GapD=    2.000 DampG=2.000 DampE=0.500 DampFc=1.0000 IDamp=-1.
 RMSDP=1.85D-02 MaxDP=1.32D-01              OVMax= 0.00D+00

 Cycle   2  Pass 1  IDiag  1:
 E= -2.27092551893200     Delta-E=       -0.240263334263 Rises=F Damp=F
 DIIS: error= 2.04D-02 at cycle   2 NSaved=   2.
 NSaved= 2 IEnMin= 2 EnMin= -2.27092551893200     IErMin= 2 ErrMin= 2.04D-02
 ErrMax= 2.04D-02  0.00D+00 EMaxC= 1.00D-01 BMatC= 1.08D-02 BMatP= 8.63D-02
 IDIUse=3 WtCom= 7.96D-01 WtEn= 2.04D-01
 Coeff-Com: -0.443D+00 0.144D+01
 Coeff-En:   0.000D+00 0.100D+01
 Coeff:     -0.353D+00 0.135D+01
 RMSDP=9.80D-03 MaxDP=7.35D-02 DE=-2.40D-01 OVMax= 0.00D+00

 Cycle   3  Pass 1  IDiag  1:
 E= -2.31155811746338     Delta-E=       -0.040632598531 Rises=F Damp=F
 DIIS: error= 5.43D-03 at cycle   3 NSaved=   3.
 NSaved= 3 IEnMin= 3 EnMin= -2.31155811746338     IErMin= 3 ErrMin= 5.43D-03
 ErrMax= 5.43D-03  0.00D+00 EMaxC= 1.00D-01 BMatC= 6.01D-04 BMatP= 1.08D-02
 IDIUse=3 WtCom= 9.46D-01 WtEn= 5.43D-02
 Coeff-Com:  0.216D+00-0.854D+00 0.164D+01
 Coeff-En:   0.000D+00 0.000D+00 0.100D+01
 Coeff:      0.204D+00-0.807D+00 0.160D+01
 RMSDP=3.23D-03 MaxDP=2.75D-02 DE=-4.06D-02 OVMax= 0.00D+00

 Cycle   4  Pass 1  IDiag  3:
 E= -2.31452843053889     Delta-E=       -0.002970313076 Rises=F Damp=F
 DIIS: error= 6.52D-04 at cycle   4 NSaved=   4.
 NSaved= 4 IEnMin= 4 EnMin= -2.31452843053889     IErMin= 4 ErrMin= 6.52D-04
 ErrMax= 6.52D-04  0.00D+00 EMaxC= 1.00D-01 BMatC= 1.32D-05 BMatP= 6.01D-04
 IDIUse=3 WtCom= 9.93D-01 WtEn= 6.52D-03
 Coeff-Com: -0.625D-02 0.167D-01-0.143D+00 0.113D+01
 Coeff-En:   0.000D+00 0.000D+00 0.000D+00 0.100D+01
 Coeff:     -0.621D-02 0.166D-01-0.142D+00 0.113D+01
 Gap=     0.474 Goal=   None    Shift=    0.000
 RMSDP=4.93D-04 MaxDP=4.11D-03 DE=-2.97D-03 OVMax= 4.83D-03

 Cycle   5  Pass 1  IDiag  3:
 E= -2.31459513369029     Delta-E=       -0.000066703151 Rises=F Damp=F
 DIIS: error= 1.60D-04 at cycle   5 NSaved=   5.
 NSaved= 5 IEnMin= 5 EnMin= -2.31459513369029     IErMin= 5 ErrMin= 1.60D-04
 ErrMax= 1.60D-04  0.00D+00 EMaxC= 1.00D-01 BMatC= 8.42D-07 BMatP= 1.32D-05
 IDIUse=3 WtCom= 9.98D-01 WtEn= 1.60D-03
 Coeff-Com: -0.312D-02 0.186D-01 0.672D-02-0.488D+00 0.147D+01
 Coeff-En:   0.000D+00 0.000D+00 0.000D+00 0.000D+00 0.100D+01
 Coeff:     -0.311D-02 0.186D-01 0.671D-02-0.487D+00 0.147D+01
 Gap=     0.474 Goal=   None    Shift=    0.000
 RMSDP=1.33D-04 MaxDP=9.56D-04 DE=-6.67D-05 OVMax= 1.54D-03

 Cycle   6  Pass 1  IDiag  3:
 E= -2.31459972759366     Delta-E=       -0.000004593903 Rises=F Damp=F
 DIIS: error= 3.68D-05 at cycle   6 NSaved=   6.
 NSaved= 6 IEnMin= 6 EnMin= -2.31459972759366     IErMin= 6 ErrMin= 3.68D-05
 ErrMax= 3.68D-05  0.00D+00 EMaxC= 1.00D-01 BMatC= 3.36D-08 BMatP= 8.42D-07
 IDIUse=1 WtCom= 1.00D+00 WtEn= 0.00D+00
 Coeff-Com:  0.816D-03-0.492D-02-0.623D-06 0.112D+00-0.473D+00 0.137D+01
 Coeff:      0.816D-03-0.492D-02-0.623D-06 0.112D+00-0.473D+00 0.137D+01
 Gap=     0.474 Goal=   None    Shift=    0.000
 RMSDP=3.10D-05 MaxDP=2.49D-04 DE=-4.59D-06 OVMax= 3.77D-04

 Cycle   7  Pass 1  IDiag  3:
 E= -2.31459994345129     Delta-E=       -0.000000215858 Rises=F Damp=F
 DIIS: error= 8.20D-06 at cycle   7 NSaved=   7.
 NSaved= 7 IEnMin= 7 EnMin= -2.31459994345129     IErMin= 7 ErrMin= 8.20D-06
 ErrMax= 8.20D-06  0.00D+00 EMaxC= 1.00D-01 BMatC= 1.94D-09 BMatP= 3.36D-08
 IDIUse=1 WtCom= 1.00D+00 WtEn= 0.00D+00
 Coeff-Com: -0.182D-03 0.853D-03-0.769D-03-0.764D-02 0.726D-01-0.442D+00
 Coeff-Com:  0.138D+01
 Coeff:     -0.182D-03 0.853D-03-0.769D-03-0.764D-02 0.726D-01-0.442D+00
 Coeff:      0.138D+01
 Gap=     0.474 Goal=   None    Shift=    0.000
 RMSDP=7.23D-06 MaxDP=5.66D-05 DE=-2.16D-07 OVMax= 7.69D-05

 Cycle   8  Pass 1  IDiag  3:
 E= -2.31459995556912     Delta-E=       -0.000000012118 Rises=F Damp=F
 DIIS: error= 1.91D-06 at cycle   8 NSaved=   8.
 NSaved= 8 IEnMin= 8 EnMin= -2.31459995556912     IErMin= 8 ErrMin= 1.91D-06
 ErrMax= 1.91D-06  0.00D+00 EMaxC= 1.00D-01 BMatC= 1.05D-10 BMatP= 1.94D-09
 IDIUse=1 WtCom= 1.00D+00 WtEn= 0.00D+00
 Coeff-Com:  0.767D-05-0.217D-04-0.336D-04-0.252D-03-0.120D-01 0.124D+00
 Coeff-Com: -0.591D+00 0.148D+01
 Coeff:      0.767D-05-0.217D-04-0.336D-04-0.252D-03-0.120D-01 0.124D+00
 Coeff:     -0.591D+00 0.148D+01
 Gap=     0.474 Goal=   None    Shift=    0.000
 RMSDP=1.82D-06 MaxDP=1.42D-05 DE=-1.21D-08 OVMax= 2.11D-05

 Cycle   9  Pass 1  IDiag  3:
 E= -2.31459995620988     Delta-E=       -0.000000000641 Rises=F Damp=F
 DIIS: error= 2.28D-07 at cycle   9 NSaved=   9.
 NSaved= 9 IEnMin= 9 EnMin= -2.31459995620988     IErMin= 9 ErrMin= 2.28D-07
 ErrMax= 2.28D-07  0.00D+00 EMaxC= 1.00D-01 BMatC= 1.82D-12 BMatP= 1.05D-10
 IDIUse=1 WtCom= 1.00D+00 WtEn= 0.00D+00
 Coeff-Com:  0.128D-05-0.127D-04 0.270D-04 0.307D-03 0.222D-02-0.320D-01
 Coeff-Com:  0.171D+00-0.508D+00 0.137D+01
 Coeff:      0.128D-05-0.127D-04 0.270D-04 0.307D-03 0.222D-02-0.320D-01
 Coeff:      0.171D+00-0.508D+00 0.137D+01
 Gap=     0.474 Goal=   None    Shift=    0.000
 RMSDP=2.05D-07 MaxDP=1.59D-06 DE=-6.41D-10 OVMax= 2.23D-06

 Cycle  10  Pass 1  IDiag  3:
 E= -2.31459995621957     Delta-E=       -0.000000000010 Rises=F Damp=F
 DIIS: error= 3.73D-08 at cycle  10 NSaved=  10.
 NSaved=10 IEnMin=10 EnMin= -2.31459995621957     IErMin=10 ErrMin= 3.73D-08
 ErrMax= 3.73D-08  0.00D+00 EMaxC= 1.00D-01 BMatC= 5.53D-14 BMatP= 1.82D-12
 IDIUse=1 WtCom= 1.00D+00 WtEn= 0.00D+00
 Coeff-Com: -0.567D-06 0.542D-05-0.904D-05-0.132D-03-0.707D-03 0.112D-01
 Coeff-Com: -0.606D-01 0.182D+00-0.566D+00 0.143D+01
 Coeff:     -0.567D-06 0.542D-05-0.904D-05-0.132D-03-0.707D-03 0.112D-01
 Coeff:     -0.606D-01 0.182D+00-0.566D+00 0.143D+01
 Gap=     0.474 Goal=   None    Shift=    0.000
 RMSDP=3.25D-08 MaxDP=2.18D-07 DE=-9.69D-12 OVMax= 3.02D-07

 Cycle  11  Pass 1  IDiag  3:
 E= -2.31459995621968     Delta-E=        0.000000000000 Rises=F Damp=F
 DIIS: error= 6.26D-09 at cycle  11 NSaved=  11.
 NSaved=11 IEnMin=11 EnMin= -2.31459995621968     IErMin=11 ErrMin= 6.26D-09
 ErrMax= 6.26D-09  0.00D+00 EMaxC= 1.00D-01 BMatC= 1.55D-15 BMatP= 5.53D-14
 IDIUse=1 WtCom= 1.00D+00 WtEn= 0.00D+00
 Coeff-Com:  0.266D-06-0.197D-05 0.373D-05 0.330D-04 0.228D-03-0.342D-02
 Coeff-Com:  0.184D-01-0.554D-01 0.177D+00-0.553D+00 0.142D+01
 Coeff:      0.266D-06-0.197D-05 0.373D-05 0.330D-04 0.228D-03-0.342D-02
 Coeff:      0.184D-01-0.554D-01 0.177D+00-0.553D+00 0.142D+01
 Gap=     0.474 Goal=   None    Shift=    0.000
 RMSDP=5.37D-09 MaxDP=3.16D-08 DE=-1.14D-13 OVMax= 4.51D-08

 Cycle  12  Pass 2  IDiag  1:
 SCF Done:  E(RAM1) =  -2.31459995622     A.U. after   12 cycles
            NFock= 11  Conv=0.54D-08     -V/T= 0.8750
 KE=-1.851711052684D+01 PE=-1.716999094790D+02 EE= 8.422457798132D+01
 Leave Link  502 at Tue Dec 15 16:09:59 2015, MaxMem=    33554432 cpu:         0.0
 (Enter /home/Applications/g09/g09/l601.exe)
 Copying SCF densities to generalized density rwf, IOpCl= 0 IROHF=0.

 **********************************************************************

            Population analysis using the SCF density.

 **********************************************************************

 Orbital symmetries:
       Occupied  (A) (A) (A) (A) (A) (A) (A) (A) (A) (A) (A) (A)
                 (A)
       Virtual   (A) (A) (A) (A) (A) (A) (A) (A) (A) (A) (A)
 The electronic state is 1-A.
 Alpha  occ. eigenvalues --   -1.86007  -1.31117  -1.11482  -0.93946  -0.82482
 Alpha  occ. eigenvalues --   -0.81016  -0.80447  -0.58314  -0.58076  -0.56705
 Alpha  occ. eigenvalues --   -0.56227  -0.47292  -0.45283
 Alpha virt. eigenvalues --    0.02133   0.02586   0.11739   0.12561   0.17865
 Alpha virt. eigenvalues --    0.18989   0.22078   0.22500   0.30332   0.33544
 Alpha virt. eigenvalues --    0.38429
          Condensed to atoms (all electrons):
               1          2          3          4          5          6
     1  C    4.352508   0.000000   0.000000   0.000000   0.000000   0.000000
     2  C    0.000000   4.266225   0.000000   0.000000   0.000000   0.000000
     3  O    0.000000   0.000000   5.757683   0.000000   0.000000   0.000000
     4  C    0.000000   0.000000   0.000000   4.255768   0.000000   0.000000
     5  C    0.000000   0.000000   0.000000   0.000000   4.353591   0.000000
     6  H    0.000000   0.000000   0.000000   0.000000   0.000000   0.760111
     7  H    0.000000   0.000000   0.000000   0.000000   0.000000   0.000000
     8  H    0.000000   0.000000   0.000000   0.000000   0.000000   0.000000
     9  H    0.000000   0.000000   0.000000   0.000000   0.000000   0.000000
               7          8          9
     1  C    0.000000   0.000000   0.000000
     2  C    0.000000   0.000000   0.000000
     3  O    0.000000   0.000000   0.000000
     4  C    0.000000   0.000000   0.000000
     5  C    0.000000   0.000000   0.000000
     6  H    0.000000   0.000000   0.000000
     7  H    0.749562   0.000000   0.000000
     8  H    0.000000   0.742323   0.000000
     9  H    0.000000   0.000000   0.762228
 Mulliken charges:
               1
     1  C   -0.352508
     2  C   -0.266225
     3  O    0.242317
     4  C   -0.255768
     5  C   -0.353591
     6  H    0.239889
     7  H    0.250438
     8  H    0.257677
     9  H    0.237772
 Sum of Mulliken charges =   0.00000
 Mulliken charges with hydrogens summed into heavy atoms:
               1
     1  C   -0.114736
     2  C   -0.008548
     3  O    0.242317
     4  C   -0.005331
     5  C   -0.113702
 Charge=              0.0000 electrons
 Dipole moment (field-independent basis, Debye):
    X=              0.6629    Y=             -0.8939    Z=             -0.0073  Tot=              1.1128
 N-N= 1.036778420683D+02 E-N=-1.716999094042D+02  KE=-1.851711052684D+01
 Leave Link  601 at Tue Dec 15 16:09:59 2015, MaxMem=    33554432 cpu:         0.0
 (Enter /home/Applications/g09/g09/l701.exe)
 Compute integral first derivatives.
 ... and contract with generalized density number  0.
 Leave Link  701 at Tue Dec 15 16:09:59 2015, MaxMem=    33554432 cpu:         0.0
 (Enter /home/Applications/g09/g09/l702.exe)
 L702 exits ... SP integral derivatives will be done elsewhere.
 Leave Link  702 at Tue Dec 15 16:09:59 2015, MaxMem=    33554432 cpu:         0.0
 (Enter /home/Applications/g09/g09/l703.exe)
 Compute integral first derivatives, UseDBF=F ICtDFT=           0.
 Integral derivatives from FoFJK, PRISM(SPDF).
 Calling FoFJK, ICntrl=      2127 FMM=F ISym2X=0 I1Cent= 0 IOpClX= 0 NMat=1 NMatS=1 NMatT=0.
 FoFJK:  IHMeth= 8 ICntrl=    2127 DoSepK=F KAlg= 0 I1Cent=   0 FoldK=F
 IRaf=         0 NMat=   1 IRICut=       1 DoRegI=T DoRafI=F ISym2E= 0.
 FoFCou: FMM=F IPFlag=           0 FMFlag=      100000 FMFlg1=         800
         NFxFlg=           0 DoJE=F BraDBF=F KetDBF=F FulRan=T
         wScrn=  0.000000 ICntrl=    2127 IOpCl=  0 I1Cent=           0 NGrid=           0
         NMat0=    1 NMatS0=      1 NMatT0=    0 NMatD0=    1 NMtDS0=    0 NMtDT0=    0
 Symmetry not used in FoFCou.
 Leave Link  703 at Tue Dec 15 16:09:59 2015, MaxMem=    33554432 cpu:         0.0
 (Enter /home/Applications/g09/g09/l716.exe)
 Dipole        = 2.60789642D-01-3.51672343D-01-2.88381527D-03
 ***** Axes restored to original set *****
 -------------------------------------------------------------------
 Center     Atomic                   Forces (Hartrees/Bohr)
 Number     Number              X              Y              Z
 -------------------------------------------------------------------
      1        6           0.017273404    0.108251700    0.007791931
      2        6          -0.028666680   -0.044584822   -0.014838015
      3        8          -0.040308481   -0.006947807    0.014511790
      4        6           0.003598554    0.025509178   -0.019791518
      5        6           0.009165991   -0.115084357    0.010867014
      6        1           0.010199199    0.010402889   -0.001797820
      7        1          -0.008739176    0.020009276    0.003302732
      8        1           0.007702059    0.017466999    0.002405395
      9        1           0.029775129   -0.015023055   -0.002451509
 -------------------------------------------------------------------
 Cartesian Forces:  Max     0.115084357 RMS     0.035320955
 Leave Link  716 at Tue Dec 15 16:09:59 2015, MaxMem=    33554432 cpu:         0.0
 (Enter /home/Applications/g09/g09/l103.exe)

 GradGradGradGradGradGradGradGradGradGradGradGradGradGradGradGradGradGrad
 Berny optimization.
 FormGI is forming the generalized inverse of G from B-inverse, IUseBI=4.
 Internal  Forces:  Max     0.080028971 RMS     0.019356693
 Search for a local minimum.
 Step number   1 out of a maximum of   48
 All quantities printed in internal units (Hartrees-Bohrs-Radians)
 RMS Force = .19357D-01 SwitMx=.10000D-02 MixMth= 1
 Mixed Optimization -- RFO/linear search
 Second derivative matrix not updated -- first step.
 ITU=  0
     Eigenvalues ---    0.01651   0.02081   0.02135   0.02597   0.02687
     Eigenvalues ---    0.02759   0.15898   0.15915   0.15959   0.15968
     Eigenvalues ---    0.21986   0.22875   0.29653   0.33062   0.35192
     Eigenvalues ---    0.35567   0.37888   0.47323   0.52776   0.55340
     Eigenvalues ---    0.56675
 RFO step:  Lambda=-3.76575915D-02 EMin= 1.65144835D-02
 Linear search not attempted -- first point.
 Iteration  1 RMS(Cart)=  0.05306398 RMS(Int)=  0.00404483
 Iteration  2 RMS(Cart)=  0.00458974 RMS(Int)=  0.00123006
 Iteration  3 RMS(Cart)=  0.00000663 RMS(Int)=  0.00123005
 Iteration  4 RMS(Cart)=  0.00000001 RMS(Int)=  0.00123005
 ITry= 1 IFail=0 DXMaxC= 1.48D-01 DCOld= 1.00D+10 DXMaxT= 3.00D-01 DXLimC= 3.00D+00 Rises=F
 Variable       Old X    -DE/DX   Delta X   Delta X   Delta X     New X
                                 (Linear)    (Quad)   (Total)
    R1        2.53564   0.04330   0.00000   0.07109   0.07046   2.60610
    R2        2.80429  -0.08003   0.00000  -0.22018  -0.22032   2.58397
    R3        2.01229   0.03252   0.00000   0.07808   0.07808   2.09037
    R4        2.54408   0.02342   0.00000   0.04445   0.04414   2.58823
    R5        2.15361  -0.01910   0.00000  -0.05716  -0.05716   2.09645
    R6        2.53544   0.02842   0.00000   0.05065   0.05117   2.58661
    R7        2.55401   0.02925   0.00000   0.04773   0.04829   2.60230
    R8        2.05364   0.02163   0.00000   0.05551   0.05551   2.10915
    R9        2.04764   0.01427   0.00000   0.03627   0.03627   2.08391
    A1        1.83642   0.00660   0.00000   0.01089   0.00909   1.84551
    A2        2.21089   0.00355   0.00000   0.03066   0.03114   2.24204
    A3        2.23273  -0.00996   0.00000  -0.03815  -0.03772   2.19501
    A4        1.98137  -0.00078   0.00000   0.00522   0.00267   1.98404
    A5        2.26099   0.00115   0.00000   0.00319   0.00301   2.26400
    A6        2.03789   0.00001   0.00000  -0.00256  -0.00274   2.03515
    A7        1.80945  -0.01988   0.00000  -0.04549  -0.04625   1.76321
    A8        2.01637  -0.00783   0.00000  -0.02755  -0.02919   1.98718
    A9        2.02491   0.00477   0.00000   0.02228   0.02048   2.04539
   A10        2.23561   0.00376   0.00000   0.01682   0.01498   2.25058
   A11        1.77724   0.02254   0.00000   0.06769   0.06702   1.84426
   A12        2.16929  -0.00831   0.00000  -0.01809  -0.01807   2.15122
   A13        2.33531  -0.01412   0.00000  -0.04766  -0.04770   2.28761
    D1        0.04614  -0.00352   0.00000  -0.06318  -0.06535  -0.01921
    D2        3.10163   0.00196   0.00000   0.02235   0.02108   3.12271
    D3        3.10772  -0.00170   0.00000  -0.02209  -0.02211   3.08561
    D4       -0.11997   0.00378   0.00000   0.06344   0.06431  -0.05566
    D5        0.00631  -0.00027   0.00000  -0.00708  -0.00778  -0.00147
    D6        3.09895   0.00139   0.00000   0.02695   0.02813   3.12709
    D7       -3.05394  -0.00296   0.00000  -0.05315  -0.05364  -3.10758
    D8        0.03871  -0.00131   0.00000  -0.01912  -0.01773   0.02098
    D9       -0.07888   0.00707   0.00000   0.10936   0.10941   0.03053
   D10        3.13705   0.00228   0.00000   0.03527   0.03479  -3.11134
   D11        0.08557  -0.00797   0.00000  -0.11965  -0.11717  -0.03160
   D12        3.11668  -0.00163   0.00000  -0.01762  -0.01476   3.10192
   D13       -0.05819   0.00430   0.00000   0.07785   0.08002   0.02183
   D14        3.13944   0.00197   0.00000   0.03700   0.03844  -3.10530
   D15       -3.07355  -0.00288   0.00000  -0.03858  -0.03698  -3.11053
   D16        0.12408  -0.00521   0.00000  -0.07943  -0.07856   0.04552
         Item               Value     Threshold  Converged?
 Maximum Force            0.080029     0.000450     NO 
 RMS     Force            0.019357     0.000300     NO 
 Maximum Displacement     0.148033     0.001800     NO 
 RMS     Displacement     0.055430     0.001200     NO 
 Predicted change in Energy=-2.151342D-02
 Lowest energy point so far.  Saving SCF results.
 GradGradGradGradGradGradGradGradGradGradGradGradGradGradGradGradGradGrad

 Leave Link  103 at Tue Dec 15 16:09:59 2015, MaxMem=    33554432 cpu:         0.0
 (Enter /home/Applications/g09/g09/l202.exe)
                          Input orientation:                          
 ---------------------------------------------------------------------
 Center     Atomic      Atomic             Coordinates (Angstroms)
 Number     Number       Type             X           Y           Z
 ---------------------------------------------------------------------
      1          6           0        0.959766   -0.680054    0.007112
      2          6           0       -0.364856   -1.063429    0.023961
      3          8           0       -1.241726   -0.011449    0.041956
      4          6           0       -0.378473    1.049707   -0.005793
      5          6           0        0.950018    0.687172   -0.010869
      6          1           0        1.867825    1.298479   -0.013734
      7          1           0       -0.827201    2.070970   -0.042912
      8          1           0       -0.808617   -2.080203    0.025228
      9          1           0        1.861613   -1.319788    0.039392
 ---------------------------------------------------------------------
                    Distance matrix (angstroms):
                    1          2          3          4          5
     1  C    0.000000
     2  C    1.379088   0.000000
     3  O    2.301047   1.369630   0.000000
     4  C    2.187035   2.113389   1.368773   0.000000
     5  C    1.367380   2.189682   2.301000   1.377078   0.000000
     6  H    2.177062   3.250368   3.374659   2.260045   1.102758
     7  H    3.280837   3.169020   2.124971   1.116115   2.252649
     8  H    2.255642   1.109394   2.113672   3.159482   3.279095
     9  H    1.106177   2.241232   3.367859   3.261063   2.204863
                    6          7          8          9
     6  H    0.000000
     7  H    2.803705   0.000000
     8  H    4.310493   4.151774   0.000000
     9  H    2.618813   4.328248   2.776429   0.000000
 Stoichiometry    C4H4O
 Framework group  C1[X(C4H4O)]
 Deg. of freedom    21
 Full point group                 C1      NOp   1
 RotChk:  IX=2 Diff= 1.48D+00
 Largest Abelian subgroup         C1      NOp   1
 Largest concise Abelian subgroup C1      NOp   1
                         Standard orientation:                         
 ---------------------------------------------------------------------
 Center     Atomic      Atomic             Coordinates (Angstroms)
 Number     Number       Type             X           Y           Z
 ---------------------------------------------------------------------
      1          6           0       -0.983690    0.674770   -0.003228
      2          6           0        0.340718    1.059216   -0.008393
      3          8           0        1.218621    0.008206    0.015061
      4          6           0        0.355737   -1.054118   -0.005886
      5          6           0       -0.973019   -0.692565   -0.000347
      6          1           0       -1.890282   -1.304439    0.017343
      7          1           0        0.804834   -2.075539   -0.032793
      8          1           0        0.783612    2.076178   -0.028129
      9          1           0       -1.885612    1.314338    0.030212
 ---------------------------------------------------------------------
 Rotational constants (GHZ):     10.0739444      8.7084083      4.6714404
 Leave Link  202 at Tue Dec 15 16:09:59 2015, MaxMem=    33554432 cpu:         0.0
 (Enter /home/Applications/g09/g09/l301.exe)

 Semi-emprical parameters in input format:
 Method=8 CoreType=1 PeptideFC=0.0109550000 RIJScale=0.5291770000
 ****
 H       
 PQN=1 NValence=1 F0ss=0.4721550000 ZetaOverlap=1.1834540000 U=-0.4188110000
 Beta=-0.2132790000 CoreKO=1.0592910000 KON=0,0,0,1.1263880000 KON=1,0,1,0.9506990000
 KON=0,1,1,1.0589200000 KON=2,1,1,1.0589200000 EISol=-0.4188110042 EHeat=0.0830298228
 Alpha=1.4758640000
 GCore=0.0085280000,1.3669200000,2.2563000000
 GCore=0.0003510000,1.4729190000,3.1686430000
 GCore=-0.0013830000,0.4671410000,4.0712970000
 ****
 C       
 PQN=2,2 NValence=4 F0ss=0.4812790000 F0sp=0.4215150000 F0pp=0.3770800000 F2pp=0.2049700000
 G1sp=0.2912820000
 ZetaOverlap=1.6010000000,1.5293440000
 U=-1.7412020000,-1.5534530000
 Beta=-0.6106050000,-0.3368760000 DDN=0,1,0.9006370000 DDN=1,1,0.8573000000
 CoreKO=1.1124280000 KON=0,0,0,1.2563760000 KON=1,0,1,0.7432930000 KON=0,1,1,1.0027900000
 KON=2,1,1,0.8006380000 EISol=-4.4398989268 EHeat=0.2723305520 Alpha=1.3995250000
 DipHyp=1.8011703711
 GCore=0.0008290000,1.4001430000,3.3689620000
 GCore=0.0033490000,1.4001430000,3.5880090000
 GCore=-0.0015210000,1.2643140000,3.4940790000
 GCore=-0.0000990000,1.4996170000,5.0077740000
 ****
 O       
 PQN=2,2 NValence=6 F0ss=0.5666750000 F0sp=0.5639160000 F0pp=0.4651320000 F2pp=0.2487570000
 G1sp=0.4328860000
 ZetaOverlap=2.7010600000,2.2291470000
 U=-3.8435150000,-2.8760900000
 Beta=-1.0926820000,-1.2908370000 DDN=0,1,0.5242670000 DDN=1,1,0.4544990000
 CoreKO=0.8615750000 KON=0,0,0,0.8011410000 KON=1,0,1,0.5176490000 KON=0,1,1,0.8822960000
 KON=2,1,1,0.5160390000 EISol=-11.6164441184 EHeat=0.0949133088 Alpha=2.2050720000
 DipHyp=1.0484736769
 GCore=0.0168040000,1.4001430000,1.8666110000
 GCore=0.0057170000,1.8223580000,2.7307880000
 ****
 
 Standard basis: VSTO-6G (5D, 7F)
 Ernie: Thresh=  0.10000D-02 Tol=  0.10000D-05 Strict=F.
  NNHCO=     0 NNPyr=     0 NCTC=     0               EPep=         0.000000000
    EC=        68.616541783  ECS=         1.833114827   EG=         0.401342580
   EHC=         0.000000000  EAt=       -31.051283842  AtH=         1.516354808
 EPDDG=         0.000000000  ECC=        70.850999190 EAtT=        32.567638650
 There are    24 symmetry adapted cartesian basis functions of A   symmetry.
 There are    24 symmetry adapted basis functions of A   symmetry.
    24 basis functions,   144 primitive gaussians,    24 cartesian basis functions
    13 alpha electrons       13 beta electrons
       nuclear repulsion energy       103.4186378408 Hartrees.
 IExCor=    0 DFT=F Ex=HF Corr=None ExCW=0 ScaHFX=  1.000000
 ScaDFX=  1.000000  1.000000  1.000000  1.000000 ScalE2=  1.000000  1.000000
 IRadAn=      0 IRanWt=     -1 IRanGd=            0 ICorTp=0 IEmpDi=  4
 Integral buffers will be    131072 words long.
 Regular integral format.
 Two-electron integral symmetry is turned off.
 Leave Link  301 at Tue Dec 15 16:09:59 2015, MaxMem=    33554432 cpu:         0.0
 (Enter /home/Applications/g09/g09/l302.exe)
 Do NDO integrals.
 NPDir=0 NMtPBC=     1 NCelOv=     1 NCel=       1 NClECP=     1 NCelD=      1
         NCelK=      1 NCelE2=     1 NClLst=     1 CellRange=     0.0.
 One-electron integrals computed using PRISM.
 NBasis=    24 RedAO= F EigKep=  0.00D+00  NBF=    24
 NBsUse=    24 1.00D-04 EigRej=  0.00D+00 NBFU=    24
 Leave Link  302 at Tue Dec 15 16:09:59 2015, MaxMem=    33554432 cpu:         0.0
 (Enter /home/Applications/g09/g09/l303.exe)
 DipDrv:  MaxL=1.
 Leave Link  303 at Tue Dec 15 16:09:59 2015, MaxMem=    33554432 cpu:         0.0
 (Enter /home/Applications/g09/g09/l401.exe)
 Initial guess from the checkpoint file:  "/home/Applications/g09/scratch/Gau-5250.chk"
 B after Tr=     0.000000    0.000000    0.000000
         Rot=    0.852960   -0.000011    0.000035   -0.521977 Ang= -62.93 deg.
 Guess basis will be translated and rotated to current coordinates.
 JPrj=0 DoOrth=T DoCkMO=T.
 Leave Link  401 at Tue Dec 15 16:09:59 2015, MaxMem=    33554432 cpu:         0.0
 (Enter /home/Applications/g09/g09/l502.exe)
 Closed shell SCF:
 Using DIIS extrapolation, IDIIS=  1040.
 Overlap will be assumed to be unity.
 Two-electron integral symmetry not used.
 Keep J ints in memory in canonical form, NReq=888082.
 IVT=       79475 IEndB=       79475 NGot=    33554432 MDV=    33473473
 LenX=    33473473 LenY=    33472456
 Requested convergence on RMS density matrix=1.00D-08 within 128 cycles.
 Requested convergence on MAX density matrix=1.00D-06.
 Requested convergence on             energy=1.00D-06.
 No special actions if energy rises.
 FoFCou: FMM=F IPFlag=           0 FMFlag=           0 FMFlg1=           0
         NFxFlg=           0 DoJE=F BraDBF=F KetDBF=F FulRan=T
         wScrn=  0.000000 ICntrl=     600 IOpCl=  2 I1Cent=           0 NGrid=           0
         NMat0=    1 NMatS0=     54 NMatT0=    0 NMatD0=    1 NMtDS0=    0 NMtDT0=    0
 Symmetry not used in FoFCou.

 Cycle   1  Pass 1  IDiag  1:
 E= -2.31233877194998    
 DIIS: error= 1.16D-02 at cycle   1 NSaved=   1.
 NSaved= 1 IEnMin= 1 EnMin= -2.31233877194998     IErMin= 1 ErrMin= 1.16D-02
 ErrMax= 1.16D-02  0.00D+00 EMaxC= 1.00D-01 BMatC= 5.87D-03 BMatP= 5.87D-03
 IDIUse=3 WtCom= 8.84D-01 WtEn= 1.16D-01
 Coeff-Com:  0.100D+01
 Coeff-En:   0.100D+01
 Coeff:      0.100D+01
 GapD=    2.000 DampG=2.000 DampE=0.500 DampFc=1.0000 IDamp=-1.
 RMSDP=4.43D-03 MaxDP=1.62D-02              OVMax= 0.00D+00

 Cycle   2  Pass 1  IDiag  3:
 E= -2.32637136572964     Delta-E=       -0.014032593780 Rises=F Damp=F
 DIIS: error= 3.58D-03 at cycle   2 NSaved=   2.
 NSaved= 2 IEnMin= 2 EnMin= -2.32637136572964     IErMin= 2 ErrMin= 3.58D-03
 ErrMax= 3.58D-03  0.00D+00 EMaxC= 1.00D-01 BMatC= 5.07D-04 BMatP= 5.87D-03
 IDIUse=3 WtCom= 9.64D-01 WtEn= 3.58D-02
 Coeff-Com: -0.358D+00 0.136D+01
 Coeff-En:   0.000D+00 0.100D+01
 Coeff:     -0.346D+00 0.135D+01
 Gap=     0.446 Goal=   None    Shift=    0.000
 RMSDP=2.19D-03 MaxDP=1.08D-02 DE=-1.40D-02 OVMax= 1.57D-02

 Cycle   3  Pass 1  IDiag  3:
 E= -2.32820468298517     Delta-E=       -0.001833317256 Rises=F Damp=F
 DIIS: error= 8.02D-04 at cycle   3 NSaved=   3.
 NSaved= 3 IEnMin= 3 EnMin= -2.32820468298517     IErMin= 3 ErrMin= 8.02D-04
 ErrMax= 8.02D-04  0.00D+00 EMaxC= 1.00D-01 BMatC= 1.71D-05 BMatP= 5.07D-04
 IDIUse=3 WtCom= 9.92D-01 WtEn= 8.02D-03
 Coeff-Com:  0.147D+00-0.650D+00 0.150D+01
 Coeff-En:   0.000D+00 0.000D+00 0.100D+01
 Coeff:      0.146D+00-0.644D+00 0.150D+01
 Gap=     0.445 Goal=   None    Shift=    0.000
 RMSDP=6.60D-04 MaxDP=4.47D-03 DE=-1.83D-03 OVMax= 6.87D-03

 Cycle   4  Pass 1  IDiag  3:
 E= -2.32830955257866     Delta-E=       -0.000104869593 Rises=F Damp=F
 DIIS: error= 2.00D-04 at cycle   4 NSaved=   4.
 NSaved= 4 IEnMin= 4 EnMin= -2.32830955257866     IErMin= 4 ErrMin= 2.00D-04
 ErrMax= 2.00D-04  0.00D+00 EMaxC= 1.00D-01 BMatC= 7.21D-07 BMatP= 1.71D-05
 IDIUse=3 WtCom= 9.98D-01 WtEn= 2.00D-03
 Coeff-Com: -0.442D-01 0.202D+00-0.593D+00 0.143D+01
 Coeff-En:   0.000D+00 0.000D+00 0.000D+00 0.100D+01
 Coeff:     -0.441D-01 0.202D+00-0.592D+00 0.143D+01
 Gap=     0.445 Goal=   None    Shift=    0.000
 RMSDP=1.58D-04 MaxDP=1.24D-03 DE=-1.05D-04 OVMax= 1.91D-03

 Cycle   5  Pass 1  IDiag  3:
 E= -2.32831480490384     Delta-E=       -0.000005252325 Rises=F Damp=F
 DIIS: error= 4.69D-05 at cycle   5 NSaved=   5.
 NSaved= 5 IEnMin= 5 EnMin= -2.32831480490384     IErMin= 5 ErrMin= 4.69D-05
 ErrMax= 4.69D-05  0.00D+00 EMaxC= 1.00D-01 BMatC= 4.10D-08 BMatP= 7.21D-07
 IDIUse=1 WtCom= 1.00D+00 WtEn= 0.00D+00
 Coeff-Com:  0.232D-02-0.120D-01 0.598D-01-0.379D+00 0.133D+01
 Coeff:      0.232D-02-0.120D-01 0.598D-01-0.379D+00 0.133D+01
 Gap=     0.445 Goal=   None    Shift=    0.000
 RMSDP=3.84D-05 MaxDP=3.13D-04 DE=-5.25D-06 OVMax= 4.82D-04

 Cycle   6  Pass 1  IDiag  3:
 E= -2.32831509888143     Delta-E=       -0.000000293978 Rises=F Damp=F
 DIIS: error= 8.98D-06 at cycle   6 NSaved=   6.
 NSaved= 6 IEnMin= 6 EnMin= -2.32831509888143     IErMin= 6 ErrMin= 8.98D-06
 ErrMax= 8.98D-06  0.00D+00 EMaxC= 1.00D-01 BMatC= 2.36D-09 BMatP= 4.10D-08
 IDIUse=1 WtCom= 1.00D+00 WtEn= 0.00D+00
 Coeff-Com:  0.709D-03-0.278D-02-0.871D-03 0.964D-01-0.574D+00 0.148D+01
 Coeff:      0.709D-03-0.278D-02-0.871D-03 0.964D-01-0.574D+00 0.148D+01
 Gap=     0.445 Goal=   None    Shift=    0.000
 RMSDP=8.85D-06 MaxDP=6.49D-05 DE=-2.94D-07 OVMax= 8.98D-05

 Cycle   7  Pass 1  IDiag  3:
 E= -2.32831511400283     Delta-E=       -0.000000015121 Rises=F Damp=F
 DIIS: error= 9.48D-07 at cycle   7 NSaved=   7.
 NSaved= 7 IEnMin= 7 EnMin= -2.32831511400283     IErMin= 7 ErrMin= 9.48D-07
 ErrMax= 9.48D-07  0.00D+00 EMaxC= 1.00D-01 BMatC= 6.22D-11 BMatP= 2.36D-09
 IDIUse=1 WtCom= 1.00D+00 WtEn= 0.00D+00
 Coeff-Com: -0.394D-03 0.164D-02-0.168D-02-0.282D-01 0.196D+00-0.605D+00
 Coeff-Com:  0.144D+01
 Coeff:     -0.394D-03 0.164D-02-0.168D-02-0.282D-01 0.196D+00-0.605D+00
 Coeff:      0.144D+01
 Gap=     0.445 Goal=   None    Shift=    0.000
 RMSDP=1.23D-06 MaxDP=6.61D-06 DE=-1.51D-08 OVMax= 1.02D-05

 Cycle   8  Pass 1  IDiag  3:
 E= -2.32831511433844     Delta-E=       -0.000000000336 Rises=F Damp=F
 DIIS: error= 1.38D-07 at cycle   8 NSaved=   8.
 NSaved= 8 IEnMin= 8 EnMin= -2.32831511433844     IErMin= 8 ErrMin= 1.38D-07
 ErrMax= 1.38D-07  0.00D+00 EMaxC= 1.00D-01 BMatC= 1.30D-12 BMatP= 6.22D-11
 IDIUse=1 WtCom= 1.00D+00 WtEn= 0.00D+00
 Coeff-Com:  0.104D-03-0.430D-03 0.354D-03 0.859D-02-0.586D-01 0.185D+00
 Coeff-Com: -0.510D+00 0.138D+01
 Coeff:      0.104D-03-0.430D-03 0.354D-03 0.859D-02-0.586D-01 0.185D+00
 Coeff:     -0.510D+00 0.138D+01
 Gap=     0.445 Goal=   None    Shift=    0.000
 RMSDP=1.54D-07 MaxDP=7.59D-07 DE=-3.36D-10 OVMax= 1.29D-06

 Cycle   9  Pass 1  IDiag  3:
 E= -2.32831511434476     Delta-E=       -0.000000000006 Rises=F Damp=F
 DIIS: error= 2.91D-08 at cycle   9 NSaved=   9.
 NSaved= 9 IEnMin= 9 EnMin= -2.32831511434476     IErMin= 9 ErrMin= 2.91D-08
 ErrMax= 2.91D-08  0.00D+00 EMaxC= 1.00D-01 BMatC= 4.04D-14 BMatP= 1.30D-12
 IDIUse=1 WtCom= 1.00D+00 WtEn= 0.00D+00
 Coeff-Com: -0.187D-04 0.743D-04 0.115D-04-0.246D-02 0.155D-01-0.480D-01
 Coeff-Com:  0.137D+00-0.480D+00 0.138D+01
 Coeff:     -0.187D-04 0.743D-04 0.115D-04-0.246D-02 0.155D-01-0.480D-01
 Coeff:      0.137D+00-0.480D+00 0.138D+01
 Gap=     0.445 Goal=   None    Shift=    0.000
 RMSDP=2.72D-08 MaxDP=1.45D-07 DE=-6.32D-12 OVMax= 2.74D-07

 Cycle  10  Pass 1  IDiag  3:
 E= -2.32831511434493     Delta-E=        0.000000000000 Rises=F Damp=F
 DIIS: error= 4.43D-09 at cycle  10 NSaved=  10.
 NSaved=10 IEnMin=10 EnMin= -2.32831511434493     IErMin=10 ErrMin= 4.43D-09
 ErrMax= 4.43D-09  0.00D+00 EMaxC= 1.00D-01 BMatC= 9.08D-16 BMatP= 4.04D-14
 IDIUse=1 WtCom= 1.00D+00 WtEn= 0.00D+00
 Coeff-Com:  0.251D-05-0.937D-05-0.161D-04 0.505D-03-0.303D-02 0.930D-02
 Coeff-Com: -0.272D-01 0.105D+00-0.406D+00 0.132D+01
 Coeff:      0.251D-05-0.937D-05-0.161D-04 0.505D-03-0.303D-02 0.930D-02
 Coeff:     -0.272D-01 0.105D+00-0.406D+00 0.132D+01
 Gap=     0.445 Goal=   None    Shift=    0.000
 RMSDP=3.98D-09 MaxDP=2.22D-08 DE=-1.71D-13 OVMax= 3.38D-08

 Cycle  11  Pass 2  IDiag  1:
 SCF Done:  E(RAM1) =  -2.32831511434     A.U. after   11 cycles
            NFock= 10  Conv=0.40D-08     -V/T= 0.8740
 KE=-1.847357973848D+01 PE=-1.713694564351D+02 EE= 8.409608321841D+01
 Leave Link  502 at Tue Dec 15 16:09:59 2015, MaxMem=    33554432 cpu:         0.0
 (Enter /home/Applications/g09/g09/l701.exe)
 Compute integral first derivatives.
 ... and contract with generalized density number  0.
 Leave Link  701 at Tue Dec 15 16:09:59 2015, MaxMem=    33554432 cpu:         0.0
 (Enter /home/Applications/g09/g09/l702.exe)
 L702 exits ... SP integral derivatives will be done elsewhere.
 Leave Link  702 at Tue Dec 15 16:09:59 2015, MaxMem=    33554432 cpu:         0.0
 (Enter /home/Applications/g09/g09/l703.exe)
 Compute integral first derivatives, UseDBF=F ICtDFT=           0.
 Integral derivatives from FoFJK, PRISM(SPDF).
 Calling FoFJK, ICntrl=      2127 FMM=F ISym2X=0 I1Cent= 0 IOpClX= 0 NMat=1 NMatS=1 NMatT=0.
 FoFJK:  IHMeth= 8 ICntrl=    2127 DoSepK=F KAlg= 0 I1Cent=   0 FoldK=F
 IRaf=         0 NMat=   1 IRICut=       1 DoRegI=T DoRafI=F ISym2E= 0.
 FoFCou: FMM=F IPFlag=           0 FMFlag=      100000 FMFlg1=         800
         NFxFlg=           0 DoJE=F BraDBF=F KetDBF=F FulRan=T
         wScrn=  0.000000 ICntrl=    2127 IOpCl=  0 I1Cent=           0 NGrid=           0
         NMat0=    1 NMatS0=      1 NMatT0=    0 NMatD0=    1 NMtDS0=    0 NMtDT0=    0
 Symmetry not used in FoFCou.
 Leave Link  703 at Tue Dec 15 16:10:00 2015, MaxMem=    33554432 cpu:         0.0
 (Enter /home/Applications/g09/g09/l716.exe)
 Dipole        = 3.05451505D-01 9.82310851D-03 9.96242660D-03
 ***** Axes restored to original set *****
 -------------------------------------------------------------------
 Center     Atomic                   Forces (Hartrees/Bohr)
 Number     Number              X              Y              Z
 -------------------------------------------------------------------
      1        6          -0.009109420   -0.036431872    0.002739105
      2        6          -0.010697608    0.001196398    0.003502575
      3        8           0.032898177    0.000645263   -0.007236111
      4        6          -0.012203849    0.005878700    0.002663438
      5        6          -0.005151783    0.028664231   -0.000863068
      6        1           0.000275460    0.008066928   -0.001004403
      7        1           0.002164544   -0.005176044    0.001439642
      8        1           0.001439069    0.000253306    0.000745279
      9        1           0.000385411   -0.003096909   -0.001986457
 -------------------------------------------------------------------
 Cartesian Forces:  Max     0.036431872 RMS     0.011920365
 Leave Link  716 at Tue Dec 15 16:10:00 2015, MaxMem=    33554432 cpu:         0.0
 (Enter /home/Applications/g09/g09/l103.exe)

 GradGradGradGradGradGradGradGradGradGradGradGradGradGradGradGradGradGrad
 Berny optimization.
 Using GEDIIS/GDIIS optimizer.
 FormGI is forming the generalized inverse of G from B-inverse, IUseBI=4.
 Internal  Forces:  Max     0.039229767 RMS     0.008385313
 Search for a local minimum.
 Step number   2 out of a maximum of   48
 All quantities printed in internal units (Hartrees-Bohrs-Radians)
 RMS Force = .83853D-02 SwitMx=.10000D-02 MixMth= 1
 Mixed Optimization -- RFO/linear search
 Update second derivatives using D2CorX and points    1    2
 DE= -1.37D-02 DEPred=-2.15D-02 R= 6.38D-01
 TightC=F SS=  1.41D+00  RLast= 3.79D-01 DXNew= 5.0454D-01 1.1357D+00
 Trust test= 6.38D-01 RLast= 3.79D-01 DXMaxT set to 5.05D-01
 ITU=  1  0
 Use linear search instead of GDIIS.
     Eigenvalues ---    0.01659   0.02106   0.02121   0.02637   0.02717
     Eigenvalues ---    0.02875   0.15729   0.15999   0.16000   0.16098
     Eigenvalues ---    0.21636   0.22498   0.29409   0.34874   0.35271
     Eigenvalues ---    0.37178   0.45649   0.47030   0.53190   0.55988
     Eigenvalues ---    0.62099
 RFO step:  Lambda=-2.95470576D-03 EMin= 1.65871921D-02
 Quartic linear search produced a step of -0.22425.
 Iteration  1 RMS(Cart)=  0.02613494 RMS(Int)=  0.00050948
 Iteration  2 RMS(Cart)=  0.00042065 RMS(Int)=  0.00033149
 Iteration  3 RMS(Cart)=  0.00000010 RMS(Int)=  0.00033149
 ITry= 1 IFail=0 DXMaxC= 8.76D-02 DCOld= 1.00D+10 DXMaxT= 5.05D-01 DXLimC= 3.00D+00 Rises=F
 Variable       Old X    -DE/DX   Delta X   Delta X   Delta X     New X
                                 (Linear)    (Quad)   (Total)
    R1        2.60610  -0.00696  -0.01580   0.01215  -0.00350   2.60260
    R2        2.58397   0.03923   0.04941   0.02124   0.07061   2.65459
    R3        2.09037   0.00205  -0.01751   0.02867   0.01116   2.10153
    R4        2.58823  -0.01145  -0.00990  -0.00410  -0.01387   2.57435
    R5        2.09645  -0.00081   0.01282  -0.02067  -0.00785   2.08860
    R6        2.58661  -0.01190  -0.01147  -0.00220  -0.01375   2.57286
    R7        2.60230  -0.00555  -0.01083   0.00733  -0.00367   2.59863
    R8        2.10915  -0.00565  -0.01245   0.00527  -0.00718   2.10198
    R9        2.08391   0.00470  -0.00813   0.02163   0.01350   2.09741
    A1        1.84551  -0.00390  -0.00204  -0.00316  -0.00518   1.84034
    A2        2.24204  -0.00039  -0.00698   0.00430  -0.00326   2.23877
    A3        2.19501   0.00430   0.00846   0.00106   0.00893   2.20394
    A4        1.98404  -0.00606  -0.00060  -0.02166  -0.02150   1.96254
    A5        2.26400   0.00176  -0.00067   0.00589   0.00515   2.26915
    A6        2.03515   0.00429   0.00062   0.01576   0.01632   2.05147
    A7        1.76321   0.02059   0.01037   0.03977   0.05063   1.81384
    A8        1.98718  -0.00648   0.00655  -0.03293  -0.02610   1.96108
    A9        2.04539   0.00309  -0.00459   0.01700   0.01258   2.05797
   A10        2.25058   0.00338  -0.00336   0.01641   0.01320   2.26378
   A11        1.84426  -0.00407  -0.01503   0.01675   0.00182   1.84608
   A12        2.15122   0.00886   0.00405   0.02969   0.03366   2.18489
   A13        2.28761  -0.00479   0.01070  -0.04604  -0.03542   2.25219
    D1       -0.01921   0.00153   0.01465  -0.01899  -0.00364  -0.02285
    D2        3.12271   0.00002  -0.00473   0.00797   0.00365   3.12636
    D3        3.08561   0.00206   0.00496   0.04524   0.05020   3.13581
    D4       -0.05566   0.00055  -0.01442   0.07220   0.05749   0.00183
    D5       -0.00147   0.00017   0.00174  -0.00277  -0.00091  -0.00239
    D6        3.12709  -0.00014  -0.00631   0.02524   0.01917  -3.13693
    D7       -3.10758  -0.00023   0.01203  -0.06485  -0.05303   3.12258
    D8        0.02098  -0.00053   0.00398  -0.03684  -0.03294  -0.01196
    D9        0.03053  -0.00207  -0.02453   0.03218   0.00760   0.03814
   D10       -3.11134  -0.00077  -0.00780   0.00898   0.00130  -3.11004
   D11       -0.03160   0.00219   0.02627  -0.03386  -0.00812  -0.03972
   D12        3.10192   0.00113   0.00331   0.02294   0.02560   3.12752
   D13        0.02183  -0.00184  -0.01794   0.02372   0.00512   0.02695
   D14       -3.10530  -0.00165  -0.00862  -0.00821  -0.01675  -3.12206
   D15       -3.11053  -0.00062   0.00829  -0.04121  -0.03357   3.13909
   D16        0.04552  -0.00042   0.01762  -0.07314  -0.05545  -0.00992
         Item               Value     Threshold  Converged?
 Maximum Force            0.039230     0.000450     NO 
 RMS     Force            0.008385     0.000300     NO 
 Maximum Displacement     0.087580     0.001800     NO 
 RMS     Displacement     0.026067     0.001200     NO 
 Predicted change in Energy=-2.806497D-03
 Lowest energy point so far.  Saving SCF results.
 GradGradGradGradGradGradGradGradGradGradGradGradGradGradGradGradGradGrad

 Leave Link  103 at Tue Dec 15 16:10:00 2015, MaxMem=    33554432 cpu:         0.0
 (Enter /home/Applications/g09/g09/l202.exe)
                          Input orientation:                          
 ---------------------------------------------------------------------
 Center     Atomic      Atomic             Coordinates (Angstroms)
 Number     Number       Type             X           Y           Z
 ---------------------------------------------------------------------
      1          6           0        0.958859   -0.704561    0.024064
      2          6           0       -0.366385   -1.079394    0.026183
      3          8           0       -1.209543   -0.009400    0.031574
      4          6           0       -0.375267    1.065423   -0.017551
      5          6           0        0.950319    0.699908   -0.002516
      6          1           0        1.853532    1.344824   -0.015555
      7          1           0       -0.832674    2.079147   -0.037363
      8          1           0       -0.819789   -2.087343    0.030636
      9          1           0        1.859297   -1.357199    0.024868
 ---------------------------------------------------------------------
                    Distance matrix (angstroms):
                    1          2          3          4          5
     1  C    0.000000
     2  C    1.377235   0.000000
     3  O    2.277120   1.362290   0.000000
     4  C    2.216860   2.145282   1.361497   0.000000
     5  C    1.404747   2.213696   2.273606   1.375138   0.000000
     6  H    2.236513   3.287340   3.349414   2.246245   1.109901
     7  H    3.310951   3.193407   2.123396   1.112317   2.254458
     8  H    2.252935   1.105240   2.114180   3.184314   3.301991
     9  H    1.112081   2.242952   3.351774   3.296084   2.249151
                    6          7          8          9
     6  H    0.000000
     7  H    2.784854   0.000000
     8  H    4.350695   4.167064   0.000000
     9  H    2.702331   4.365668   2.776804   0.000000
 Stoichiometry    C4H4O
 Framework group  C1[X(C4H4O)]
 Deg. of freedom    21
 Full point group                 C1      NOp   1
 RotChk:  IX=1 Diff= 1.42D-01
 Largest Abelian subgroup         C1      NOp   1
 Largest concise Abelian subgroup C1      NOp   1
                         Standard orientation:                         
 ---------------------------------------------------------------------
 Center     Atomic      Atomic             Coordinates (Angstroms)
 Number     Number       Type             X           Y           Z
 ---------------------------------------------------------------------
      1          6           0       -1.041344    0.596895    0.004156
      2          6           0        0.239287    1.103475   -0.007539
      3          8           0        1.186174    0.124286    0.013169
      4          6           0        0.464512   -1.029947   -0.011797
      5          6           0       -0.891145   -0.799799    0.003411
      6          1           0       -1.724674   -1.532669    0.006965
      7          1           0        1.021856   -1.992550   -0.015313
      8          1           0        0.588628    2.151923   -0.024020
      9          1           0       -2.003061    1.155268   -0.002370
 ---------------------------------------------------------------------
 Rotational constants (GHZ):      9.7397573      8.9058587      4.6526184
 Leave Link  202 at Tue Dec 15 16:10:00 2015, MaxMem=    33554432 cpu:         0.0
 (Enter /home/Applications/g09/g09/l301.exe)

 Semi-emprical parameters in input format:
 Method=8 CoreType=1 PeptideFC=0.0109550000 RIJScale=0.5291770000
 ****
 H       
 PQN=1 NValence=1 F0ss=0.4721550000 ZetaOverlap=1.1834540000 U=-0.4188110000
 Beta=-0.2132790000 CoreKO=1.0592910000 KON=0,0,0,1.1263880000 KON=1,0,1,0.9506990000
 KON=0,1,1,1.0589200000 KON=2,1,1,1.0589200000 EISol=-0.4188110042 EHeat=0.0830298228
 Alpha=1.4758640000
 GCore=0.0085280000,1.3669200000,2.2563000000
 GCore=0.0003510000,1.4729190000,3.1686430000
 GCore=-0.0013830000,0.4671410000,4.0712970000
 ****
 C       
 PQN=2,2 NValence=4 F0ss=0.4812790000 F0sp=0.4215150000 F0pp=0.3770800000 F2pp=0.2049700000
 G1sp=0.2912820000
 ZetaOverlap=1.6010000000,1.5293440000
 U=-1.7412020000,-1.5534530000
 Beta=-0.6106050000,-0.3368760000 DDN=0,1,0.9006370000 DDN=1,1,0.8573000000
 CoreKO=1.1124280000 KON=0,0,0,1.2563760000 KON=1,0,1,0.7432930000 KON=0,1,1,1.0027900000
 KON=2,1,1,0.8006380000 EISol=-4.4398989268 EHeat=0.2723305520 Alpha=1.3995250000
 DipHyp=1.8011703711
 GCore=0.0008290000,1.4001430000,3.3689620000
 GCore=0.0033490000,1.4001430000,3.5880090000
 GCore=-0.0015210000,1.2643140000,3.4940790000
 GCore=-0.0000990000,1.4996170000,5.0077740000
 ****
 O       
 PQN=2,2 NValence=6 F0ss=0.5666750000 F0sp=0.5639160000 F0pp=0.4651320000 F2pp=0.2487570000
 G1sp=0.4328860000
 ZetaOverlap=2.7010600000,2.2291470000
 U=-3.8435150000,-2.8760900000
 Beta=-1.0926820000,-1.2908370000 DDN=0,1,0.5242670000 DDN=1,1,0.4544990000
 CoreKO=0.8615750000 KON=0,0,0,0.8011410000 KON=1,0,1,0.5176490000 KON=0,1,1,0.8822960000
 KON=2,1,1,0.5160390000 EISol=-11.6164441184 EHeat=0.0949133088 Alpha=2.2050720000
 DipHyp=1.0484736769
 GCore=0.0168040000,1.4001430000,1.8666110000
 GCore=0.0057170000,1.8223580000,2.7307880000
 ****
 
 Standard basis: VSTO-6G (5D, 7F)
 Ernie: Thresh=  0.10000D-02 Tol=  0.10000D-05 Strict=F.
  NNHCO=     0 NNPyr=     0 NCTC=     0               EPep=         0.000000000
    EC=        68.535061501  ECS=         1.812272326   EG=         0.404466333
   EHC=         0.000000000  EAt=       -31.051283842  AtH=         1.516354808
 EPDDG=         0.000000000  ECC=        70.751800161 EAtT=        32.567638650
 There are    24 symmetry adapted cartesian basis functions of A   symmetry.
 There are    24 symmetry adapted basis functions of A   symmetry.
    24 basis functions,   144 primitive gaussians,    24 cartesian basis functions
    13 alpha electrons       13 beta electrons
       nuclear repulsion energy       103.3194388113 Hartrees.
 IExCor=    0 DFT=F Ex=HF Corr=None ExCW=0 ScaHFX=  1.000000
 ScaDFX=  1.000000  1.000000  1.000000  1.000000 ScalE2=  1.000000  1.000000
 IRadAn=      0 IRanWt=     -1 IRanGd=            0 ICorTp=0 IEmpDi=  4
 Integral buffers will be    131072 words long.
 Regular integral format.
 Two-electron integral symmetry is turned off.
 Leave Link  301 at Tue Dec 15 16:10:00 2015, MaxMem=    33554432 cpu:         0.0
 (Enter /home/Applications/g09/g09/l302.exe)
 Do NDO integrals.
 NPDir=0 NMtPBC=     1 NCelOv=     1 NCel=       1 NClECP=     1 NCelD=      1
         NCelK=      1 NCelE2=     1 NClLst=     1 CellRange=     0.0.
 One-electron integrals computed using PRISM.
 NBasis=    24 RedAO= F EigKep=  0.00D+00  NBF=    24
 NBsUse=    24 1.00D-04 EigRej=  0.00D+00 NBFU=    24
 Leave Link  302 at Tue Dec 15 16:10:00 2015, MaxMem=    33554432 cpu:         0.0
 (Enter /home/Applications/g09/g09/l303.exe)
 DipDrv:  MaxL=1.
 Leave Link  303 at Tue Dec 15 16:10:00 2015, MaxMem=    33554432 cpu:         0.0
 (Enter /home/Applications/g09/g09/l401.exe)
 Initial guess from the checkpoint file:  "/home/Applications/g09/scratch/Gau-5250.chk"
 B after Tr=     0.000000    0.000000    0.000000
         Rot=    0.998782   -0.000014    0.000115   -0.049350 Ang=  -5.66 deg.
 Guess basis will be translated and rotated to current coordinates.
 JPrj=0 DoOrth=T DoCkMO=T.
 Leave Link  401 at Tue Dec 15 16:10:00 2015, MaxMem=    33554432 cpu:         0.0
 (Enter /home/Applications/g09/g09/l502.exe)
 Closed shell SCF:
 Using DIIS extrapolation, IDIIS=  1040.
 Overlap will be assumed to be unity.
 Two-electron integral symmetry not used.
 Keep J ints in memory in canonical form, NReq=888082.
 IVT=       79475 IEndB=       79475 NGot=    33554432 MDV=    33473473
 LenX=    33473473 LenY=    33472456
 Requested convergence on RMS density matrix=1.00D-08 within 128 cycles.
 Requested convergence on MAX density matrix=1.00D-06.
 Requested convergence on             energy=1.00D-06.
 No special actions if energy rises.
 FoFCou: FMM=F IPFlag=           0 FMFlag=           0 FMFlg1=           0
         NFxFlg=           0 DoJE=F BraDBF=F KetDBF=F FulRan=T
         wScrn=  0.000000 ICntrl=     600 IOpCl=  2 I1Cent=           0 NGrid=           0
         NMat0=    1 NMatS0=     54 NMatT0=    0 NMatD0=    1 NMtDS0=    0 NMtDT0=    0
 Symmetry not used in FoFCou.

 Cycle   1  Pass 1  IDiag  1:
 E= -2.32883398398461    
 DIIS: error= 3.72D-03 at cycle   1 NSaved=   1.
 NSaved= 1 IEnMin= 1 EnMin= -2.32883398398461     IErMin= 1 ErrMin= 3.72D-03
 ErrMax= 3.72D-03  0.00D+00 EMaxC= 1.00D-01 BMatC= 5.58D-04 BMatP= 5.58D-04
 IDIUse=3 WtCom= 9.63D-01 WtEn= 3.72D-02
 Coeff-Com:  0.100D+01
 Coeff-En:   0.100D+01
 Coeff:      0.100D+01
 GapD=    2.000 DampG=2.000 DampE=1.000 DampFc=2.0000 IDamp=-1.
 RMSDP=1.31D-03 MaxDP=5.78D-03              OVMax= 0.00D+00

 Cycle   2  Pass 1  IDiag  3:
 E= -2.33012024805416     Delta-E=       -0.001286264070 Rises=F Damp=F
 DIIS: error= 1.12D-03 at cycle   2 NSaved=   2.
 NSaved= 2 IEnMin= 2 EnMin= -2.33012024805416     IErMin= 2 ErrMin= 1.12D-03
 ErrMax= 1.12D-03  0.00D+00 EMaxC= 1.00D-01 BMatC= 4.42D-05 BMatP= 5.58D-04
 IDIUse=3 WtCom= 9.89D-01 WtEn= 1.12D-02
 Coeff-Com: -0.353D+00 0.135D+01
 Coeff-En:   0.000D+00 0.100D+01
 Coeff:     -0.349D+00 0.135D+01
 Gap=     0.453 Goal=   None    Shift=    0.000
 RMSDP=5.81D-04 MaxDP=2.77D-03 DE=-1.29D-03 OVMax= 3.54D-03

 Cycle   3  Pass 1  IDiag  3:
 E= -2.33025809096802     Delta-E=       -0.000137842914 Rises=F Damp=F
 DIIS: error= 1.49D-04 at cycle   3 NSaved=   3.
 NSaved= 3 IEnMin= 3 EnMin= -2.33025809096802     IErMin= 3 ErrMin= 1.49D-04
 ErrMax= 1.49D-04  0.00D+00 EMaxC= 1.00D-01 BMatC= 7.49D-07 BMatP= 4.42D-05
 IDIUse=3 WtCom= 9.99D-01 WtEn= 1.49D-03
 Coeff-Com:  0.112D+00-0.486D+00 0.137D+01
 Coeff-En:   0.000D+00 0.000D+00 0.100D+01
 Coeff:      0.112D+00-0.485D+00 0.137D+01
 Gap=     0.453 Goal=   None    Shift=    0.000
 RMSDP=1.17D-04 MaxDP=7.51D-04 DE=-1.38D-04 OVMax= 1.28D-03

 Cycle   4  Pass 1  IDiag  3:
 E= -2.33026199650078     Delta-E=       -0.000003905533 Rises=F Damp=F
 DIIS: error= 4.68D-05 at cycle   4 NSaved=   4.
 NSaved= 4 IEnMin= 4 EnMin= -2.33026199650078     IErMin= 4 ErrMin= 4.68D-05
 ErrMax= 4.68D-05  0.00D+00 EMaxC= 1.00D-01 BMatC= 3.52D-08 BMatP= 7.49D-07
 IDIUse=1 WtCom= 1.00D+00 WtEn= 0.00D+00
 Coeff-Com: -0.267D-01 0.123D+00-0.480D+00 0.138D+01
 Coeff:     -0.267D-01 0.123D+00-0.480D+00 0.138D+01
 Gap=     0.453 Goal=   None    Shift=    0.000
 RMSDP=3.24D-05 MaxDP=2.61D-04 DE=-3.91D-06 OVMax= 4.26D-04

 Cycle   5  Pass 1  IDiag  3:
 E= -2.33026224605546     Delta-E=       -0.000000249555 Rises=F Damp=F
 DIIS: error= 1.30D-05 at cycle   5 NSaved=   5.
 NSaved= 5 IEnMin= 5 EnMin= -2.33026224605546     IErMin= 5 ErrMin= 1.30D-05
 ErrMax= 1.30D-05  0.00D+00 EMaxC= 1.00D-01 BMatC= 2.74D-09 BMatP= 3.52D-08
 IDIUse=1 WtCom= 1.00D+00 WtEn= 0.00D+00
 Coeff-Com:  0.316D-02-0.160D-01 0.957D-01-0.545D+00 0.146D+01
 Coeff:      0.316D-02-0.160D-01 0.957D-01-0.545D+00 0.146D+01
 Gap=     0.453 Goal=   None    Shift=    0.000
 RMSDP=1.06D-05 MaxDP=8.89D-05 DE=-2.50D-07 OVMax= 1.35D-04

 Cycle   6  Pass 1  IDiag  3:
 E= -2.33026226683514     Delta-E=       -0.000000020780 Rises=F Damp=F
 DIIS: error= 1.95D-06 at cycle   6 NSaved=   6.
 NSaved= 6 IEnMin= 6 EnMin= -2.33026226683514     IErMin= 6 ErrMin= 1.95D-06
 ErrMax= 1.95D-06  0.00D+00 EMaxC= 1.00D-01 BMatC= 1.11D-10 BMatP= 2.74D-09
 IDIUse=1 WtCom= 1.00D+00 WtEn= 0.00D+00
 Coeff-Com: -0.538D-03 0.298D-02-0.239D-01 0.175D+00-0.613D+00 0.146D+01
 Coeff:     -0.538D-03 0.298D-02-0.239D-01 0.175D+00-0.613D+00 0.146D+01
 Gap=     0.453 Goal=   None    Shift=    0.000
 RMSDP=1.91D-06 MaxDP=1.48D-05 DE=-2.08D-08 OVMax= 2.23D-05

 Cycle   7  Pass 1  IDiag  3:
 E= -2.33026226752591     Delta-E=       -0.000000000691 Rises=F Damp=F
 DIIS: error= 2.03D-07 at cycle   7 NSaved=   7.
 NSaved= 7 IEnMin= 7 EnMin= -2.33026226752591     IErMin= 7 ErrMin= 2.03D-07
 ErrMax= 2.03D-07  0.00D+00 EMaxC= 1.00D-01 BMatC= 3.42D-12 BMatP= 1.11D-10
 IDIUse=1 WtCom= 1.00D+00 WtEn= 0.00D+00
 Coeff-Com:  0.193D-04-0.299D-03 0.601D-02-0.568D-01 0.221D+00-0.632D+00
 Coeff-Com:  0.146D+01
 Coeff:      0.193D-04-0.299D-03 0.601D-02-0.568D-01 0.221D+00-0.632D+00
 Coeff:      0.146D+01
 Gap=     0.453 Goal=   None    Shift=    0.000
 RMSDP=2.63D-07 MaxDP=1.69D-06 DE=-6.91D-10 OVMax= 2.88D-06

 Cycle   8  Pass 1  IDiag  3:
 E= -2.33026226754201     Delta-E=       -0.000000000016 Rises=F Damp=F
 DIIS: error= 2.88D-08 at cycle   8 NSaved=   8.
 NSaved= 8 IEnMin= 8 EnMin= -2.33026226754201     IErMin= 8 ErrMin= 2.88D-08
 ErrMax= 2.88D-08  0.00D+00 EMaxC= 1.00D-01 BMatC= 7.50D-14 BMatP= 3.42D-12
 IDIUse=1 WtCom= 1.00D+00 WtEn= 0.00D+00
 Coeff-Com: -0.521D-05 0.850D-04-0.173D-02 0.164D-01-0.641D-01 0.187D+00
 Coeff-Com: -0.510D+00 0.137D+01
 Coeff:     -0.521D-05 0.850D-04-0.173D-02 0.164D-01-0.641D-01 0.187D+00
 Coeff:     -0.510D+00 0.137D+01
 Gap=     0.453 Goal=   None    Shift=    0.000
 RMSDP=3.58D-08 MaxDP=1.90D-07 DE=-1.61D-11 OVMax= 2.50D-07

 Cycle   9  Pass 1  IDiag  3:
 E= -2.33026226754261     Delta-E=       -0.000000000001 Rises=F Damp=F
 DIIS: error= 5.48D-09 at cycle   9 NSaved=   9.
 NSaved= 9 IEnMin= 9 EnMin= -2.33026226754261     IErMin= 9 ErrMin= 5.48D-09
 ErrMax= 5.48D-09  0.00D+00 EMaxC= 1.00D-01 BMatC= 2.50D-15 BMatP= 7.50D-14
 IDIUse=1 WtCom= 1.00D+00 WtEn= 0.00D+00
 Coeff-Com:  0.309D-05-0.321D-04 0.537D-03-0.493D-02 0.192D-01-0.561D-01
 Coeff-Com:  0.157D+00-0.529D+00 0.141D+01
 Coeff:      0.309D-05-0.321D-04 0.537D-03-0.493D-02 0.192D-01-0.561D-01
 Coeff:      0.157D+00-0.529D+00 0.141D+01
 Gap=     0.453 Goal=   None    Shift=    0.000
 RMSDP=7.26D-09 MaxDP=3.38D-08 DE=-5.97D-13 OVMax= 5.53D-08

 Cycle  10  Pass 2  IDiag  1:
 SCF Done:  E(RAM1) =  -2.33026226754     A.U. after   10 cycles
            NFock=  9  Conv=0.73D-08     -V/T= 0.8738
 KE=-1.846027182963D+01 PE=-1.711970849488D+02 EE= 8.400765569958D+01
 Leave Link  502 at Tue Dec 15 16:10:00 2015, MaxMem=    33554432 cpu:         0.0
 (Enter /home/Applications/g09/g09/l701.exe)
 Compute integral first derivatives.
 ... and contract with generalized density number  0.
 Leave Link  701 at Tue Dec 15 16:10:00 2015, MaxMem=    33554432 cpu:         0.0
 (Enter /home/Applications/g09/g09/l702.exe)
 L702 exits ... SP integral derivatives will be done elsewhere.
 Leave Link  702 at Tue Dec 15 16:10:00 2015, MaxMem=    33554432 cpu:         0.0
 (Enter /home/Applications/g09/g09/l703.exe)
 Compute integral first derivatives, UseDBF=F ICtDFT=           0.
 Integral derivatives from FoFJK, PRISM(SPDF).
 Calling FoFJK, ICntrl=      2127 FMM=F ISym2X=0 I1Cent= 0 IOpClX= 0 NMat=1 NMatS=1 NMatT=0.
 FoFJK:  IHMeth= 8 ICntrl=    2127 DoSepK=F KAlg= 0 I1Cent=   0 FoldK=F
 IRaf=         0 NMat=   1 IRICut=       1 DoRegI=T DoRafI=F ISym2E= 0.
 FoFCou: FMM=F IPFlag=           0 FMFlag=      100000 FMFlg1=         800
         NFxFlg=           0 DoJE=F BraDBF=F KetDBF=F FulRan=T
         wScrn=  0.000000 ICntrl=    2127 IOpCl=  0 I1Cent=           0 NGrid=           0
         NMat0=    1 NMatS0=      1 NMatT0=    0 NMatD0=    1 NMtDS0=    0 NMtDT0=    0
 Symmetry not used in FoFCou.
 Leave Link  703 at Tue Dec 15 16:10:00 2015, MaxMem=    33554432 cpu:         0.0
 (Enter /home/Applications/g09/g09/l716.exe)
 Dipole        = 3.17503147D-01 3.12379032D-02-4.20693655D-03
 ***** Axes restored to original set *****
 -------------------------------------------------------------------
 Center     Atomic                   Forces (Hartrees/Bohr)
 Number     Number              X              Y              Z
 -------------------------------------------------------------------
      1        6          -0.002205545    0.009767630   -0.003260968
      2        6           0.005831252    0.008330278    0.004945953
      3        8          -0.003309048   -0.000184422   -0.007533575
      4        6           0.002995090   -0.002544756    0.007673627
      5        6           0.002459809   -0.012550777   -0.002563515
      6        1          -0.002490576    0.000037917   -0.000013031
      7        1           0.000661453   -0.003647122   -0.000383473
      8        1          -0.000818531   -0.001506068    0.000528254
      9        1          -0.003123904    0.002297321    0.000606729
 -------------------------------------------------------------------
 Cartesian Forces:  Max     0.012550777 RMS     0.004673371
 Leave Link  716 at Tue Dec 15 16:10:00 2015, MaxMem=    33554432 cpu:         0.0
 (Enter /home/Applications/g09/g09/l103.exe)

 GradGradGradGradGradGradGradGradGradGradGradGradGradGradGradGradGradGrad
 Berny optimization.
 Using GEDIIS/GDIIS optimizer.
 FormGI is forming the generalized inverse of G from B-inverse, IUseBI=4.
 Internal  Forces:  Max     0.014002724 RMS     0.003146060
 Search for a local minimum.
 Step number   3 out of a maximum of   48
 All quantities printed in internal units (Hartrees-Bohrs-Radians)
 RMS Force = .31461D-02 SwitMx=.10000D-02 MixMth= 1
 Mixed Optimization -- RFO/linear search
 Update second derivatives using D2CorX and points    1    2    3
 DE= -1.95D-03 DEPred=-2.81D-03 R= 6.94D-01
 TightC=F SS=  1.41D+00  RLast= 1.68D-01 DXNew= 8.4853D-01 5.0253D-01
 Trust test= 6.94D-01 RLast= 1.68D-01 DXMaxT set to 5.05D-01
 ITU=  1  1  0
 Use linear search instead of GDIIS.
     Eigenvalues ---    0.01638   0.02094   0.02122   0.02452   0.02716
     Eigenvalues ---    0.03270   0.14295   0.15999   0.16020   0.16078
     Eigenvalues ---    0.22068   0.23314   0.29599   0.34957   0.35746
     Eigenvalues ---    0.37940   0.47345   0.52215   0.55676   0.57331
     Eigenvalues ---    0.67463
 RFO step:  Lambda=-1.19551737D-03 EMin= 1.63801717D-02
 Quartic linear search produced a step of -0.22359.
 Iteration  1 RMS(Cart)=  0.01875491 RMS(Int)=  0.00073485
 Iteration  2 RMS(Cart)=  0.00064654 RMS(Int)=  0.00038575
 Iteration  3 RMS(Cart)=  0.00000026 RMS(Int)=  0.00038575
 ITry= 1 IFail=0 DXMaxC= 8.82D-02 DCOld= 1.00D+10 DXMaxT= 5.05D-01 DXLimC= 3.00D+00 Rises=F
 Variable       Old X    -DE/DX   Delta X   Delta X   Delta X     New X
                                 (Linear)    (Quad)   (Total)
    R1        2.60260  -0.00402   0.00078  -0.00314  -0.00232   2.60027
    R2        2.65459  -0.01400  -0.01579  -0.00780  -0.02341   2.63118
    R3        2.10153  -0.00388  -0.00249   0.00195  -0.00055   2.10098
    R4        2.57435  -0.00302   0.00310  -0.00783  -0.00488   2.56948
    R5        2.08860   0.00171   0.00176  -0.00239  -0.00063   2.08797
    R6        2.57286  -0.00269   0.00307  -0.00666  -0.00372   2.56914
    R7        2.59863  -0.00208   0.00082  -0.00168  -0.00080   2.59784
    R8        2.10198  -0.00359   0.00160  -0.00768  -0.00607   2.09590
    R9        2.09741  -0.00200  -0.00302   0.00411   0.00109   2.09850
    A1        1.84034   0.00118   0.00116   0.00070   0.00144   1.84178
    A2        2.23877  -0.00057   0.00073  -0.00156  -0.00059   2.23818
    A3        2.20394  -0.00060  -0.00200   0.00103  -0.00073   2.20321
    A4        1.96254   0.00276   0.00481  -0.00120   0.00266   1.96520
    A5        2.26915  -0.00123  -0.00115  -0.00110  -0.00208   2.26707
    A6        2.05147  -0.00151  -0.00365   0.00253  -0.00095   2.05052
    A7        1.81384  -0.00612  -0.01132   0.00537  -0.00731   1.80653
    A8        1.96108   0.00293   0.00584  -0.00274   0.00188   1.96296
    A9        2.05797  -0.00239  -0.00281  -0.00222  -0.00518   2.05278
   A10        2.26378  -0.00047  -0.00295   0.00627   0.00317   2.26696
   A11        1.84608  -0.00061  -0.00041   0.00179   0.00090   1.84697
   A12        2.18489   0.00186  -0.00753   0.02240   0.01501   2.19990
   A13        2.25219  -0.00125   0.00792  -0.02406  -0.01600   2.23620
    D1       -0.02285   0.00173   0.00081   0.04665   0.04756   0.02470
    D2        3.12636   0.00009  -0.00082   0.00938   0.00870   3.13505
    D3        3.13581   0.00095  -0.01122   0.03608   0.02484  -3.12254
    D4        0.00183  -0.00070  -0.01285  -0.00119  -0.01402  -0.01219
    D5       -0.00239   0.00023   0.00020   0.00854   0.00877   0.00639
    D6       -3.13693  -0.00047  -0.00429  -0.00891  -0.01364   3.13262
    D7        3.12258   0.00099   0.01186   0.01881   0.03090  -3.12970
    D8       -0.01196   0.00030   0.00737   0.00136   0.00849  -0.00347
    D9        0.03814  -0.00309  -0.00170  -0.08143  -0.08297  -0.04484
   D10       -3.11004  -0.00167  -0.00029  -0.04926  -0.04937   3.12378
   D11       -0.03972   0.00324   0.00182   0.08721   0.08882   0.04910
   D12        3.12752   0.00099  -0.00572   0.03889   0.03307  -3.12260
   D13        0.02695  -0.00212  -0.00115  -0.06137  -0.06265  -0.03570
   D14       -3.12206  -0.00137   0.00375  -0.04274  -0.03945   3.12168
   D15        3.13909   0.00044   0.00751  -0.00604   0.00158   3.14067
   D16       -0.00992   0.00119   0.01240   0.01258   0.02478   0.01486
         Item               Value     Threshold  Converged?
 Maximum Force            0.014003     0.000450     NO 
 RMS     Force            0.003146     0.000300     NO 
 Maximum Displacement     0.088200     0.001800     NO 
 RMS     Displacement     0.018814     0.001200     NO 
 Predicted change in Energy=-7.846434D-04
 Lowest energy point so far.  Saving SCF results.
 GradGradGradGradGradGradGradGradGradGradGradGradGradGradGradGradGradGrad

 Leave Link  103 at Tue Dec 15 16:10:00 2015, MaxMem=    33554432 cpu:         0.0
 (Enter /home/Applications/g09/g09/l202.exe)
                          Input orientation:                          
 ---------------------------------------------------------------------
 Center     Atomic      Atomic             Coordinates (Angstroms)
 Number     Number       Type             X           Y           Z
 ---------------------------------------------------------------------
      1          6           0        0.957615   -0.700876    0.017123
      2          6           0       -0.366683   -1.074230    0.032311
      3          8           0       -1.210419   -0.009021   -0.015099
      4          6           0       -0.371911    1.061050   -0.001932
      5          6           0        0.952089    0.691194   -0.010697
[...]
     38  0.161480D-05 -0.127659D-05  0.000000D+00  0.103071D-05  0.000000D+00
               16            17            18            19            20 
     16  0.165342D+00
     17 -0.796625D-01  0.123821D+00
     18  0.447450D-01 -0.711989D-01  0.985718D-01
     19  0.349175D-01 -0.526222D-01 -0.273729D-01  0.799951D-01
     20 -0.300949D-02 -0.360525D-01  0.242981D-01  0.117545D-01  0.983983D-01
     21  0.607499D-02  0.193008D-01 -0.123404D-01 -0.696032D-02 -0.488281D-01
     22 -0.306550D-02  0.167518D-01 -0.119576D-01 -0.479415D-02 -0.495702D-01
     23  0.100483D-04 -0.294782D-05  0.000000D+00  0.381422D-05  0.117257D-05
     24  0.917967D-05 -0.561559D-05  0.256051D-05  0.166945D-05  0.000000D+00
     25  0.265521D-05  0.322393D-05 -0.248183D-05  0.000000D+00  0.323673D-05
     26  0.178663D-05  0.000000D+00  0.000000D+00 -0.137610D-05  0.236973D-05
     27  0.102359D-05  0.375858D-05 -0.113621D-05  0.000000D+00  0.232733D-05
     28 -0.506443D-05  0.460422D-05  0.000000D+00 -0.297761D-05  0.000000D+00
     29  0.609764D-05  0.000000D+00  0.000000D+00  0.194278D-05  0.178079D-05
     30  0.000000D+00  0.000000D+00  0.000000D+00  0.000000D+00  0.000000D+00
     31  0.572443D-05 -0.873538D-05  0.678165D-05  0.000000D+00  0.193170D-05
     32  0.761768D-05 -0.519301D-05  0.322473D-05  0.000000D+00  0.220671D-05
     33 -0.536896D-05  0.000000D+00 -0.228227D-05  0.659151D-05  0.122810D-05
     34 -0.596748D-05 -0.156968D-05  0.129366D-04 -0.129154D-04  0.321644D-05
     35 -0.781342D-05  0.000000D+00  0.000000D+00 -0.499249D-05  0.107694D-05
     36 -0.115220D-05  0.000000D+00  0.000000D+00 -0.208598D-05  0.265334D-05
     37 -0.860066D-05  0.404235D-05  0.138838D-05 -0.307352D-05  0.000000D+00
     38 -0.193943D-05  0.325113D-05  0.000000D+00  0.000000D+00  0.108474D-05
               21            22            23            24            25 
     21  0.756575D-01
     22 -0.268294D-01  0.763995D-01
     23  0.000000D+00 -0.195185D-05  0.260011D-01
     24  0.000000D+00  0.000000D+00  0.397402D-02  0.155381D-01
     25  0.000000D+00 -0.325641D-05  0.100358D-01 -0.604592D-02  0.141342D-01
     26  0.000000D+00 -0.158645D-05 -0.119913D-01  0.551817D-02 -0.194753D-02
     27  0.000000D+00  0.000000D+00 -0.195085D-01 -0.686883D-02 -0.416547D-02
     28  0.196932D-05 -0.318623D-05 -0.914069D-02 -0.361051D-02  0.724523D-03
     29 -0.152600D-05  0.000000D+00 -0.388648D-02  0.293570D-02 -0.817576D-02
     30  0.141662D-05 -0.241823D-05  0.648137D-02  0.619402D-02 -0.328576D-02
     31 -0.144914D-05  0.000000D+00 -0.208042D-01  0.707991D-03 -0.113948D-01
     32  0.000000D+00 -0.177599D-05 -0.171482D-02 -0.931383D-02  0.254215D-02
     33  0.000000D+00  0.000000D+00  0.746799D-02 -0.540348D-02  0.854717D-02
     34  0.000000D+00 -0.226467D-05  0.733967D-02  0.487257D-03  0.212440D-02
     35 -0.108047D-05  0.000000D+00  0.776734D-02  0.791543D-02 -0.282540D-02
     36  0.000000D+00 -0.324427D-05 -0.282529D-02  0.458646D-02 -0.782141D-02
     37 -0.102215D-05  0.000000D+00  0.791542D-02  0.111763D-02  0.458636D-02
     38  0.000000D+00 -0.137436D-05 -0.267721D-02 -0.221133D-02 -0.409654D-03
               26            27            28            29            30 
     26  0.155619D-01
     27  0.847423D-02  0.225407D-01
     28  0.625470D-02  0.752451D-02  0.117247D-01
     29 -0.135358D-02  0.752749D-02 -0.212862D-02  0.117246D-01
     30 -0.357311D-02 -0.748871D-02  0.207159D-02  0.206845D-02  0.116288D-01
     31  0.101174D-01  0.770465D-02  0.664734D-02 -0.150247D-02 -0.255979D-02
     32 -0.505685D-02 -0.324933D-02  0.185470D-02 -0.741479D-02 -0.231076D-02
     33 -0.432430D-02  0.770418D-02 -0.150352D-02  0.664820D-02 -0.255950D-02
     34 -0.472801D-02 -0.324930D-02 -0.741404D-02  0.185385D-02 -0.231089D-02
     35 -0.267731D-02 -0.195080D-01 -0.388389D-02 -0.914303D-02  0.648113D-02
     36 -0.409655D-03 -0.416629D-02 -0.817517D-02  0.722425D-03 -0.328645D-02
     37 -0.221143D-02 -0.686794D-02  0.293675D-02 -0.361045D-02  0.619424D-02
     38  0.562232D-04  0.847382D-02 -0.135453D-02  0.625501D-02 -0.357334D-02
               31            32            33            34            35 
     31  0.245519D-01
     32  0.590871D-02  0.124943D-01
     33 -0.192847D-01 -0.812985D-02  0.245509D-01
     34 -0.813063D-02 -0.219211D-02  0.590930D-02  0.124925D-01
     35  0.746738D-02  0.733904D-02 -0.208029D-01 -0.171514D-02  0.259995D-01
     36  0.854761D-02  0.212434D-02 -0.113955D-01  0.253990D-02  0.100366D-01
     37 -0.540419D-02  0.486998D-03  0.709221D-03 -0.931198D-02  0.397264D-02
     38 -0.432395D-02 -0.472770D-02  0.101165D-01 -0.505695D-02 -0.119903D-01
               36            37            38 
     36  0.141324D-01
     37 -0.604461D-02  0.155369D-01
     38 -0.194883D-02  0.551967D-02  0.155611D-01
 Leave Link  716 at Tue Dec 15 16:10:01 2015, MaxMem=    33554432 cpu:         0.0
 (Enter /home/Applications/g09/g09/l103.exe)

 GradGradGradGradGradGradGradGradGradGradGradGradGradGradGradGradGradGrad
 Berny optimization.
 Red2BG is reusing G-inverse.
 Internal  Forces:  Max     0.000128033 RMS     0.000037017
 Search for a local minimum.
 Step number   1 out of a maximum of    2
 All quantities printed in internal units (Hartrees-Bohrs-Radians)
 Second derivative matrix not updated -- analytic derivatives used.
 ITU=  0
     Eigenvalues ---    0.01603   0.02056   0.03326   0.03885   0.08240
     Eigenvalues ---    0.08308   0.09949   0.10083   0.10946   0.11012
     Eigenvalues ---    0.20175   0.30863   0.38520   0.39232   0.39859
     Eigenvalues ---    0.40908   0.59136   0.60718   0.66381   0.66753
     Eigenvalues ---    0.94237
 Angle between quadratic step and forces=  55.27 degrees.
 Linear search not attempted -- first point.
 Iteration  1 RMS(Cart)=  0.00009551 RMS(Int)=  0.00000002
 Iteration  2 RMS(Cart)=  0.00000001 RMS(Int)=  0.00000001
 ITry= 1 IFail=0 DXMaxC= 2.96D-04 DCOld= 1.00D+10 DXMaxT= 3.00D-01 DXLimC= 3.00D+00 Rises=F
 Variable       Old X    -DE/DX   Delta X   Delta X   Delta X     New X
                                 (Linear)    (Quad)   (Total)
    R1        2.59863   0.00008   0.00000   0.00010   0.00010   2.59873
    R2        2.63447   0.00013   0.00000   0.00018   0.00018   2.63465
    R3        2.09284   0.00007   0.00000   0.00016   0.00016   2.09300
    R4        2.57067   0.00000   0.00000  -0.00002  -0.00002   2.57064
    R5        2.09415   0.00000   0.00000   0.00000   0.00000   2.09415
    R6        2.57074  -0.00004   0.00000  -0.00010  -0.00010   2.57064
    R7        2.59865   0.00007   0.00000   0.00008   0.00008   2.59873
    R8        2.09427  -0.00005   0.00000  -0.00011  -0.00011   2.09415
    R9        2.09283   0.00007   0.00000   0.00017   0.00017   2.09300
    A1        1.84238  -0.00004   0.00000  -0.00007  -0.00007   1.84231
    A2        2.23470   0.00001   0.00000  -0.00007  -0.00007   2.23464
    A3        2.20610   0.00003   0.00000   0.00014   0.00014   2.20623
    A4        1.96961   0.00002   0.00000   0.00006   0.00006   1.96968
    A5        2.26401  -0.00001   0.00000  -0.00003  -0.00003   2.26398
    A6        2.04956  -0.00001   0.00000  -0.00003  -0.00003   2.04953
    A7        1.80081   0.00002   0.00000  -0.00002  -0.00002   1.80080
    A8        1.96958   0.00003   0.00000   0.00009   0.00009   1.96968
    A9        2.04952  -0.00002   0.00000   0.00001   0.00001   2.04953
   A10        2.26408  -0.00002   0.00000  -0.00010  -0.00010   2.26398
   A11        1.84238  -0.00003   0.00000  -0.00007  -0.00007   1.84231
   A12        2.20628   0.00001   0.00000  -0.00005  -0.00005   2.20623
   A13        2.23452   0.00002   0.00000   0.00012   0.00012   2.23464
    D1       -0.00016   0.00001   0.00000   0.00016   0.00016   0.00000
    D2       -3.14152   0.00000   0.00000  -0.00007  -0.00007   3.14159
    D3       -3.14143   0.00000   0.00000  -0.00016  -0.00016   3.14159
    D4        0.00039  -0.00001   0.00000  -0.00039  -0.00039   0.00000
    D5        0.00004   0.00000   0.00000  -0.00004  -0.00004   0.00000
    D6       -3.14149  -0.00001   0.00000  -0.00011  -0.00011   3.14159
    D7        3.14132   0.00001   0.00000   0.00027   0.00027  -3.14159
    D8       -0.00021   0.00001   0.00000   0.00021   0.00021   0.00000
    D9        0.00020  -0.00002   0.00000  -0.00020  -0.00020   0.00000
   D10       -3.14159   0.00000   0.00000   0.00000   0.00000  -3.14159
   D11       -0.00017   0.00002   0.00000   0.00017   0.00017   0.00000
   D12       -3.14154   0.00000   0.00000  -0.00005  -0.00005  -3.14159
   D13        0.00008  -0.00001   0.00000  -0.00008  -0.00008   0.00000
   D14       -3.14158  -0.00001   0.00000  -0.00002  -0.00002  -3.14159
   D15        3.14142   0.00001   0.00000   0.00017   0.00017   3.14159
   D16       -0.00024   0.00001   0.00000   0.00024   0.00024   0.00000
         Item               Value     Threshold  Converged?
 Maximum Force            0.000128     0.000450     YES
 RMS     Force            0.000037     0.000300     YES
 Maximum Displacement     0.000296     0.001800     YES
 RMS     Displacement     0.000096     0.001200     YES
 Predicted change in Energy=-5.450088D-08
 Optimization completed.
    -- Stationary point found.
                           ----------------------------
                           !   Optimized Parameters   !
                           ! (Angstroms and Degrees)  !
 --------------------------                            --------------------------
 ! Name  Definition              Value          Derivative Info.                !
 --------------------------------------------------------------------------------
 ! R1    R(1,2)                  1.3751         -DE/DX =    0.0001              !
 ! R2    R(1,5)                  1.3941         -DE/DX =    0.0001              !
 ! R3    R(1,9)                  1.1075         -DE/DX =    0.0001              !
 ! R4    R(2,3)                  1.3603         -DE/DX =    0.0                 !
 ! R5    R(2,8)                  1.1082         -DE/DX =    0.0                 !
 ! R6    R(3,4)                  1.3604         -DE/DX =    0.0                 !
 ! R7    R(4,5)                  1.3751         -DE/DX =    0.0001              !
 ! R8    R(4,7)                  1.1082         -DE/DX =    0.0                 !
 ! R9    R(5,6)                  1.1075         -DE/DX =    0.0001              !
 ! A1    A(2,1,5)              105.5608         -DE/DX =    0.0                 !
 ! A2    A(2,1,9)              128.0391         -DE/DX =    0.0                 !
 ! A3    A(5,1,9)              126.4            -DE/DX =    0.0                 !
 ! A4    A(1,2,3)              112.8505         -DE/DX =    0.0                 !
 ! A5    A(1,2,8)              129.7185         -DE/DX =    0.0                 !
 ! A6    A(3,2,8)              117.431          -DE/DX =    0.0                 !
 ! A7    A(2,3,4)              103.179          -DE/DX =    0.0                 !
 ! A8    A(3,4,5)              112.8487         -DE/DX =    0.0                 !
 ! A9    A(3,4,7)              117.4288         -DE/DX =    0.0                 !
 ! A10   A(5,4,7)              129.7225         -DE/DX =    0.0                 !
 ! A11   A(1,5,4)              105.5609         -DE/DX =    0.0                 !
 ! A12   A(1,5,6)              126.4107         -DE/DX =    0.0                 !
 ! A13   A(4,5,6)              128.0284         -DE/DX =    0.0                 !
 ! D1    D(5,1,2,3)             -0.009          -DE/DX =    0.0                 !
 ! D2    D(5,1,2,8)            180.004          -DE/DX =    0.0                 !
 ! D3    D(9,1,2,3)            180.0094         -DE/DX =    0.0                 !
 ! D4    D(9,1,2,8)              0.0224         -DE/DX =    0.0                 !
 ! D5    D(2,1,5,4)              0.0026         -DE/DX =    0.0                 !
 ! D6    D(2,1,5,6)            180.0062         -DE/DX =    0.0                 !
 ! D7    D(9,1,5,4)           -180.0154         -DE/DX =    0.0                 !
 ! D8    D(9,1,5,6)             -0.0118         -DE/DX =    0.0                 !
 ! D9    D(1,2,3,4)              0.0114         -DE/DX =    0.0                 !
 ! D10   D(8,2,3,4)           -179.9999         -DE/DX =    0.0                 !
 ! D11   D(2,3,4,5)             -0.0097         -DE/DX =    0.0                 !
 ! D12   D(2,3,4,7)           -179.997          -DE/DX =    0.0                 !
 ! D13   D(3,4,5,1)              0.0046         -DE/DX =    0.0                 !
 ! D14   D(3,4,5,6)           -179.9991         -DE/DX =    0.0                 !
 ! D15   D(7,4,5,1)            179.99           -DE/DX =    0.0                 !
 ! D16   D(7,4,5,6)             -0.0137         -DE/DX =    0.0                 !
 --------------------------------------------------------------------------------
 GradGradGradGradGradGradGradGradGradGradGradGradGradGradGradGradGradGrad

 Leave Link  103 at Tue Dec 15 16:10:01 2015, MaxMem=    33554432 cpu:         0.0
 (Enter /home/Applications/g09/g09/l9999.exe)
 1\1\GINC-DUSTIN-DESKTOP\Freq\RAM1\ZDO\C4H4O1\DUSTIN\15-Dec-2015\0\\#P 
 Geom=AllCheck Guess=TCheck SCRF=Check GenChk RAM1/ZDO Freq\\AM1-Repara
 m Input\\0,1\C,0.95830854,-0.7008466692,0.0181166495\C,-0.3656490752,-
 1.0724418959,0.0256536931\O,-1.2130602118,-0.0084267992,0.0087748544\C
 ,-0.3701208013,1.0591496489,-0.0101417528\C,0.9553895809,0.6930536467,
 -0.0053295863\H,1.8452919007,1.3521748875,-0.0173778082\H,-0.825850669
 4,2.0692155049,-0.0265217303\H,-0.8170502329,-2.084364545,0.0431748663
 \H,1.8510899689,-1.3561087787,0.0279928142\\Version=ES64L-G09RevD.01\S
 tate=1-A\HF=-2.3308112\RMSD=3.479e-10\RMSF=4.901e-05\ZeroPoint=0.07730
 12\Thermal=0.0807397\Dipole=-0.3314731,-0.0006336,0.0003486\DipoleDeri
 v=-0.5026603,0.2577579,-0.0040452,0.2628442,-0.2580106,-0.0008746,-0.0
 041865,-0.0009438,-0.2974122,0.0883108,-0.0643069,0.000656,-0.5256786,
 -0.8486493,0.0102719,0.008427,0.0097514,-0.270585,-0.3535747,-0.002478
 2,0.0006625,-0.0023842,0.8097239,-0.0098155,0.0007216,-0.0098583,0.222
 8897,0.085715,0.0683523,-0.0016112,0.5295653,-0.8461566,0.0090582,-0.0
 092923,0.0096133,-0.2706098,-0.5003701,-0.2588213,0.0046238,-0.2639026
 ,-0.2600782,-0.000421,0.0046437,-0.0003493,-0.2973839,0.3477796,0.1046
 65,-0.0018864,0.1038419,0.2810026,-0.0010088,-0.0018745,-0.0010107,0.2
 275549,0.2434692,-0.0962536,0.0016013,-0.1005082,0.4206208,-0.003103,0
 .0016665,-0.0031007,0.2289971,0.2426337,0.0954853,-0.0016152,0.0997512
 ,0.4214343,-0.0033385,-0.0016978,-0.0033427,0.2289952,0.3486954,-0.104
 4004,0.0016144,-0.103529,0.2801119,-0.0007686,0.0015917,-0.0007591,0.2
 275537\Polar=36.5850603,-0.0066933,39.3039859,-0.0306043,-0.5399926,7.
 1455929\HyperPolar=0.7051078,0.0686847,-17.4145463,-0.0939077,0.010591
 8,0.3616398,0.015183,4.1772566,0.007628,-0.0142808\PG=C01 [X(C4H4O1)]\
 NImag=0\\1.04044524,-0.07458036,0.91771417,0.00039060,-0.01154982,0.22
 426555,-0.57155476,-0.08872639,0.00191743,0.98223140,-0.19360860,-0.12
 372952,0.00005212,0.08954361,0.90990254,0.00367895,-0.00005899,-0.1322
 6758,-0.00228129,-0.01138847,0.23629116,-0.13168068,-0.00360082,0.0002
 3920,-0.29608903,0.24086892,-0.00382745,0.83255526,0.06800444,-0.00676
 839,0.00064403,0.22773122,-0.34652803,0.00370607,-0.00002631,0.8096365
 1,-0.00096099,0.00072813,0.03588434,-0.00361311,0.00369581,-0.11023230
 ,-0.00078153,-0.01138790,0.13182033,0.01196999,0.11056447,-0.00184910,
 -0.00161724,-0.00154900,0.00004215,-0.29407914,-0.22745034,0.00403028,
 0.98293293,0.02909142,-0.02640140,0.00078177,0.00209841,-0.13090645,0.
 00246169,-0.24058632,-0.34841879,0.00427617,-0.08928728,0.90902172,-0.
 00048100,0.00069391,0.02185903,-0.00001700,0.00246355,0.01572204,0.004
 25534,0.00426541,-0.11026349,0.00070549,-0.01121390,0.23631353,-0.0866
 7635,-0.05553695,0.00090058,0.01255588,-0.02892862,0.00049484,-0.13140
 208,-0.06851959,0.00133344,-0.57271137,0.19173482,-0.00277885,1.039750
 85,0.05759258,-0.57768036,0.00767885,-0.11040262,-0.02697870,0.0009363
 0,0.00308695,-0.00704134,0.00071055,0.08685557,-0.12256198,-0.00024707
 ,0.07508712,0.91838399,-0.00100087,0.00779653,-0.11775430,0.00186449,0
 .00085027,0.02185441,0.00012648,0.00079521,0.03587997,-0.00101544,-0.0
 0036006,-0.13226017,-0.00211185,-0.01176031,0.22427521,-0.00028867,-0.
 00633892,0.00011671,0.00172875,0.00124340,-0.00001641,-0.00267282,0.00
 103626,-0.00000974,-0.03066770,-0.01621683,0.00031372,-0.23996311,-0.1
 4613211,0.00265645,0.27145625,-0.02360575,-0.02566703,0.00061007,0.000
 73947,-0.00205455,0.00013623,0.00250033,0.00217717,0.00003579,0.001775
 14,0.00537478,0.00005148,-0.14763753,-0.15005580,0.00174072,0.16633103
 ,0.17014889,0.00040708,0.00059146,0.00910343,-0.00000743,0.00013490,0.
 00607543,-0.00003434,0.00003742,0.00446195,0.00001094,0.00007062,0.008
 52280,0.00268178,0.00173958,-0.05603848,-0.00305569,-0.00252025,0.0310
 0639,-0.00229664,-0.00051139,0.00001536,-0.00169733,-0.00543295,0.0001
 0277,0.01303973,-0.01617827,0.00026191,-0.09582375,0.11896488,-0.00194
 360,-0.01883465,0.02696622,-0.00042087,-0.00037069,0.00008104,-0.00000
 217,0.10571959,-0.00025923,0.00139741,0.00004437,-0.00488481,-0.000439
 06,0.00015591,0.00349011,-0.05263202,0.00094682,0.11493460,-0.28364956
 ,0.00370582,0.00984329,-0.00992336,0.00033848,0.00056977,0.00086457,-0
 .00003342,-0.12413614,0.34557519,0.00001075,0.00004370,0.00403709,0.00
 009419,0.00015663,0.00851982,-0.00006976,0.00096713,0.00399282,-0.0018
 7249,0.00370173,-0.05449017,-0.00013573,0.00032156,0.01090021,-0.00001
 030,-0.00003303,-0.00109384,0.00199275,-0.00515369,0.02955544,-0.01868
 150,-0.02700384,0.00048428,-0.09483235,-0.11820188,0.00203302,0.012986
 29,0.01645987,-0.00028592,-0.00174148,0.00542760,-0.00007983,-0.002299
 81,0.00049593,-0.00000176,-0.00021004,-0.00036759,0.00000582,0.0004767
 9,0.00012710,-0.00000376,0.10466981,-0.00988062,-0.01007804,0.00036287
 ,-0.11416894,-0.28470316,0.00399869,-0.00321174,-0.05258665,0.00095359
 ,0.00487975,-0.00039594,0.00014391,0.00024387,0.00140039,0.00004408,-0
 .00031473,-0.00033171,-0.00000206,-0.00012146,-0.00086436,-0.00000126,
 0.12314888,0.34669776,0.00019488,0.00037963,0.01090043,0.00196835,0.00
 400226,-0.05448475,0.00004225,0.00093326,0.00399429,-0.00006964,0.0001
 4372,0.00852125,0.00000248,0.00004493,0.00403715,0.00000500,-0.0000020
 8,-0.00047535,0.00000038,-0.00000147,-0.00094610,-0.00215253,-0.005467
 64,0.02954702,-0.24123664,0.14573409,-0.00221505,-0.03072516,0.0160650
 9,-0.00022658,-0.00265785,-0.00105729,0.00002566,0.00173791,-0.0012266
 5,0.00002573,-0.00041937,0.00645046,-0.00009664,0.00098802,0.00018386,
 -0.00000599,-0.00021301,0.00031530,-0.00000564,-0.00036768,-0.00057500
 ,0.00000881,0.27289378,0.14724611,-0.14878676,0.00137574,-0.00193012,0
 .00543671,0.00005257,-0.00252112,0.00216177,0.00004103,-0.00072273,-0.
 00206262,0.00013688,0.02371360,-0.02554276,0.00055506,-0.00017789,-0.0
 0045631,-0.00001824,0.00036802,-0.00032880,-0.00000277,-0.00008603,0.0
 0086172,-0.00003261,-0.16588985,0.16871705,-0.00223941,0.00137544,-0.0
 5602805,0.00007439,0.00003293,0.00852198,0.00004981,0.00003936,0.00446
 187,0.00001781,0.00013827,0.00607537,-0.00038669,0.00057560,0.00910594
 ,0.00000026,-0.00001893,-0.00156239,-0.00000653,-0.00000282,-0.0004752
 9,0.00000068,-0.00003220,-0.00109395,0.00248969,-0.00210766,0.03099447
 \\-0.00004925,0.00008431,0.00004544,0.00007961,-0.00000982,-0.00004736
 ,-0.00001029,-0.00003744,0.00003650,0.00011905,0.00001761,-0.00004247,
 -0.00000895,-0.00010952,0.00001095,-0.00006347,-0.00003847,-0.00000197
 ,-0.00001976,0.00004537,0.00000774,0.00000302,-0.00000185,0.00000605,-
 0.00004996,0.00004980,-0.00001487\\\@


 WORK FAITHFULLY FOR EIGHT HOURS A DAY AND DON'T WORRY.
 IN TIME YOU MAY BECOME BOSS AND WORK TWELVE HOURS A DAY
 AND HAVE ALL THE WORRY.
 Job cpu time:       0 days  0 hours  0 minutes  0.3 seconds.
 File lengths (MBytes):  RWF=      5 Int=      0 D2E=      0 Chk=      2 Scr=      1
 Normal termination of Gaussian 09 at Tue Dec 15 16:10:01 2015.
