 Entering Gaussian System, Link 0=g09
 Input=FuranAM1Best4.com
 Output=FuranAM1Best4.log
 Initial command:
 /home/Applications/g09/g09/l1.exe "/home/Applications/g09/scratch/Gau-23886.inp" -scrdir="/home/Applications/g09/scratch/"
 Entering Link 1 = /home/Applications/g09/g09/l1.exe PID=     23888.
  
 Copyright (c) 1988,1990,1992,1993,1995,1998,2003,2009,2013,
            Gaussian, Inc.  All Rights Reserved.
  
 This is part of the Gaussian(R) 09 program.  It is based on
 the Gaussian(R) 03 system (copyright 2003, Gaussian, Inc.),
 the Gaussian(R) 98 system (copyright 1998, Gaussian, Inc.),
 the Gaussian(R) 94 system (copyright 1995, Gaussian, Inc.),
 the Gaussian 92(TM) system (copyright 1992, Gaussian, Inc.),
 the Gaussian 90(TM) system (copyright 1990, Gaussian, Inc.),
 the Gaussian 88(TM) system (copyright 1988, Gaussian, Inc.),
 the Gaussian 86(TM) system (copyright 1986, Carnegie Mellon
 University), and the Gaussian 82(TM) system (copyright 1983,
 Carnegie Mellon University). Gaussian is a federally registered
 trademark of Gaussian, Inc.
  
 This software contains proprietary and confidential information,
 including trade secrets, belonging to Gaussian, Inc.
  
 This software is provided under written license and may be
 used, copied, transmitted, or stored only in accord with that
 written license.
  
 The following legend is applicable only to US Government
 contracts under FAR:
  
                    RESTRICTED RIGHTS LEGEND
  
 Use, reproduction and disclosure by the US Government is
 subject to restrictions as set forth in subparagraphs (a)
 and (c) of the Commercial Computer Software - Restricted
 Rights clause in FAR 52.227-19.
  
 Gaussian, Inc.
 340 Quinnipiac St., Bldg. 40, Wallingford CT 06492
  
  
 ---------------------------------------------------------------
 Warning -- This program may not be used in any manner that
 competes with the business of Gaussian, Inc. or will provide
 assistance to any competitor of Gaussian, Inc.  The licensee
 of this program is prohibited from giving any competitor of
 Gaussian, Inc. access to this program.  By using this program,
 the user acknowledges that Gaussian, Inc. is engaged in the
 business of creating and licensing software in the field of
 computational chemistry and represents and warrants to the
 licensee that it is not a competitor of Gaussian, Inc. and that
 it will not use this program in any manner prohibited above.
 ---------------------------------------------------------------
  

 Cite this work as:
 Gaussian 09, Revision D.01,
 M. J. Frisch, G. W. Trucks, H. B. Schlegel, G. E. Scuseria, 
 M. A. Robb, J. R. Cheeseman, G. Scalmani, V. Barone, B. Mennucci, 
 G. A. Petersson, H. Nakatsuji, M. Caricato, X. Li, H. P. Hratchian, 
 A. F. Izmaylov, J. Bloino, G. Zheng, J. L. Sonnenberg, M. Hada, 
 M. Ehara, K. Toyota, R. Fukuda, J. Hasegawa, M. Ishida, T. Nakajima, 
 Y. Honda, O. Kitao, H. Nakai, T. Vreven, J. A. Montgomery, Jr., 
 J. E. Peralta, F. Ogliaro, M. Bearpark, J. J. Heyd, E. Brothers, 
 K. N. Kudin, V. N. Staroverov, T. Keith, R. Kobayashi, J. Normand, 
 K. Raghavachari, A. Rendell, J. C. Burant, S. S. Iyengar, J. Tomasi, 
 M. Cossi, N. Rega, J. M. Millam, M. Klene, J. E. Knox, J. B. Cross, 
 V. Bakken, C. Adamo, J. Jaramillo, R. Gomperts, R. E. Stratmann, 
 O. Yazyev, A. J. Austin, R. Cammi, C. Pomelli, J. W. Ochterski, 
 R. L. Martin, K. Morokuma, V. G. Zakrzewski, G. A. Voth, 
 P. Salvador, J. J. Dannenberg, S. Dapprich, A. D. Daniels, 
 O. Farkas, J. B. Foresman, J. V. Ortiz, J. Cioslowski, 
 and D. J. Fox, Gaussian, Inc., Wallingford CT, 2013.
 
 ******************************************
 Gaussian 09:  ES64L-G09RevD.01 24-Apr-2013
                 1-Dec-2015 
 ******************************************
 ----------------------------
 #P AM1(Input,print) Opt Freq
 ----------------------------
 1/14=-1,18=20,19=15,26=1,38=1/1,3;
 2/9=110,12=2,17=6,18=5,40=1/2;
 3/5=2,16=1,25=1,41=700000,71=1,135=100,136=1/1,2,3;
 4/35=1/1;
 5/5=2,35=1,38=5/2;
 6/7=2,8=2,9=2,10=2,28=1/1;
 7//1,2,3,16;
 1/14=-1,18=20,19=15,26=1/3(2);
 2/9=110/2;
 99//99;
 2/9=110/2;
 3/5=2,16=1,25=1,41=700000,71=1,135=20,136=1/1,2,3;
 4/5=5,16=3,35=1/1;
 5/5=2,35=1,38=5/2;
 7//1,2,3,16;
 1/14=-1,18=20,19=15,26=1/3(-5);
 2/9=110/2;
 6/7=2,8=2,9=2,10=2,19=2,28=1/1;
 99/9=1/99;
 Leave Link    1 at Tue Dec  1 17:37:49 2015, MaxMem=           0 cpu:         0.0
 (Enter /home/Applications/g09/g09/l101.exe)
 -----------------
 AM1-Reparam Input
 -----------------
 Symbolic Z-matrix:
 Charge =  0 Multiplicity = 1
 6                     1.00215  -0.68375   0.03106 
 6                    -0.36888  -1.09729   0.01939 
 8                    -1.16466  -0.04601  -0.00626 
 6                    -0.3724    1.10044  -0.04523 
 6                     0.94743   0.68586   0.04395 
 1                     1.85046   1.36944   0.00476 
 1                    -0.80919   2.07005   0.0332 
 1                    -0.80493  -2.00865  -0.01351 
 1                     1.76379  -1.40677   0.00451 
 
 NAtoms=      9 NQM=        9 NQMF=       0 NMMI=      0 NMMIF=      0
                NMic=       0 NMicF=      0.
                    Isotopes and Nuclear Properties:
 (Nuclear quadrupole moments (NQMom) in fm**2, nuclear magnetic moments (NMagM)
  in nuclear magnetons)

  Atom         1           2           3           4           5           6           7           8           9
 IAtWgt=          12          12          16          12          12           1           1           1           1
 AtmWgt=  12.0000000  12.0000000  15.9949146  12.0000000  12.0000000   1.0078250   1.0078250   1.0078250   1.0078250
 NucSpn=           0           0           0           0           0           1           1           1           1
 AtZEff=   0.0000000   0.0000000   0.0000000   0.0000000   0.0000000   0.0000000   0.0000000   0.0000000   0.0000000
 NQMom=    0.0000000   0.0000000   0.0000000   0.0000000   0.0000000   0.0000000   0.0000000   0.0000000   0.0000000
 NMagM=    0.0000000   0.0000000   0.0000000   0.0000000   0.0000000   2.7928460   2.7928460   2.7928460   2.7928460
 AtZNuc=   6.0000000   6.0000000   8.0000000   6.0000000   6.0000000   1.0000000   1.0000000   1.0000000   1.0000000
 Leave Link  101 at Tue Dec  1 17:37:49 2015, MaxMem=    33554432 cpu:         0.0
 (Enter /home/Applications/g09/g09/l103.exe)

 GradGradGradGradGradGradGradGradGradGradGradGradGradGradGradGradGradGrad
 Berny optimization.
 Initialization pass.
                           ----------------------------
                           !    Initial Parameters    !
                           ! (Angstroms and Degrees)  !
 --------------------------                            --------------------------
 ! Name  Definition              Value          Derivative Info.                !
 --------------------------------------------------------------------------------
 ! R1    R(1,2)                  1.4321         estimate D2E/DX2                !
 ! R2    R(1,5)                  1.3708         estimate D2E/DX2                !
 ! R3    R(1,9)                  1.0505         estimate D2E/DX2                !
 ! R4    R(2,3)                  1.3188         estimate D2E/DX2                !
 ! R5    R(2,8)                  1.0108         estimate D2E/DX2                !
 ! R6    R(3,4)                  1.3941         estimate D2E/DX2                !
 ! R7    R(4,5)                  1.3863         estimate D2E/DX2                !
 ! R8    R(4,7)                  1.0663         estimate D2E/DX2                !
 ! R9    R(5,6)                  1.1333         estimate D2E/DX2                !
 ! A1    A(2,1,5)              104.5005         estimate D2E/DX2                !
 ! A2    A(2,1,9)              119.6805         estimate D2E/DX2                !
 ! A3    A(5,1,9)              135.7954         estimate D2E/DX2                !
 ! A4    A(1,2,3)              110.3446         estimate D2E/DX2                !
 ! A5    A(1,2,8)              132.3449         estimate D2E/DX2                !
 ! A6    A(3,2,8)              117.2446         estimate D2E/DX2                !
 ! A7    A(2,3,4)              108.2508         estimate D2E/DX2                !
 ! A8    A(3,4,5)              107.0572         estimate D2E/DX2                !
 ! A9    A(3,4,7)              120.8583         estimate D2E/DX2                !
 ! A10   A(5,4,7)              131.0851         estimate D2E/DX2                !
 ! A11   A(1,5,4)              109.6455         estimate D2E/DX2                !
 ! A12   A(1,5,6)              124.7897         estimate D2E/DX2                !
 ! A13   A(4,5,6)              125.1715         estimate D2E/DX2                !
 ! D1    D(5,1,2,3)              1.4507         estimate D2E/DX2                !
 ! D2    D(5,1,2,8)            178.3377         estimate D2E/DX2                !
 ! D3    D(9,1,2,3)           -177.0507         estimate D2E/DX2                !
 ! D4    D(9,1,2,8)             -0.1637         estimate D2E/DX2                !
 ! D5    D(2,1,5,4)             -3.7659         estimate D2E/DX2                !
 ! D6    D(2,1,5,6)           -176.8689         estimate D2E/DX2                !
 ! D7    D(9,1,5,4)            174.3667         estimate D2E/DX2                !
 ! D8    D(9,1,5,6)              1.2637         estimate D2E/DX2                !
 ! D9    D(1,2,3,4)              1.4041         estimate D2E/DX2                !
 ! D10   D(8,2,3,4)           -176.0083         estimate D2E/DX2                !
 ! D11   D(2,3,4,5)             -3.7067         estimate D2E/DX2                !
 ! D12   D(2,3,4,7)           -173.4763         estimate D2E/DX2                !
 ! D13   D(3,4,5,1)              4.7044         estimate D2E/DX2                !
 ! D14   D(3,4,5,6)            177.775          estimate D2E/DX2                !
 ! D15   D(7,4,5,1)            173.0341         estimate D2E/DX2                !
 ! D16   D(7,4,5,6)            -13.8952         estimate D2E/DX2                !
 --------------------------------------------------------------------------------
 Trust Radius=3.00D-01 FncErr=1.00D-07 GrdErr=1.00D-07
 Number of steps in this run=     48 maximum allowed number of steps=    100.
 GradGradGradGradGradGradGradGradGradGradGradGradGradGradGradGradGradGrad

 Leave Link  103 at Tue Dec  1 17:37:49 2015, MaxMem=    33554432 cpu:         0.0
 (Enter /home/Applications/g09/g09/l202.exe)
                          Input orientation:                          
 ---------------------------------------------------------------------
 Center     Atomic      Atomic             Coordinates (Angstroms)
 Number     Number       Type             X           Y           Z
 ---------------------------------------------------------------------
      1          6           0        1.002146   -0.683749    0.031063
      2          6           0       -0.368879   -1.097286    0.019387
      3          8           0       -1.164657   -0.046005   -0.006261
      4          6           0       -0.372398    1.100436   -0.045225
      5          6           0        0.947434    0.685860    0.043945
      6          1           0        1.850455    1.369443    0.004757
      7          1           0       -0.809188    2.070046    0.033200
      8          1           0       -0.804925   -2.008647   -0.013510
      9          1           0        1.763792   -1.406769    0.004505
 ---------------------------------------------------------------------
                    Distance matrix (angstroms):
                    1          2          3          4          5
     1  C    0.000000
     2  C    1.432082   0.000000
     3  O    2.259014   1.318754   0.000000
     4  C    2.253554   2.198674   1.394102   0.000000
     5  C    1.370762   2.216505   2.235861   1.386283   0.000000
     6  H    2.221692   3.318194   3.330843   2.239629   1.133256
     7  H    3.296107   3.197820   2.146063   1.066339   2.236472
     8  H    2.241171   1.010840   1.995350   3.139185   3.214721
     9  H    1.050508   2.155061   3.229181   3.294216   2.246573
                    6          7          8          9
     6  H    0.000000
     7  H    2.750519   0.000000
     8  H    4.296844   4.078963   0.000000
     9  H    2.777564   4.325424   2.638350   0.000000
 Stoichiometry    C4H4O
 Framework group  C1[X(C4H4O)]
 Deg. of freedom    21
 Full point group                 C1      NOp   1
 Largest Abelian subgroup         C1      NOp   1
 Largest concise Abelian subgroup C1      NOp   1
                         Standard orientation:                         
 ---------------------------------------------------------------------
 Center     Atomic      Atomic             Coordinates (Angstroms)
 Number     Number       Type             X           Y           Z
 ---------------------------------------------------------------------
      1          6           0       -0.366747    1.153176   -0.000110
      2          6           0       -1.147870   -0.047085   -0.008926
      3          8           0       -0.361628   -1.105824   -0.006182
      4          6           0        0.961012   -0.667317    0.036878
      5          6           0        0.932606    0.717265   -0.025623
      6          1           0        1.841975    1.391728    0.023547
      7          1           0        1.769112   -1.356633   -0.057447
      8          1           0       -2.144795   -0.210938    0.024096
      9          1           0       -0.847276    2.086203    0.045947
 ---------------------------------------------------------------------
 Rotational constants (GHZ):      9.6196493      9.0669670      4.6702573
 Leave Link  202 at Tue Dec  1 17:37:49 2015, MaxMem=    33554432 cpu:         0.0
 (Enter /home/Applications/g09/g09/l301.exe)

 Semi-emprical parameters in input format:
 Method=8 CoreType=1 PeptideFC=0.0120930000 RIJScale=0.5388840000
 ****
 H       
 PQN=1 NValence=1 F0ss=0.5586300000 ZetaOverlap=1.0950750000 U=-0.4119510000
 Beta=-0.2338190000 CoreKO=1.1007910000 KON=0,0,0,0.9764370000 KON=1,0,1,1.1361190000
 KON=0,1,1,1.0139660000 KON=2,1,1,1.2635130000 EISol=-0.4188110042 EHeat=0.0830298228
 Alpha=1.4078420000
 GCore=0.0080140000,1.2229470000,2.2663690000
 GCore=0.0002960000,1.5853770000,2.7382840000
 GCore=-0.0012210000,0.6561060000,3.9519220000
 ****
 C       
 PQN=2,2 NValence=4 F0ss=0.4805700000 F0sp=0.4819370000 F0pp=0.3439950000 F2pp=0.1961420000
 G1sp=0.2678900000
 ZetaOverlap=1.8366850000,1.4875730000
 U=-1.4842670000,-1.3886060000
 Beta=-0.6376780000,-0.3536670000 DDN=0,1,0.9094820000 DDN=1,1,0.8346670000
 CoreKO=1.1045690000 KON=0,0,0,1.0182330000 KON=1,0,1,0.7342900000 KON=0,1,1,1.1944780000
 KON=2,1,1,0.7056720000 EISol=-4.4398989268 EHeat=0.2723305520 Alpha=1.4025920000
 DipHyp=1.8188593534
 GCore=0.0007870000,1.5590290000,2.8992300000
 GCore=0.0031100000,1.3744800000,3.7653660000
 GCore=-0.0013700000,1.3772400000,4.0631190000
 GCore=-0.0000820000,1.5210550000,5.3709760000
 ****
 O       
 PQN=2,2 NValence=6 F0ss=0.7455940000 F0sp=0.5814220000 F0pp=0.4393740000 F2pp=0.2294290000
 G1sp=0.3535640000
 ZetaOverlap=2.7714830000,2.5744810000
 U=-3.8069400000,-2.7329690000
 Beta=-1.1272460000,-1.1587550000 DDN=0,1,0.5172290000 DDN=1,1,0.4110560000
 CoreKO=0.8743200000 KON=0,0,0,0.8886000000 KON=1,0,1,0.5063100000 KON=0,1,1,0.8996480000
 KON=2,1,1,0.5582300000 EISol=-11.6164441184 EHeat=0.0949133088 Alpha=2.3820330000
 DipHyp=1.0343984867
 GCore=0.0192970000,1.5130470000,1.5620930000
 GCore=0.0058890000,1.6294880000,2.3818730000
 ****
 
 Standard basis: VSTO-6G (5D, 7F)
 Ernie: Thresh=  0.10000D-02 Tol=  0.10000D-05 Strict=F.
  NNHCO=     0 NNPyr=     0 NCTC=     0               EPep=         0.000000000
    EC=        68.719040055  ECS=         1.898564550   EG=         0.341442735
   EHC=         0.000000000  EAt=       -31.051283842  AtH=         1.516354808
 EPDDG=         0.000000000  ECC=        70.959047340 EAtT=        32.567638650
 There are    24 symmetry adapted cartesian basis functions of A   symmetry.
 There are    24 symmetry adapted basis functions of A   symmetry.
    24 basis functions,   144 primitive gaussians,    24 cartesian basis functions
    13 alpha electrons       13 beta electrons
       nuclear repulsion energy       103.5266859903 Hartrees.
 IExCor=    0 DFT=F Ex=HF Corr=None ExCW=0 ScaHFX=  1.000000
 ScaDFX=  1.000000  1.000000  1.000000  1.000000 ScalE2=  1.000000  1.000000
 IRadAn=      0 IRanWt=     -1 IRanGd=            0 ICorTp=0 IEmpDi=  4
 Integral buffers will be    131072 words long.
 Regular integral format.
 Two-electron integral symmetry is turned off.
 Leave Link  301 at Tue Dec  1 17:37:49 2015, MaxMem=    33554432 cpu:         0.0
 (Enter /home/Applications/g09/g09/l302.exe)
 Do NDO integrals.
 NPDir=0 NMtPBC=     1 NCelOv=     1 NCel=       1 NClECP=     1 NCelD=      1
         NCelK=      1 NCelE2=     1 NClLst=     1 CellRange=     0.0.
 One-electron integrals computed using PRISM.
 NBasis=    24 RedAO= F EigKep=  0.00D+00  NBF=    24
 NBsUse=    24 1.00D-04 EigRej=  0.00D+00 NBFU=    24
 Leave Link  302 at Tue Dec  1 17:37:49 2015, MaxMem=    33554432 cpu:         0.0
 (Enter /home/Applications/g09/g09/l303.exe)
 DipDrv:  MaxL=1.
 Leave Link  303 at Tue Dec  1 17:37:49 2015, MaxMem=    33554432 cpu:         0.0
 (Enter /home/Applications/g09/g09/l401.exe)
 Simple Huckel Guess.
 JPrj=0 DoOrth=F DoCkMO=F.
 Leave Link  401 at Tue Dec  1 17:37:49 2015, MaxMem=    33554432 cpu:         0.0
 (Enter /home/Applications/g09/g09/l502.exe)
 Closed shell SCF:
 Using DIIS extrapolation, IDIIS=  1040.
 Overlap will be assumed to be unity.
 Two-electron integral symmetry not used.
 Keep J ints in memory in canonical form, NReq=888082.
 IVT=       79475 IEndB=       79475 NGot=    33554432 MDV=    33473473
 LenX=    33473473 LenY=    33472456
 Requested convergence on RMS density matrix=1.00D-08 within 128 cycles.
 Requested convergence on MAX density matrix=1.00D-06.
 Requested convergence on             energy=1.00D-06.
 No special actions if energy rises.
 FoFCou: FMM=F IPFlag=           0 FMFlag=           0 FMFlg1=           0
         NFxFlg=           0 DoJE=F BraDBF=F KetDBF=F FulRan=T
         wScrn=  0.000000 ICntrl=     600 IOpCl=  2 I1Cent=           0 NGrid=           0
         NMat0=    1 NMatS0=     54 NMatT0=    0 NMatD0=    1 NMtDS0=    0 NMtDT0=    0
 Symmetry not used in FoFCou.

 Cycle   1  Pass 1  IDiag  1:
 E=  2.13844219039957    
 DIIS: error= 6.62D-02 at cycle   1 NSaved=   1.
 NSaved= 1 IEnMin= 1 EnMin=  2.13844219039957     IErMin= 1 ErrMin= 6.62D-02
 ErrMax= 6.62D-02  0.00D+00 EMaxC= 1.00D-01 BMatC= 1.70D-01 BMatP= 1.70D-01
 IDIUse=3 WtCom= 3.38D-01 WtEn= 6.62D-01
 Coeff-Com:  0.100D+01
 Coeff-En:   0.100D+01
 Coeff:      0.100D+01
 GapD=    2.000 DampG=2.000 DampE=0.500 DampFc=1.0000 IDamp=-1.
 RMSDP=1.81D-02 MaxDP=1.26D-01              OVMax= 0.00D+00

 Cycle   2  Pass 1  IDiag  1:
 E=  1.82914161175187     Delta-E=       -0.309300578648 Rises=F Damp=F
 DIIS: error= 1.63D-02 at cycle   2 NSaved=   2.
 NSaved= 2 IEnMin= 2 EnMin=  1.82914161175187     IErMin= 2 ErrMin= 1.63D-02
 ErrMax= 1.63D-02  0.00D+00 EMaxC= 1.00D-01 BMatC= 1.16D-02 BMatP= 1.70D-01
 IDIUse=3 WtCom= 8.37D-01 WtEn= 1.63D-01
 Coeff-Com: -0.303D+00 0.130D+01
 Coeff-En:   0.000D+00 0.100D+01
 Coeff:     -0.253D+00 0.125D+01
 RMSDP=6.66D-03 MaxDP=3.79D-02 DE=-3.09D-01 OVMax= 0.00D+00

 Cycle   3  Pass 1  IDiag  3:
 E=  1.80197815458195     Delta-E=       -0.027163457170 Rises=F Damp=F
 DIIS: error= 2.79D-03 at cycle   3 NSaved=   3.
 NSaved= 3 IEnMin= 3 EnMin=  1.80197815458195     IErMin= 3 ErrMin= 2.79D-03
 ErrMax= 2.79D-03  0.00D+00 EMaxC= 1.00D-01 BMatC= 4.24D-04 BMatP= 1.16D-02
 IDIUse=3 WtCom= 9.72D-01 WtEn= 2.79D-02
 Coeff-Com:  0.660D-01-0.424D+00 0.136D+01
 Coeff-En:   0.000D+00 0.000D+00 0.100D+01
 Coeff:      0.642D-01-0.412D+00 0.135D+01
 Gap=     0.397 Goal=   None    Shift=    0.000
 RMSDP=1.93D-03 MaxDP=1.16D-02 DE=-2.72D-02 OVMax= 1.32D-02

 Cycle   4  Pass 1  IDiag  3:
 E=  1.80039617558015     Delta-E=       -0.001581979002 Rises=F Damp=F
 DIIS: error= 1.03D-03 at cycle   4 NSaved=   4.
 NSaved= 4 IEnMin= 4 EnMin=  1.80039617558015     IErMin= 4 ErrMin= 1.03D-03
 ErrMax= 1.03D-03  0.00D+00 EMaxC= 1.00D-01 BMatC= 2.93D-05 BMatP= 4.24D-04
 IDIUse=3 WtCom= 9.90D-01 WtEn= 1.03D-02
 Coeff-Com: -0.631D-02 0.733D-01-0.475D+00 0.141D+01
 Coeff-En:   0.000D+00 0.000D+00 0.000D+00 0.100D+01
 Coeff:     -0.624D-02 0.726D-01-0.470D+00 0.140D+01
 Gap=     0.397 Goal=   None    Shift=    0.000
 RMSDP=6.76D-04 MaxDP=5.24D-03 DE=-1.58D-03 OVMax= 6.24D-03

 Cycle   5  Pass 1  IDiag  3:
 E=  1.80024854579902     Delta-E=       -0.000147629781 Rises=F Damp=F
 DIIS: error= 3.05D-04 at cycle   5 NSaved=   5.
 NSaved= 5 IEnMin= 5 EnMin=  1.80024854579902     IErMin= 5 ErrMin= 3.05D-04
 ErrMax= 3.05D-04  0.00D+00 EMaxC= 1.00D-01 BMatC= 2.01D-06 BMatP= 2.93D-05
 IDIUse=3 WtCom= 9.97D-01 WtEn= 3.05D-03
 Coeff-Com: -0.175D-02 0.987D-03 0.674D-01-0.493D+00 0.143D+01
 Coeff-En:   0.000D+00 0.000D+00 0.000D+00 0.000D+00 0.100D+01
 Coeff:     -0.175D-02 0.984D-03 0.672D-01-0.492D+00 0.143D+01
 Gap=     0.397 Goal=   None    Shift=    0.000
 RMSDP=2.16D-04 MaxDP=1.79D-03 DE=-1.48D-04 OVMax= 2.15D-03

 Cycle   6  Pass 1  IDiag  3:
 E=  1.80023717427305     Delta-E=       -0.000011371526 Rises=F Damp=F
 DIIS: error= 4.61D-05 at cycle   6 NSaved=   6.
 NSaved= 6 IEnMin= 6 EnMin=  1.80023717427305     IErMin= 6 ErrMin= 4.61D-05
 ErrMax= 4.61D-05  0.00D+00 EMaxC= 1.00D-01 BMatC= 9.90D-08 BMatP= 2.01D-06
 IDIUse=1 WtCom= 1.00D+00 WtEn= 0.00D+00
 Coeff-Com:  0.168D-02-0.747D-02 0.329D-02 0.140D+00-0.650D+00 0.151D+01
 Coeff:      0.168D-02-0.747D-02 0.329D-02 0.140D+00-0.650D+00 0.151D+01
 Gap=     0.397 Goal=   None    Shift=    0.000
 RMSDP=4.77D-05 MaxDP=3.15D-04 DE=-1.14D-05 OVMax= 4.80D-04

 Cycle   7  Pass 1  IDiag  3:
 E=  1.80023664971245     Delta-E=       -0.000000524561 Rises=F Damp=F
 DIIS: error= 9.24D-06 at cycle   7 NSaved=   7.
 NSaved= 7 IEnMin= 7 EnMin=  1.80023664971245     IErMin= 7 ErrMin= 9.24D-06
 ErrMax= 9.24D-06  0.00D+00 EMaxC= 1.00D-01 BMatC= 3.37D-09 BMatP= 9.90D-08
 IDIUse=1 WtCom= 1.00D+00 WtEn= 0.00D+00
 Coeff-Com: -0.326D-03 0.165D-02-0.212D-02-0.232D-01 0.132D+00-0.449D+00
 Coeff-Com:  0.134D+01
 Coeff:     -0.326D-03 0.165D-02-0.212D-02-0.232D-01 0.132D+00-0.449D+00
 Coeff:      0.134D+01
 Gap=     0.397 Goal=   None    Shift=    0.000
 RMSDP=7.97D-06 MaxDP=5.21D-05 DE=-5.25D-07 OVMax= 9.50D-05

 Cycle   8  Pass 1  IDiag  3:
 E=  1.80023663419672     Delta-E=       -0.000000015516 Rises=F Damp=F
 DIIS: error= 1.52D-06 at cycle   8 NSaved=   8.
 NSaved= 8 IEnMin= 8 EnMin=  1.80023663419672     IErMin= 8 ErrMin= 1.52D-06
 ErrMax= 1.52D-06  0.00D+00 EMaxC= 1.00D-01 BMatC= 1.13D-10 BMatP= 3.37D-09
 IDIUse=1 WtCom= 1.00D+00 WtEn= 0.00D+00
 Coeff-Com:  0.424D-04-0.322D-03 0.117D-02-0.719D-03-0.967D-02 0.650D-01
 Coeff-Com: -0.338D+00 0.128D+01
 Coeff:      0.424D-04-0.322D-03 0.117D-02-0.719D-03-0.967D-02 0.650D-01
 Coeff:     -0.338D+00 0.128D+01
 Gap=     0.397 Goal=   None    Shift=    0.000
 RMSDP=1.36D-06 MaxDP=9.66D-06 DE=-1.55D-08 OVMax= 1.58D-05

 Cycle   9  Pass 1  IDiag  3:
 E=  1.80023663364375     Delta-E=       -0.000000000553 Rises=F Damp=F
 DIIS: error= 5.56D-07 at cycle   9 NSaved=   9.
 NSaved= 9 IEnMin= 9 EnMin=  1.80023663364375     IErMin= 9 ErrMin= 5.56D-07
 ErrMax= 5.56D-07  0.00D+00 EMaxC= 1.00D-01 BMatC= 8.33D-12 BMatP= 1.13D-10
 IDIUse=1 WtCom= 1.00D+00 WtEn= 0.00D+00
 Coeff-Com: -0.694D-05 0.711D-04-0.324D-03 0.631D-03 0.762D-03-0.151D-01
 Coeff-Com:  0.109D+00-0.658D+00 0.156D+01
 Coeff:     -0.694D-05 0.711D-04-0.324D-03 0.631D-03 0.762D-03-0.151D-01
 Coeff:      0.109D+00-0.658D+00 0.156D+01
 Gap=     0.397 Goal=   None    Shift=    0.000
 RMSDP=5.28D-07 MaxDP=4.13D-06 DE=-5.53D-10 OVMax= 6.55D-06

 Cycle  10  Pass 1  IDiag  3:
 E=  1.80023663358972     Delta-E=       -0.000000000054 Rises=F Damp=F
 DIIS: error= 1.06D-07 at cycle  10 NSaved=  10.
 NSaved=10 IEnMin=10 EnMin=  1.80023663358972     IErMin=10 ErrMin= 1.06D-07
 ErrMax= 1.06D-07  0.00D+00 EMaxC= 1.00D-01 BMatC= 2.18D-13 BMatP= 8.33D-12
 IDIUse=1 WtCom= 1.00D+00 WtEn= 0.00D+00
 Coeff-Com:  0.151D-05-0.208D-04 0.108D-03-0.253D-03-0.823D-04 0.440D-02
 Coeff-Com: -0.338D-01 0.223D+00-0.630D+00 0.144D+01
 Coeff:      0.151D-05-0.208D-04 0.108D-03-0.253D-03-0.823D-04 0.440D-02
 Coeff:     -0.338D-01 0.223D+00-0.630D+00 0.144D+01
 Gap=     0.397 Goal=   None    Shift=    0.000
 RMSDP=8.16D-08 MaxDP=7.12D-07 DE=-5.40D-11 OVMax= 9.91D-07

 Cycle  11  Pass 1  IDiag  3:
 E=  1.80023663358851     Delta-E=       -0.000000000001 Rises=F Damp=F
 DIIS: error= 1.38D-08 at cycle  11 NSaved=  11.
 NSaved=11 IEnMin=11 EnMin=  1.80023663358851     IErMin=11 ErrMin= 1.38D-08
 ErrMax= 1.38D-08  0.00D+00 EMaxC= 1.00D-01 BMatC= 4.33D-15 BMatP= 2.18D-13
 IDIUse=1 WtCom= 1.00D+00 WtEn= 0.00D+00
 Coeff-Com: -0.597D-06 0.741D-05-0.372D-04 0.839D-04 0.308D-04-0.143D-02
 Coeff-Com:  0.108D-01-0.731D-01 0.209D+00-0.552D+00 0.141D+01
 Coeff:     -0.597D-06 0.741D-05-0.372D-04 0.839D-04 0.308D-04-0.143D-02
 Coeff:      0.108D-01-0.731D-01 0.209D+00-0.552D+00 0.141D+01
 Gap=     0.397 Goal=   None    Shift=    0.000
 RMSDP=1.08D-08 MaxDP=9.20D-08 DE=-1.21D-12 OVMax= 1.18D-07

 Cycle  12  Pass 1  IDiag  3:
 E=  1.80023663358877     Delta-E=        0.000000000000 Rises=F Damp=F
 DIIS: error= 1.49D-09 at cycle  12 NSaved=  12.
 NSaved=12 IEnMin=11 EnMin=  1.80023663358851     IErMin=12 ErrMin= 1.49D-09
 ErrMax= 1.49D-09  0.00D+00 EMaxC= 1.00D-01 BMatC= 9.00D-17 BMatP= 4.33D-15
 IDIUse=1 WtCom= 1.00D+00 WtEn= 0.00D+00
 Coeff-Com:  0.201D-06-0.240D-05 0.118D-04-0.245D-04-0.181D-04 0.466D-03
 Coeff-Com: -0.342D-02 0.229D-01-0.647D-01 0.168D+00-0.483D+00 0.136D+01
 Coeff:      0.201D-06-0.240D-05 0.118D-04-0.245D-04-0.181D-04 0.466D-03
 Coeff:     -0.342D-02 0.229D-01-0.647D-01 0.168D+00-0.483D+00 0.136D+01
 Gap=     0.397 Goal=   None    Shift=    0.000
 RMSDP=1.17D-09 MaxDP=6.67D-09 DE= 2.56D-13 OVMax= 1.13D-08

 Cycle  13  Pass 2  IDiag  1:
 SCF Done:  E(RAM1) =   1.80023663359     A.U. after   13 cycles
            NFock= 12  Conv=0.12D-08     -V/T= 1.1385
 KE=-1.300211363120D+01 PE=-1.710744001778D+02 EE= 8.235006445231D+01
 Leave Link  502 at Tue Dec  1 17:37:49 2015, MaxMem=    33554432 cpu:         0.0
 (Enter /home/Applications/g09/g09/l601.exe)
 Copying SCF densities to generalized density rwf, IOpCl= 0 IROHF=0.

 **********************************************************************

            Population analysis using the SCF density.

 **********************************************************************

 Orbital symmetries:
       Occupied  (A) (A) (A) (A) (A) (A) (A) (A) (A) (A) (A) (A)
                 (A)
       Virtual   (A) (A) (A) (A) (A) (A) (A) (A) (A) (A) (A)
 The electronic state is 1-A.
 Alpha  occ. eigenvalues --   -1.54654  -1.08675  -0.90454  -0.85718  -0.79015
 Alpha  occ. eigenvalues --   -0.71481  -0.70525  -0.59369  -0.57709  -0.52980
 Alpha  occ. eigenvalues --   -0.51665  -0.48198  -0.38377
 Alpha virt. eigenvalues --    0.01334   0.06549   0.12216   0.15542   0.19858
 Alpha virt. eigenvalues --    0.20692   0.21556   0.40083   0.49117   0.57537
 Alpha virt. eigenvalues --    0.67834
          Condensed to atoms (all electrons):
               1          2          3          4          5          6
     1  C    4.085332   0.000000   0.000000   0.000000   0.000000   0.000000
     2  C    0.000000   3.600240   0.000000   0.000000   0.000000   0.000000
     3  O    0.000000   0.000000   6.254037   0.000000   0.000000   0.000000
     4  C    0.000000   0.000000   0.000000   3.683377   0.000000   0.000000
     5  C    0.000000   0.000000   0.000000   0.000000   4.066662   0.000000
     6  H    0.000000   0.000000   0.000000   0.000000   0.000000   1.019403
     7  H    0.000000   0.000000   0.000000   0.000000   0.000000   0.000000
     8  H    0.000000   0.000000   0.000000   0.000000   0.000000   0.000000
     9  H    0.000000   0.000000   0.000000   0.000000   0.000000   0.000000
               7          8          9
     1  C    0.000000   0.000000   0.000000
     2  C    0.000000   0.000000   0.000000
     3  O    0.000000   0.000000   0.000000
     4  C    0.000000   0.000000   0.000000
     5  C    0.000000   0.000000   0.000000
     6  H    0.000000   0.000000   0.000000
     7  H    1.104631   0.000000   0.000000
     8  H    0.000000   1.122710   0.000000
     9  H    0.000000   0.000000   1.063609
 Mulliken charges:
               1
     1  C   -0.085332
     2  C    0.399760
     3  O   -0.254037
     4  C    0.316623
     5  C   -0.066662
     6  H   -0.019403
     7  H   -0.104631
     8  H   -0.122710
     9  H   -0.063609
 Sum of Mulliken charges =   0.00000
 Mulliken charges with hydrogens summed into heavy atoms:
               1
     1  C   -0.148941
     2  C    0.277050
     3  O   -0.254037
     4  C    0.211992
     5  C   -0.086065
 Charge=              0.0000 electrons
 Dipole moment (field-independent basis, Debye):
    X=              0.0786    Y=              0.0949    Z=              0.0544  Tot=              0.1347
 N-N= 1.035266859903D+02 E-N=-1.710744001718D+02  KE=-1.300211363120D+01
 Leave Link  601 at Tue Dec  1 17:37:49 2015, MaxMem=    33554432 cpu:         0.0
 (Enter /home/Applications/g09/g09/l701.exe)
 Compute integral first derivatives.
 ... and contract with generalized density number  0.
 Leave Link  701 at Tue Dec  1 17:37:49 2015, MaxMem=    33554432 cpu:         0.0
 (Enter /home/Applications/g09/g09/l702.exe)
 L702 exits ... SP integral derivatives will be done elsewhere.
 Leave Link  702 at Tue Dec  1 17:37:49 2015, MaxMem=    33554432 cpu:         0.0
 (Enter /home/Applications/g09/g09/l703.exe)
 Compute integral first derivatives, UseDBF=F ICtDFT=           0.
 Integral derivatives from FoFJK, PRISM(SPDF).
 Calling FoFJK, ICntrl=      2127 FMM=F ISym2X=0 I1Cent= 0 IOpClX= 0 NMat=1 NMatS=1 NMatT=0.
 FoFJK:  IHMeth= 8 ICntrl=    2127 DoSepK=F KAlg= 0 I1Cent=   0 FoldK=F
 IRaf=         0 NMat=   1 IRICut=       1 DoRegI=T DoRafI=F ISym2E= 0.
 FoFCou: FMM=F IPFlag=           0 FMFlag=      100000 FMFlg1=         800
         NFxFlg=           0 DoJE=F BraDBF=F KetDBF=F FulRan=T
         wScrn=  0.000000 ICntrl=    2127 IOpCl=  0 I1Cent=           0 NGrid=           0
         NMat0=    1 NMatS0=      1 NMatT0=    0 NMatD0=    1 NMtDS0=    0 NMtDT0=    0
 Symmetry not used in FoFCou.
 Leave Link  703 at Tue Dec  1 17:37:49 2015, MaxMem=    33554432 cpu:         0.0
 (Enter /home/Applications/g09/g09/l716.exe)
 Dipole        = 3.09135413D-02 3.73499735D-02 2.14094309D-02
 ***** Axes restored to original set *****
 -------------------------------------------------------------------
 Center     Atomic                   Forces (Hartrees/Bohr)
 Number     Number              X              Y              Z
 -------------------------------------------------------------------
      1        6          -0.188135688    0.013480565    0.000364076
      2        6           0.169133233    0.063875510   -0.001559685
      3        8           0.032392482    0.076198232   -0.009568242
      4        6           0.089699375   -0.083755686    0.039332301
      5        6          -0.085845430    0.005642313   -0.029670964
      6        1          -0.031602704   -0.022368495    0.005088657
      7        1           0.004552355   -0.009253085   -0.008875869
      8        1          -0.007322493   -0.043446533    0.001934240
      9        1           0.017128870   -0.000372821    0.002955485
 -------------------------------------------------------------------
 Cartesian Forces:  Max     0.188135688 RMS     0.062081025
 Leave Link  716 at Tue Dec  1 17:37:49 2015, MaxMem=    33554432 cpu:         0.0
 (Enter /home/Applications/g09/g09/l103.exe)

 GradGradGradGradGradGradGradGradGradGradGradGradGradGradGradGradGradGrad
 Berny optimization.
 FormGI is forming the generalized inverse of G from B-inverse, IUseBI=4.
 Internal  Forces:  Max     0.163274452 RMS     0.039017655
 Search for a local minimum.
 Step number   1 out of a maximum of   48
 All quantities printed in internal units (Hartrees-Bohrs-Radians)
 RMS Force = .39018D-01 SwitMx=.10000D-02 MixMth= 1
 Mixed Optimization -- RFO/linear search
 Second derivative matrix not updated -- first step.
 ITU=  0
     Eigenvalues ---    0.01892   0.02076   0.02191   0.02206   0.02366
     Eigenvalues ---    0.02404   0.15669   0.15857   0.15980   0.15990
     Eigenvalues ---    0.21994   0.22921   0.30257   0.37697   0.37929
     Eigenvalues ---    0.39806   0.44226   0.45359   0.45832   0.49292
     Eigenvalues ---    0.59695
 RFO step:  Lambda=-1.09163546D-01 EMin= 1.89215495D-02
 Linear search not attempted -- first point.
 Maximum step size (   0.300) exceeded in Quadratic search.
    -- Step size scaled by   0.664
 Iteration  1 RMS(Cart)=  0.05394589 RMS(Int)=  0.00165104
 Iteration  2 RMS(Cart)=  0.00184766 RMS(Int)=  0.00039327
 Iteration  3 RMS(Cart)=  0.00000114 RMS(Int)=  0.00039326
 Iteration  4 RMS(Cart)=  0.00000000 RMS(Int)=  0.00039326
 ITry= 1 IFail=0 DXMaxC= 1.34D-01 DCOld= 1.00D+10 DXMaxT= 3.00D-01 DXLimC= 3.00D+00 Rises=F
 Variable       Old X    -DE/DX   Delta X   Delta X   Delta X     New X
                                 (Linear)    (Quad)   (Total)
    R1        2.70624  -0.16327   0.00000  -0.20832  -0.20822   2.49802
    R2        2.59036  -0.05109   0.00000  -0.05884  -0.05819   2.53217
    R3        1.98517   0.01260   0.00000   0.01649   0.01649   2.00167
    R4        2.49208   0.01518   0.00000   0.01769   0.01712   2.50920
    R5        1.91021   0.04227   0.00000   0.04945   0.04945   1.95966
    R6        2.63447  -0.06876   0.00000  -0.07757  -0.07803   2.55644
    R7        2.61970  -0.13451   0.00000  -0.15550  -0.15521   2.46449
    R8        2.01509  -0.01093   0.00000  -0.01493  -0.01493   2.00016
    R9        2.14154  -0.03885   0.00000  -0.06264  -0.06264   2.07890
    A1        1.82388   0.01849   0.00000   0.03141   0.03214   1.85602
    A2        2.08882   0.00217   0.00000   0.01241   0.01204   2.10085
    A3        2.37008  -0.02067   0.00000  -0.04386  -0.04422   2.32586
    A4        1.92588  -0.01508   0.00000  -0.02130  -0.02166   1.90422
    A5        2.30985  -0.00411   0.00000  -0.01797  -0.01780   2.29205
    A6        2.04630   0.01927   0.00000   0.03965   0.03981   2.08612
    A7        1.88933  -0.01353   0.00000  -0.01171  -0.01300   1.87633
    A8        1.86850   0.00013   0.00000  -0.00336  -0.00377   1.86473
    A9        2.10938   0.00020   0.00000   0.00428   0.00400   2.11338
   A10        2.28787   0.00126   0.00000   0.00688   0.00666   2.29452
   A11        1.91368   0.01056   0.00000   0.00777   0.00854   1.92221
   A12        2.17799  -0.00398   0.00000  -0.00003  -0.00059   2.17741
   A13        2.18466  -0.00598   0.00000  -0.00482  -0.00533   2.17933
    D1        0.02532  -0.00223   0.00000  -0.00867  -0.00840   0.01692
    D2        3.11258   0.00014   0.00000   0.00169   0.00167   3.11425
    D3       -3.09012  -0.00178   0.00000  -0.00662  -0.00624  -3.09636
    D4       -0.00286   0.00059   0.00000   0.00374   0.00383   0.00097
    D5       -0.06573   0.00414   0.00000   0.02383   0.02420  -0.04152
    D6       -3.08694  -0.00076   0.00000  -0.00147  -0.00125  -3.08819
    D7        3.04327   0.00431   0.00000   0.02298   0.02326   3.06653
    D8        0.02206  -0.00059   0.00000  -0.00233  -0.00220   0.01986
    D9        0.02451  -0.00281   0.00000  -0.01225  -0.01215   0.01236
   D10       -3.07192  -0.00416   0.00000  -0.01920  -0.01911  -3.09104
   D11       -0.06469   0.00562   0.00000   0.02722   0.02719  -0.03750
   D12       -3.02773  -0.00260   0.00000  -0.01288  -0.01268  -3.04041
   D13        0.08211  -0.00676   0.00000  -0.03334  -0.03312   0.04899
   D14        3.10276  -0.00167   0.00000  -0.00750  -0.00723   3.09553
   D15        3.02002   0.00244   0.00000   0.01184   0.01191   3.03193
   D16       -0.24252   0.00754   0.00000   0.03768   0.03781  -0.20471
         Item               Value     Threshold  Converged?
 Maximum Force            0.163274     0.000450     NO 
 RMS     Force            0.039018     0.000300     NO 
 Maximum Displacement     0.134491     0.001800     NO 
 RMS     Displacement     0.055201     0.001200     NO 
 Predicted change in Energy=-5.363300D-02
 Lowest energy point so far.  Saving SCF results.
 GradGradGradGradGradGradGradGradGradGradGradGradGradGradGradGradGradGrad

 Leave Link  103 at Tue Dec  1 17:37:49 2015, MaxMem=    33554432 cpu:         0.0
 (Enter /home/Applications/g09/g09/l202.exe)
                          Input orientation:                          
 ---------------------------------------------------------------------
 Center     Atomic      Atomic             Coordinates (Angstroms)
 Number     Number       Type             X           Y           Z
 ---------------------------------------------------------------------
      1          6           0        0.930976   -0.668728    0.031319
      2          6           0       -0.327170   -1.073962    0.015159
      3          8           0       -1.125102   -0.013025   -0.013214
      4          6           0       -0.338468    1.087427   -0.030710
      5          6           0        0.895637    0.670772    0.034052
      6          1           0        1.781844    1.321599   -0.001947
      7          1           0       -0.754978    2.058096    0.037230
      8          1           0       -0.740004   -2.024821   -0.013362
      9          1           0        1.721043   -1.374030    0.013333
 ---------------------------------------------------------------------
                    Distance matrix (angstroms):
                    1          2          3          4          5
     1  C    0.000000
     2  C    1.321895   0.000000
     3  O    2.158562   1.327813   0.000000
     4  C    2.167814   2.161905   1.352810   0.000000
     5  C    1.339969   2.130659   2.133823   1.304151   0.000000
     6  H    2.164829   3.191699   3.198701   2.133398   1.100107
     7  H    3.205939   3.161217   2.104538   1.058440   2.156202
     8  H    2.152478   1.037005   2.048322   3.138092   3.153378
     9  H    1.059236   2.070077   3.154930   3.209719   2.205208
                    6          7          8          9
     6  H    0.000000
     7  H    2.641861   0.000000
     8  H    4.190272   4.083258   0.000000
     9  H    2.696358   4.232108   2.545780   0.000000
 Stoichiometry    C4H4O
 Framework group  C1[X(C4H4O)]
 Deg. of freedom    21
 Full point group                 C1      NOp   1
 RotChk:  IX=2 Diff= 4.96D-01
 Largest Abelian subgroup         C1      NOp   1
 Largest concise Abelian subgroup C1      NOp   1
                         Standard orientation:                         
 ---------------------------------------------------------------------
 Center     Atomic      Atomic             Coordinates (Angstroms)
 Number     Number       Type             X           Y           Z
 ---------------------------------------------------------------------
      1          6           0       -0.730422    0.883900   -0.004189
      2          6           0       -1.048225   -0.399220   -0.007792
      3          8           0        0.065153   -1.122698   -0.000324
      4          6           0        1.109128   -0.262690    0.024146
      5          6           0        0.608286    0.940785   -0.016054
      6          1           0        1.197015    1.868884    0.031538
      7          1           0        2.105551   -0.610248   -0.057339
      8          1           0       -1.968269   -0.876878    0.019433
      9          1           0       -1.488125    1.623180    0.032296
 ---------------------------------------------------------------------
 Rotational constants (GHZ):     10.0870737      9.9090116      5.0001961
 Leave Link  202 at Tue Dec  1 17:37:49 2015, MaxMem=    33554432 cpu:         0.0
 (Enter /home/Applications/g09/g09/l301.exe)

 Semi-emprical parameters in input format:
 Method=8 CoreType=1 PeptideFC=0.0120930000 RIJScale=0.5388840000
 ****
 H       
 PQN=1 NValence=1 F0ss=0.5586300000 ZetaOverlap=1.0950750000 U=-0.4119510000
 Beta=-0.2338190000 CoreKO=1.1007910000 KON=0,0,0,0.9764370000 KON=1,0,1,1.1361190000
 KON=0,1,1,1.0139660000 KON=2,1,1,1.2635130000 EISol=-0.4188110042 EHeat=0.0830298228
 Alpha=1.4078420000
 GCore=0.0080140000,1.2229470000,2.2663690000
 GCore=0.0002960000,1.5853770000,2.7382840000
 GCore=-0.0012210000,0.6561060000,3.9519220000
 ****
 C       
 PQN=2,2 NValence=4 F0ss=0.4805700000 F0sp=0.4819370000 F0pp=0.3439950000 F2pp=0.1961420000
 G1sp=0.2678900000
 ZetaOverlap=1.8366850000,1.4875730000
 U=-1.4842670000,-1.3886060000
 Beta=-0.6376780000,-0.3536670000 DDN=0,1,0.9094820000 DDN=1,1,0.8346670000
 CoreKO=1.1045690000 KON=0,0,0,1.0182330000 KON=1,0,1,0.7342900000 KON=0,1,1,1.1944780000
 KON=2,1,1,0.7056720000 EISol=-4.4398989268 EHeat=0.2723305520 Alpha=1.4025920000
 DipHyp=1.8188593534
 GCore=0.0007870000,1.5590290000,2.8992300000
 GCore=0.0031100000,1.3744800000,3.7653660000
 GCore=-0.0013700000,1.3772400000,4.0631190000
 GCore=-0.0000820000,1.5210550000,5.3709760000
 ****
 O       
 PQN=2,2 NValence=6 F0ss=0.7455940000 F0sp=0.5814220000 F0pp=0.4393740000 F2pp=0.2294290000
 G1sp=0.3535640000
 ZetaOverlap=2.7714830000,2.5744810000
 U=-3.8069400000,-2.7329690000
 Beta=-1.1272460000,-1.1587550000 DDN=0,1,0.5172290000 DDN=1,1,0.4110560000
 CoreKO=0.8743200000 KON=0,0,0,0.8886000000 KON=1,0,1,0.5063100000 KON=0,1,1,0.8996480000
 KON=2,1,1,0.5582300000 EISol=-11.6164441184 EHeat=0.0949133088 Alpha=2.3820330000
 DipHyp=1.0343984867
 GCore=0.0192970000,1.5130470000,1.5620930000
 GCore=0.0058890000,1.6294880000,2.3818730000
 ****
 
 Standard basis: VSTO-6G (5D, 7F)
 Ernie: Thresh=  0.10000D-02 Tol=  0.10000D-05 Strict=F.
  NNHCO=     0 NNPyr=     0 NCTC=     0               EPep=         0.000000000
    EC=        70.194245772  ECS=         2.123766723   EG=         0.361660068
   EHC=         0.000000000  EAt=       -31.051283842  AtH=         1.516354808
 EPDDG=         0.000000000  ECC=        72.679672563 EAtT=        32.567638650
 There are    24 symmetry adapted cartesian basis functions of A   symmetry.
 There are    24 symmetry adapted basis functions of A   symmetry.
    24 basis functions,   144 primitive gaussians,    24 cartesian basis functions
    13 alpha electrons       13 beta electrons
       nuclear repulsion energy       105.2473112136 Hartrees.
 IExCor=    0 DFT=F Ex=HF Corr=None ExCW=0 ScaHFX=  1.000000
 ScaDFX=  1.000000  1.000000  1.000000  1.000000 ScalE2=  1.000000  1.000000
 IRadAn=      0 IRanWt=     -1 IRanGd=            0 ICorTp=0 IEmpDi=  4
 Integral buffers will be    131072 words long.
 Regular integral format.
 Two-electron integral symmetry is turned off.
 Leave Link  301 at Tue Dec  1 17:37:49 2015, MaxMem=    33554432 cpu:         0.0
 (Enter /home/Applications/g09/g09/l302.exe)
 Do NDO integrals.
 NPDir=0 NMtPBC=     1 NCelOv=     1 NCel=       1 NClECP=     1 NCelD=      1
         NCelK=      1 NCelE2=     1 NClLst=     1 CellRange=     0.0.
 One-electron integrals computed using PRISM.
 NBasis=    24 RedAO= F EigKep=  0.00D+00  NBF=    24
 NBsUse=    24 1.00D-04 EigRej=  0.00D+00 NBFU=    24
 Leave Link  302 at Tue Dec  1 17:37:49 2015, MaxMem=    33554432 cpu:         0.0
 (Enter /home/Applications/g09/g09/l303.exe)
 DipDrv:  MaxL=1.
 Leave Link  303 at Tue Dec  1 17:37:49 2015, MaxMem=    33554432 cpu:         0.0
 (Enter /home/Applications/g09/g09/l401.exe)
 Initial guess from the checkpoint file:  "/home/Applications/g09/scratch/Gau-23888.chk"
 B after Tr=     0.000000    0.000000    0.000000
         Rot=    0.984067    0.000183    0.000059   -0.177800 Ang=  20.48 deg.
 Guess basis will be translated and rotated to current coordinates.
 JPrj=0 DoOrth=T DoCkMO=T.
 Leave Link  401 at Tue Dec  1 17:37:49 2015, MaxMem=    33554432 cpu:         0.0
 (Enter /home/Applications/g09/g09/l502.exe)
 Closed shell SCF:
 Using DIIS extrapolation, IDIIS=  1040.
 Overlap will be assumed to be unity.
 Two-electron integral symmetry not used.
 Keep J ints in memory in canonical form, NReq=888082.
 IVT=       79475 IEndB=       79475 NGot=    33554432 MDV=    33473473
 LenX=    33473473 LenY=    33472456
 Requested convergence on RMS density matrix=1.00D-08 within 128 cycles.
 Requested convergence on MAX density matrix=1.00D-06.
 Requested convergence on             energy=1.00D-06.
 No special actions if energy rises.
 FoFCou: FMM=F IPFlag=           0 FMFlag=           0 FMFlg1=           0
         NFxFlg=           0 DoJE=F BraDBF=F KetDBF=F FulRan=T
         wScrn=  0.000000 ICntrl=     600 IOpCl=  2 I1Cent=           0 NGrid=           0
         NMat0=    1 NMatS0=     54 NMatT0=    0 NMatD0=    1 NMtDS0=    0 NMtDT0=    0
 Symmetry not used in FoFCou.

 Cycle   1  Pass 1  IDiag  1:
 E=  1.76723908000851    
 DIIS: error= 1.14D-02 at cycle   1 NSaved=   1.
 NSaved= 1 IEnMin= 1 EnMin=  1.76723908000851     IErMin= 1 ErrMin= 1.14D-02
 ErrMax= 1.14D-02  0.00D+00 EMaxC= 1.00D-01 BMatC= 3.86D-03 BMatP= 3.86D-03
 IDIUse=3 WtCom= 8.86D-01 WtEn= 1.14D-01
 Coeff-Com:  0.100D+01
 Coeff-En:   0.100D+01
 Coeff:      0.100D+01
 GapD=    2.000 DampG=2.000 DampE=0.500 DampFc=1.0000 IDamp=-1.
 RMSDP=3.36D-03 MaxDP=2.06D-02              OVMax= 0.00D+00

 Cycle   2  Pass 1  IDiag  3:
 E=  1.75900033012894     Delta-E=       -0.008238749880 Rises=F Damp=F
 DIIS: error= 2.10D-03 at cycle   2 NSaved=   2.
 NSaved= 2 IEnMin= 2 EnMin=  1.75900033012894     IErMin= 2 ErrMin= 2.10D-03
 ErrMax= 2.10D-03  0.00D+00 EMaxC= 1.00D-01 BMatC= 2.24D-04 BMatP= 3.86D-03
 IDIUse=3 WtCom= 9.79D-01 WtEn= 2.10D-02
 Coeff-Com: -0.263D+00 0.126D+01
 Coeff-En:   0.000D+00 0.100D+01
 Coeff:     -0.258D+00 0.126D+01
 Gap=     0.430 Goal=   None    Shift=    0.000
 RMSDP=1.32D-03 MaxDP=7.77D-03 DE=-8.24D-03 OVMax= 1.09D-02

 Cycle   3  Pass 1  IDiag  3:
 E=  1.75828123285902     Delta-E=       -0.000719097270 Rises=F Damp=F
 DIIS: error= 6.31D-04 at cycle   3 NSaved=   3.
 NSaved= 3 IEnMin= 3 EnMin=  1.75828123285902     IErMin= 3 ErrMin= 6.31D-04
 ErrMax= 6.31D-04  0.00D+00 EMaxC= 1.00D-01 BMatC= 8.78D-06 BMatP= 2.24D-04
 IDIUse=3 WtCom= 9.94D-01 WtEn= 6.31D-03
 Coeff-Com:  0.915D-01-0.515D+00 0.142D+01
 Coeff-En:   0.000D+00 0.000D+00 0.100D+01
 Coeff:      0.909D-01-0.512D+00 0.142D+01
 Gap=     0.430 Goal=   None    Shift=    0.000
 RMSDP=4.42D-04 MaxDP=3.77D-03 DE=-7.19D-04 OVMax= 4.63D-03

 Cycle   4  Pass 1  IDiag  3:
 E=  1.75822904858576     Delta-E=       -0.000052184273 Rises=F Damp=F
 DIIS: error= 1.62D-04 at cycle   4 NSaved=   4.
 NSaved= 4 IEnMin= 4 EnMin=  1.75822904858576     IErMin= 4 ErrMin= 1.62D-04
 ErrMax= 1.62D-04  0.00D+00 EMaxC= 1.00D-01 BMatC= 6.63D-07 BMatP= 8.78D-06
 IDIUse=3 WtCom= 9.98D-01 WtEn= 1.62D-03
 Coeff-Com: -0.264D-01 0.159D+00-0.629D+00 0.150D+01
 Coeff-En:   0.000D+00 0.000D+00 0.000D+00 0.100D+01
 Coeff:     -0.264D-01 0.158D+00-0.628D+00 0.150D+01
 Gap=     0.431 Goal=   None    Shift=    0.000
 RMSDP=1.49D-04 MaxDP=1.53D-03 DE=-5.22D-05 OVMax= 1.67D-03

 Cycle   5  Pass 1  IDiag  3:
 E=  1.75822449908591     Delta-E=       -0.000004549500 Rises=F Damp=F
 DIIS: error= 2.96D-05 at cycle   5 NSaved=   5.
 NSaved= 5 IEnMin= 5 EnMin=  1.75822449908591     IErMin= 5 ErrMin= 2.96D-05
 ErrMax= 2.96D-05  0.00D+00 EMaxC= 1.00D-01 BMatC= 3.58D-08 BMatP= 6.63D-07
 IDIUse=1 WtCom= 1.00D+00 WtEn= 0.00D+00
 Coeff-Com: -0.562D-03 0.115D-02 0.426D-01-0.350D+00 0.131D+01
 Coeff:     -0.562D-03 0.115D-02 0.426D-01-0.350D+00 0.131D+01
 Gap=     0.431 Goal=   None    Shift=    0.000
 RMSDP=3.16D-05 MaxDP=3.23D-04 DE=-4.55D-06 OVMax= 2.88D-04

 Cycle   6  Pass 1  IDiag  3:
 E=  1.75822429342456     Delta-E=       -0.000000205661 Rises=F Damp=F
 DIIS: error= 6.23D-06 at cycle   6 NSaved=   6.
 NSaved= 6 IEnMin= 6 EnMin=  1.75822429342456     IErMin= 6 ErrMin= 6.23D-06
 ErrMax= 6.23D-06  0.00D+00 EMaxC= 1.00D-01 BMatC= 2.11D-09 BMatP= 3.58D-08
 IDIUse=1 WtCom= 1.00D+00 WtEn= 0.00D+00
 Coeff-Com:  0.150D-02-0.836D-02 0.158D-01 0.706D-01-0.555D+00 0.148D+01
 Coeff:      0.150D-02-0.836D-02 0.158D-01 0.706D-01-0.555D+00 0.148D+01
 Gap=     0.431 Goal=   None    Shift=    0.000
 RMSDP=6.12D-06 MaxDP=4.21D-05 DE=-2.06D-07 OVMax= 4.28D-05

 Cycle   7  Pass 1  IDiag  3:
 E=  1.75822428341404     Delta-E=       -0.000000010011 Rises=F Damp=F
 DIIS: error= 1.60D-06 at cycle   7 NSaved=   7.
 NSaved= 7 IEnMin= 7 EnMin=  1.75822428341404     IErMin= 7 ErrMin= 1.60D-06
 ErrMax= 1.60D-06  0.00D+00 EMaxC= 1.00D-01 BMatC= 7.01D-11 BMatP= 2.11D-09
 IDIUse=1 WtCom= 1.00D+00 WtEn= 0.00D+00
 Coeff-Com: -0.614D-03 0.345D-02-0.855D-02-0.146D-01 0.170D+00-0.576D+00
 Coeff-Com:  0.143D+01
 Coeff:     -0.614D-03 0.345D-02-0.855D-02-0.146D-01 0.170D+00-0.576D+00
 Coeff:      0.143D+01
 Gap=     0.431 Goal=   None    Shift=    0.000
 RMSDP=1.09D-06 MaxDP=9.72D-06 DE=-1.00D-08 OVMax= 8.87D-06

 Cycle   8  Pass 1  IDiag  3:
 E=  1.75822428308285     Delta-E=       -0.000000000331 Rises=F Damp=F
 DIIS: error= 3.58D-07 at cycle   8 NSaved=   8.
 NSaved= 8 IEnMin= 8 EnMin=  1.75822428308285     IErMin= 8 ErrMin= 3.58D-07
 ErrMax= 3.58D-07  0.00D+00 EMaxC= 1.00D-01 BMatC= 3.20D-12 BMatP= 7.01D-11
 IDIUse=1 WtCom= 1.00D+00 WtEn= 0.00D+00
 Coeff-Com:  0.199D-03-0.110D-02 0.294D-02 0.322D-02-0.459D-01 0.170D+00
 Coeff-Com: -0.573D+00 0.144D+01
 Coeff:      0.199D-03-0.110D-02 0.294D-02 0.322D-02-0.459D-01 0.170D+00
 Coeff:     -0.573D+00 0.144D+01
 Gap=     0.431 Goal=   None    Shift=    0.000
 RMSDP=2.46D-07 MaxDP=2.27D-06 DE=-3.31D-10 OVMax= 2.08D-06

 Cycle   9  Pass 1  IDiag  3:
 E=  1.75822428306725     Delta-E=       -0.000000000016 Rises=F Damp=F
 DIIS: error= 5.75D-08 at cycle   9 NSaved=   9.
 NSaved= 9 IEnMin= 9 EnMin=  1.75822428306725     IErMin= 9 ErrMin= 5.75D-08
 ErrMax= 5.75D-08  0.00D+00 EMaxC= 1.00D-01 BMatC= 1.31D-13 BMatP= 3.20D-12
 IDIUse=1 WtCom= 1.00D+00 WtEn= 0.00D+00
 Coeff-Com: -0.604D-04 0.331D-03-0.898D-03-0.949D-03 0.133D-01-0.510D-01
 Coeff-Com:  0.190D+00-0.613D+00 0.146D+01
 Coeff:     -0.604D-04 0.331D-03-0.898D-03-0.949D-03 0.133D-01-0.510D-01
 Coeff:      0.190D+00-0.613D+00 0.146D+01
 Gap=     0.431 Goal=   None    Shift=    0.000
 RMSDP=4.59D-08 MaxDP=4.15D-07 DE=-1.56D-11 OVMax= 3.77D-07

 Cycle  10  Pass 1  IDiag  3:
 E=  1.75822428306623     Delta-E=       -0.000000000001 Rises=F Damp=F
 DIIS: error= 6.95D-09 at cycle  10 NSaved=  10.
 NSaved=10 IEnMin=10 EnMin=  1.75822428306623     IErMin=10 ErrMin= 6.95D-09
 ErrMax= 6.95D-09  0.00D+00 EMaxC= 1.00D-01 BMatC= 3.54D-15 BMatP= 1.31D-13
 IDIUse=1 WtCom= 1.00D+00 WtEn= 0.00D+00
 Coeff-Com:  0.136D-04-0.732D-04 0.198D-03 0.213D-03-0.284D-02 0.109D-01
 Coeff-Com: -0.412D-01 0.144D+00-0.457D+00 0.135D+01
 Coeff:      0.136D-04-0.732D-04 0.198D-03 0.213D-03-0.284D-02 0.109D-01
 Coeff:     -0.412D-01 0.144D+00-0.457D+00 0.135D+01
 Gap=     0.431 Goal=   None    Shift=    0.000
 RMSDP=7.73D-09 MaxDP=5.37D-08 DE=-1.02D-12 OVMax= 6.18D-08

 Cycle  11  Pass 2  IDiag  1:
 SCF Done:  E(RAM1) =   1.75822428307     A.U. after   11 cycles
            NFock= 10  Conv=0.77D-08     -V/T= 1.1329
 KE=-1.322482746199D+01 PE=-1.739437674060D+02 EE= 8.367950793753D+01
 Leave Link  502 at Tue Dec  1 17:37:49 2015, MaxMem=    33554432 cpu:         0.0
 (Enter /home/Applications/g09/g09/l701.exe)
 Compute integral first derivatives.
 ... and contract with generalized density number  0.
 Leave Link  701 at Tue Dec  1 17:37:49 2015, MaxMem=    33554432 cpu:         0.0
 (Enter /home/Applications/g09/g09/l702.exe)
 L702 exits ... SP integral derivatives will be done elsewhere.
 Leave Link  702 at Tue Dec  1 17:37:49 2015, MaxMem=    33554432 cpu:         0.0
 (Enter /home/Applications/g09/g09/l703.exe)
 Compute integral first derivatives, UseDBF=F ICtDFT=           0.
 Integral derivatives from FoFJK, PRISM(SPDF).
 Calling FoFJK, ICntrl=      2127 FMM=F ISym2X=0 I1Cent= 0 IOpClX= 0 NMat=1 NMatS=1 NMatT=0.
 FoFJK:  IHMeth= 8 ICntrl=    2127 DoSepK=F KAlg= 0 I1Cent=   0 FoldK=F
 IRaf=         0 NMat=   1 IRICut=       1 DoRegI=T DoRafI=F ISym2E= 0.
 FoFCou: FMM=F IPFlag=           0 FMFlag=      100000 FMFlg1=         800
         NFxFlg=           0 DoJE=F BraDBF=F KetDBF=F FulRan=T
         wScrn=  0.000000 ICntrl=    2127 IOpCl=  0 I1Cent=           0 NGrid=           0
         NMat0=    1 NMatS0=      1 NMatT0=    0 NMatD0=    1 NMtDS0=    0 NMtDT0=    0
 Symmetry not used in FoFCou.
 Leave Link  703 at Tue Dec  1 17:37:49 2015, MaxMem=    33554432 cpu:         0.0
 (Enter /home/Applications/g09/g09/l716.exe)
 Dipole        = 8.72073043D-03 1.31256801D-01 2.07264618D-02
 ***** Axes restored to original set *****
 -------------------------------------------------------------------
 Center     Atomic                   Forces (Hartrees/Bohr)
 Number     Number              X              Y              Z
 -------------------------------------------------------------------
      1        6          -0.047638855   -0.025496112   -0.000654892
      2        6           0.047202146    0.006951793   -0.002604233
      3        8          -0.028734465    0.026298349   -0.005212952
      4        6           0.010877739   -0.011634179    0.022474865
      5        6           0.016561001    0.032510091   -0.015446178
      6        1          -0.007681481   -0.006334698    0.003973929
      7        1          -0.002724924    0.002862967   -0.007011818
      8        1          -0.007807688   -0.022920792    0.001883964
      9        1           0.019946526   -0.002237418    0.002597315
 -------------------------------------------------------------------
 Cartesian Forces:  Max     0.047638855 RMS     0.019489121
 Leave Link  716 at Tue Dec  1 17:37:49 2015, MaxMem=    33554432 cpu:         0.0
 (Enter /home/Applications/g09/g09/l103.exe)

 GradGradGradGradGradGradGradGradGradGradGradGradGradGradGradGradGradGrad
 Berny optimization.
 Using GEDIIS/GDIIS optimizer.
 FormGI is forming the generalized inverse of G from B-inverse, IUseBI=4.
 Internal  Forces:  Max     0.032025820 RMS     0.009413176
 Search for a local minimum.
 Step number   2 out of a maximum of   48
 All quantities printed in internal units (Hartrees-Bohrs-Radians)
 RMS Force = .94132D-02 SwitMx=.10000D-02 MixMth= 1
 Mixed Optimization -- RFO/linear search
 Update second derivatives using D2CorX and points    1    2
 DE= -4.20D-02 DEPred=-5.36D-02 R= 7.83D-01
 TightC=F SS=  1.41D+00  RLast= 3.09D-01 DXNew= 5.0454D-01 9.2622D-01
 Trust test= 7.83D-01 RLast= 3.09D-01 DXMaxT set to 5.05D-01
 ITU=  1  0
 Use linear search instead of GDIIS.
     Eigenvalues ---    0.01902   0.02073   0.02163   0.02204   0.02354
     Eigenvalues ---    0.02396   0.15744   0.15821   0.15913   0.16062
     Eigenvalues ---    0.21898   0.22968   0.30300   0.37588   0.38298
     Eigenvalues ---    0.39538   0.43971   0.44811   0.48490   0.55929
     Eigenvalues ---    0.86365
 RFO step:  Lambda=-1.07258553D-02 EMin= 1.90189384D-02
 Quartic linear search produced a step of  0.09939.
 Iteration  1 RMS(Cart)=  0.03055548 RMS(Int)=  0.00220276
 Iteration  2 RMS(Cart)=  0.00163352 RMS(Int)=  0.00165520
 Iteration  3 RMS(Cart)=  0.00000182 RMS(Int)=  0.00165520
 Iteration  4 RMS(Cart)=  0.00000000 RMS(Int)=  0.00165520
 ITry= 1 IFail=0 DXMaxC= 9.73D-02 DCOld= 1.00D+10 DXMaxT= 5.05D-01 DXLimC= 3.00D+00 Rises=F
 Variable       Old X    -DE/DX   Delta X   Delta X   Delta X     New X
                                 (Linear)    (Quad)   (Total)
    R1        2.49802  -0.01982  -0.02070  -0.02711  -0.04866   2.44936
    R2        2.53217   0.01930  -0.00578   0.04515   0.03918   2.57136
    R3        2.00167   0.01632   0.00164   0.04178   0.04342   2.04509
    R4        2.50920   0.03203   0.00170   0.05532   0.05665   2.56586
    R5        1.95966   0.02407   0.00491   0.05088   0.05580   2.01545
    R6        2.55644   0.00257  -0.00776   0.01451   0.00739   2.56384
    R7        2.46449  -0.00321  -0.01543   0.00719  -0.00747   2.45702
    R8        2.00016   0.00325  -0.00148   0.01095   0.00946   2.00963
    R9        2.07890  -0.01007  -0.00623  -0.02658  -0.03280   2.04610
    A1        1.85602   0.00547   0.00319   0.01779   0.02007   1.87609
    A2        2.10085   0.00886   0.00120   0.05952   0.06118   2.16203
    A3        2.32586  -0.01433  -0.00440  -0.07717  -0.08112   2.24473
    A4        1.90422   0.00007  -0.00215   0.00841   0.00486   1.90908
    A5        2.29205  -0.00199  -0.00177  -0.00998  -0.01155   2.28050
    A6        2.08612   0.00198   0.00396   0.00332   0.00747   2.09359
    A7        1.87633  -0.00790  -0.00129  -0.02686  -0.02780   1.84853
    A8        1.86473   0.00653  -0.00037   0.03237   0.02812   1.89286
    A9        2.11338  -0.00479   0.00040  -0.01656  -0.02184   2.09154
   A10        2.29452  -0.00078   0.00066   0.00899   0.00389   2.29841
   A11        1.92221  -0.00394   0.00085  -0.02606  -0.02614   1.89607
   A12        2.17741   0.00127  -0.00006   0.01123   0.00936   2.18676
   A13        2.17933   0.00300  -0.00053   0.02337   0.02102   2.20035
    D1        0.01692  -0.00111  -0.00083  -0.03136  -0.03259  -0.01567
    D2        3.11425   0.00053   0.00017   0.01729   0.01753   3.13178
    D3       -3.09636  -0.00097  -0.00062  -0.03399  -0.03518  -3.13155
    D4        0.00097   0.00066   0.00038   0.01465   0.01493   0.01590
    D5       -0.04152   0.00340   0.00241   0.08936   0.09137   0.04984
    D6       -3.08819  -0.00043  -0.00012  -0.00715  -0.00667  -3.09486
    D7        3.06653   0.00387   0.00231   0.09609   0.09758  -3.11907
    D8        0.01986   0.00004  -0.00022  -0.00042  -0.00045   0.01941
    D9        0.01236  -0.00160  -0.00121  -0.03445  -0.03462  -0.02226
   D10       -3.09104  -0.00291  -0.00190  -0.07602  -0.07794   3.11421
   D11       -0.03750   0.00350   0.00270   0.08754   0.09081   0.05330
   D12       -3.04041  -0.00278  -0.00126  -0.07550  -0.07436  -3.11477
   D13        0.04899  -0.00433  -0.00329  -0.10971  -0.11286  -0.06387
   D14        3.09553  -0.00061  -0.00072  -0.01388  -0.01467   3.08087
   D15        3.03193   0.00251   0.00118   0.07431   0.07656   3.10849
   D16       -0.20471   0.00623   0.00376   0.17014   0.17475  -0.02997
         Item               Value     Threshold  Converged?
 Maximum Force            0.032026     0.000450     NO 
 RMS     Force            0.009413     0.000300     NO 
 Maximum Displacement     0.097339     0.001800     NO 
 RMS     Displacement     0.030675     0.001200     NO 
 Predicted change in Energy=-6.872924D-03
 Lowest energy point so far.  Saving SCF results.
 GradGradGradGradGradGradGradGradGradGradGradGradGradGradGradGradGradGrad

 Leave Link  103 at Tue Dec  1 17:37:49 2015, MaxMem=    33554432 cpu:         0.0
 (Enter /home/Applications/g09/g09/l202.exe)
                          Input orientation:                          
 ---------------------------------------------------------------------
 Center     Atomic      Atomic             Coordinates (Angstroms)
 Number     Number       Type             X           Y           Z
 ---------------------------------------------------------------------
      1          6           0        0.906274   -0.681357    0.027729
      2          6           0       -0.327926   -1.075849   -0.005792
      3          8           0       -1.146647    0.007080   -0.029489
      4          6           0       -0.331759    1.090652    0.020799
      5          6           0        0.901515    0.679163    0.005781
      6          1           0        1.782987    1.307516   -0.017142
      7          1           0       -0.751202    2.067724    0.038644
      8          1           0       -0.743692   -2.057988   -0.011424
      9          1           0        1.754232   -1.353613    0.042754
 ---------------------------------------------------------------------
                    Distance matrix (angstroms):
                    1          2          3          4          5
     1  C    0.000000
     2  C    1.296147   0.000000
     3  O    2.166034   1.357793   0.000000
     4  C    2.161663   2.166667   1.356723   0.000000
     5  C    1.360705   2.142830   2.155900   1.300198   0.000000
     6  H    2.173994   3.183788   3.205314   2.126175   1.082749
     7  H    3.210108   3.172253   2.099350   1.063448   2.158856
     8  H    2.149194   1.066532   2.104093   3.175635   3.193587
     9  H    1.082214   2.101164   3.204966   3.213451   2.204692
                    6          7          8          9
     6  H    0.000000
     7  H    2.646345   0.000000
     8  H    4.208415   4.126023   0.000000
     9  H    2.661957   4.240609   2.595902   0.000000
 Stoichiometry    C4H4O
 Framework group  C1[X(C4H4O)]
 Deg. of freedom    21
 Full point group                 C1      NOp   1
 RotChk:  IX=0 Diff= 2.05D-02
 Largest Abelian subgroup         C1      NOp   1
 Largest concise Abelian subgroup C1      NOp   1
                         Standard orientation:                         
 ---------------------------------------------------------------------
 Center     Atomic      Atomic             Coordinates (Angstroms)
 Number     Number       Type             X           Y           Z
 ---------------------------------------------------------------------
      1          6           0       -0.754134    0.856262   -0.012957
      2          6           0       -1.049700   -0.405667    0.000146
      3          8           0        0.094622   -1.136360    0.014890
      4          6           0        1.110350   -0.237562   -0.019102
      5          6           0        0.602436    0.958879    0.013562
      6          1           0        1.158944    1.886860    0.052246
      7          1           0        2.117612   -0.578007   -0.040087
      8          1           0       -1.995831   -0.897917   -0.004000
      9          1           0       -1.491409    1.648471   -0.017175
 ---------------------------------------------------------------------
 Rotational constants (GHZ):     10.0100161      9.8002727      4.9536329
 Leave Link  202 at Tue Dec  1 17:37:49 2015, MaxMem=    33554432 cpu:         0.0
 (Enter /home/Applications/g09/g09/l301.exe)

 Semi-emprical parameters in input format:
 Method=8 CoreType=1 PeptideFC=0.0120930000 RIJScale=0.5388840000
 ****
 H       
 PQN=1 NValence=1 F0ss=0.5586300000 ZetaOverlap=1.0950750000 U=-0.4119510000
 Beta=-0.2338190000 CoreKO=1.1007910000 KON=0,0,0,0.9764370000 KON=1,0,1,1.1361190000
 KON=0,1,1,1.0139660000 KON=2,1,1,1.2635130000 EISol=-0.4188110042 EHeat=0.0830298228
 Alpha=1.4078420000
 GCore=0.0080140000,1.2229470000,2.2663690000
 GCore=0.0002960000,1.5853770000,2.7382840000
 GCore=-0.0012210000,0.6561060000,3.9519220000
 ****
 C       
 PQN=2,2 NValence=4 F0ss=0.4805700000 F0sp=0.4819370000 F0pp=0.3439950000 F2pp=0.1961420000
 G1sp=0.2678900000
 ZetaOverlap=1.8366850000,1.4875730000
 U=-1.4842670000,-1.3886060000
 Beta=-0.6376780000,-0.3536670000 DDN=0,1,0.9094820000 DDN=1,1,0.8346670000
 CoreKO=1.1045690000 KON=0,0,0,1.0182330000 KON=1,0,1,0.7342900000 KON=0,1,1,1.1944780000
 KON=2,1,1,0.7056720000 EISol=-4.4398989268 EHeat=0.2723305520 Alpha=1.4025920000
 DipHyp=1.8188593534
 GCore=0.0007870000,1.5590290000,2.8992300000
 GCore=0.0031100000,1.3744800000,3.7653660000
 GCore=-0.0013700000,1.3772400000,4.0631190000
 GCore=-0.0000820000,1.5210550000,5.3709760000
 ****
 O       
 PQN=2,2 NValence=6 F0ss=0.7455940000 F0sp=0.5814220000 F0pp=0.4393740000 F2pp=0.2294290000
 G1sp=0.3535640000
 ZetaOverlap=2.7714830000,2.5744810000
 U=-3.8069400000,-2.7329690000
 Beta=-1.1272460000,-1.1587550000 DDN=0,1,0.5172290000 DDN=1,1,0.4110560000
 CoreKO=0.8743200000 KON=0,0,0,0.8886000000 KON=1,0,1,0.5063100000 KON=0,1,1,0.8996480000
 KON=2,1,1,0.5582300000 EISol=-11.6164441184 EHeat=0.0949133088 Alpha=2.3820330000
 DipHyp=1.0343984867
 GCore=0.0192970000,1.5130470000,1.5620930000
 GCore=0.0058890000,1.6294880000,2.3818730000
 ****
 
 Standard basis: VSTO-6G (5D, 7F)
 Ernie: Thresh=  0.10000D-02 Tol=  0.10000D-05 Strict=F.
  NNHCO=     0 NNPyr=     0 NCTC=     0               EPep=         0.000000000
    EC=        69.930160020  ECS=         2.084310498   EG=         0.348255378
   EHC=         0.000000000  EAt=       -31.051283842  AtH=         1.516354808
 EPDDG=         0.000000000  ECC=        72.362725896 EAtT=        32.567638650
 There are    24 symmetry adapted cartesian basis functions of A   symmetry.
 There are    24 symmetry adapted basis functions of A   symmetry.
    24 basis functions,   144 primitive gaussians,    24 cartesian basis functions
    13 alpha electrons       13 beta electrons
       nuclear repulsion energy       104.9303645465 Hartrees.
 IExCor=    0 DFT=F Ex=HF Corr=None ExCW=0 ScaHFX=  1.000000
 ScaDFX=  1.000000  1.000000  1.000000  1.000000 ScalE2=  1.000000  1.000000
 IRadAn=      0 IRanWt=     -1 IRanGd=            0 ICorTp=0 IEmpDi=  4
 Integral buffers will be    131072 words long.
 Regular integral format.
 Two-electron integral symmetry is turned off.
 Leave Link  301 at Tue Dec  1 17:37:49 2015, MaxMem=    33554432 cpu:         0.0
 (Enter /home/Applications/g09/g09/l302.exe)
 Do NDO integrals.
 NPDir=0 NMtPBC=     1 NCelOv=     1 NCel=       1 NClECP=     1 NCelD=      1
         NCelK=      1 NCelE2=     1 NClLst=     1 CellRange=     0.0.
 One-electron integrals computed using PRISM.
 NBasis=    24 RedAO= F EigKep=  0.00D+00  NBF=    24
 NBsUse=    24 1.00D-04 EigRej=  0.00D+00 NBFU=    24
 Leave Link  302 at Tue Dec  1 17:37:49 2015, MaxMem=    33554432 cpu:         0.0
 (Enter /home/Applications/g09/g09/l303.exe)
 DipDrv:  MaxL=1.
 Leave Link  303 at Tue Dec  1 17:37:49 2015, MaxMem=    33554432 cpu:         0.0
 (Enter /home/Applications/g09/g09/l401.exe)
 Initial guess from the checkpoint file:  "/home/Applications/g09/scratch/Gau-23888.chk"
 B after Tr=     0.000000    0.000000    0.000000
         Rot=    0.999968    0.000008   -0.000020   -0.007969 Ang=   0.91 deg.
 Guess basis will be translated and rotated to current coordinates.
 JPrj=0 DoOrth=T DoCkMO=T.
 Leave Link  401 at Tue Dec  1 17:37:49 2015, MaxMem=    33554432 cpu:         0.0
 (Enter /home/Applications/g09/g09/l502.exe)
 Closed shell SCF:
 Using DIIS extrapolation, IDIIS=  1040.
 Overlap will be assumed to be unity.
 Two-electron integral symmetry not used.
 Keep J ints in memory in canonical form, NReq=888082.
 IVT=       79475 IEndB=       79475 NGot=    33554432 MDV=    33473473
 LenX=    33473473 LenY=    33472456
 Requested convergence on RMS density matrix=1.00D-08 within 128 cycles.
 Requested convergence on MAX density matrix=1.00D-06.
 Requested convergence on             energy=1.00D-06.
 No special actions if energy rises.
 FoFCou: FMM=F IPFlag=           0 FMFlag=           0 FMFlg1=           0
         NFxFlg=           0 DoJE=F BraDBF=F KetDBF=F FulRan=T
         wScrn=  0.000000 ICntrl=     600 IOpCl=  2 I1Cent=           0 NGrid=           0
         NMat0=    1 NMatS0=     54 NMatT0=    0 NMatD0=    1 NMtDS0=    0 NMtDT0=    0
 Symmetry not used in FoFCou.

 Cycle   1  Pass 1  IDiag  1:
 E=  1.76012585007331    
 DIIS: error= 1.08D-02 at cycle   1 NSaved=   1.
 NSaved= 1 IEnMin= 1 EnMin=  1.76012585007331     IErMin= 1 ErrMin= 1.08D-02
 ErrMax= 1.08D-02  0.00D+00 EMaxC= 1.00D-01 BMatC= 2.82D-03 BMatP= 2.82D-03
 IDIUse=3 WtCom= 8.92D-01 WtEn= 1.08D-01
 Coeff-Com:  0.100D+01
 Coeff-En:   0.100D+01
 Coeff:      0.100D+01
 GapD=    2.000 DampG=2.000 DampE=0.500 DampFc=1.0000 IDamp=-1.
 RMSDP=2.94D-03 MaxDP=1.61D-02              OVMax= 0.00D+00

 Cycle   2  Pass 1  IDiag  3:
 E=  1.75374875030305     Delta-E=       -0.006377099770 Rises=F Damp=F
 DIIS: error= 2.79D-03 at cycle   2 NSaved=   2.
 NSaved= 2 IEnMin= 2 EnMin=  1.75374875030305     IErMin= 2 ErrMin= 2.79D-03
 ErrMax= 2.79D-03  0.00D+00 EMaxC= 1.00D-01 BMatC= 2.04D-04 BMatP= 2.82D-03
 IDIUse=3 WtCom= 9.72D-01 WtEn= 2.79D-02
 Coeff-Com: -0.316D+00 0.132D+01
 Coeff-En:   0.000D+00 0.100D+01
 Coeff:     -0.307D+00 0.131D+01
 Gap=     0.437 Goal=   None    Shift=    0.000
 RMSDP=1.30D-03 MaxDP=5.69D-03 DE=-6.38D-03 OVMax= 6.50D-03

 Cycle   3  Pass 1  IDiag  3:
 E=  1.75306462761505     Delta-E=       -0.000684122688 Rises=F Damp=F
 DIIS: error= 3.73D-04 at cycle   3 NSaved=   3.
 NSaved= 3 IEnMin= 3 EnMin=  1.75306462761505     IErMin= 3 ErrMin= 3.73D-04
 ErrMax= 3.73D-04  0.00D+00 EMaxC= 1.00D-01 BMatC= 6.83D-06 BMatP= 2.04D-04
 IDIUse=3 WtCom= 9.96D-01 WtEn= 3.73D-03
 Coeff-Com:  0.107D+00-0.526D+00 0.142D+01
 Coeff-En:   0.000D+00 0.000D+00 0.100D+01
 Coeff:      0.106D+00-0.524D+00 0.142D+01
 Gap=     0.437 Goal=   None    Shift=    0.000
 RMSDP=3.60D-04 MaxDP=1.73D-03 DE=-6.84D-04 OVMax= 2.18D-03

 Cycle   4  Pass 1  IDiag  3:
 E=  1.75302797272830     Delta-E=       -0.000036654887 Rises=F Damp=F
 DIIS: error= 7.18D-05 at cycle   4 NSaved=   4.
 NSaved= 4 IEnMin= 4 EnMin=  1.75302797272830     IErMin= 4 ErrMin= 7.18D-05
 ErrMax= 7.18D-05  0.00D+00 EMaxC= 1.00D-01 BMatC= 3.12D-07 BMatP= 6.83D-06
 IDIUse=1 WtCom= 1.00D+00 WtEn= 0.00D+00
 Coeff-Com: -0.629D-03 0.175D-01-0.259D+00 0.124D+01
 Coeff:     -0.629D-03 0.175D-01-0.259D+00 0.124D+01
 Gap=     0.437 Goal=   None    Shift=    0.000
 RMSDP=8.47D-05 MaxDP=5.75D-04 DE=-3.67D-05 OVMax= 6.31D-04

 Cycle   5  Pass 1  IDiag  3:
 E=  1.75302621259264     Delta-E=       -0.000001760136 Rises=F Damp=F
 DIIS: error= 1.71D-05 at cycle   5 NSaved=   5.
 NSaved= 5 IEnMin= 5 EnMin=  1.75302621259264     IErMin= 5 ErrMin= 1.71D-05
 ErrMax= 1.71D-05  0.00D+00 EMaxC= 1.00D-01 BMatC= 1.61D-08 BMatP= 3.12D-07
 IDIUse=1 WtCom= 1.00D+00 WtEn= 0.00D+00
 Coeff-Com: -0.456D-02 0.178D-01 0.226D-01-0.419D+00 0.138D+01
 Coeff:     -0.456D-02 0.178D-01 0.226D-01-0.419D+00 0.138D+01
 Gap=     0.437 Goal=   None    Shift=    0.000
 RMSDP=1.86D-05 MaxDP=1.63D-04 DE=-1.76D-06 OVMax= 1.44D-04

 Cycle   6  Pass 1  IDiag  3:
 E=  1.75302612848533     Delta-E=       -0.000000084107 Rises=F Damp=F
 DIIS: error= 4.14D-06 at cycle   6 NSaved=   6.
 NSaved= 6 IEnMin= 6 EnMin=  1.75302612848533     IErMin= 6 ErrMin= 4.14D-06
 ErrMax= 4.14D-06  0.00D+00 EMaxC= 1.00D-01 BMatC= 7.76D-10 BMatP= 1.61D-08
 IDIUse=1 WtCom= 1.00D+00 WtEn= 0.00D+00
 Coeff-Com:  0.229D-02-0.950D-02-0.195D-02 0.168D+00-0.706D+00 0.155D+01
 Coeff:      0.229D-02-0.950D-02-0.195D-02 0.168D+00-0.706D+00 0.155D+01
 Gap=     0.437 Goal=   None    Shift=    0.000
 RMSDP=4.36D-06 MaxDP=3.94D-05 DE=-8.41D-08 OVMax= 4.07D-05

 Cycle   7  Pass 1  IDiag  3:
 E=  1.75302612416569     Delta-E=       -0.000000004320 Rises=F Damp=F
 DIIS: error= 6.97D-07 at cycle   7 NSaved=   7.
 NSaved= 7 IEnMin= 7 EnMin=  1.75302612416569     IErMin= 7 ErrMin= 6.97D-07
 ErrMax= 6.97D-07  0.00D+00 EMaxC= 1.00D-01 BMatC= 2.32D-11 BMatP= 7.76D-10
 IDIUse=1 WtCom= 1.00D+00 WtEn= 0.00D+00
 Coeff-Com: -0.680D-03 0.286D-02-0.216D-03-0.460D-01 0.207D+00-0.573D+00
 Coeff-Com:  0.141D+01
 Coeff:     -0.680D-03 0.286D-02-0.216D-03-0.460D-01 0.207D+00-0.573D+00
 Coeff:      0.141D+01
 Gap=     0.437 Goal=   None    Shift=    0.000
 RMSDP=7.77D-07 MaxDP=6.32D-06 DE=-4.32D-09 OVMax= 8.65D-06

 Cycle   8  Pass 1  IDiag  3:
 E=  1.75302612403468     Delta-E=       -0.000000000131 Rises=F Damp=F
 DIIS: error= 1.53D-07 at cycle   8 NSaved=   8.
 NSaved= 8 IEnMin= 8 EnMin=  1.75302612403468     IErMin= 8 ErrMin= 1.53D-07
 ErrMax= 1.53D-07  0.00D+00 EMaxC= 1.00D-01 BMatC= 9.17D-13 BMatP= 2.32D-11
 IDIUse=1 WtCom= 1.00D+00 WtEn= 0.00D+00
 Coeff-Com:  0.180D-03-0.760D-03 0.934D-04 0.121D-01-0.551D-01 0.165D+00
 Coeff-Com: -0.526D+00 0.140D+01
 Coeff:      0.180D-03-0.760D-03 0.934D-04 0.121D-01-0.551D-01 0.165D+00
 Coeff:     -0.526D+00 0.140D+01
 Gap=     0.437 Goal=   None    Shift=    0.000
 RMSDP=1.43D-07 MaxDP=1.31D-06 DE=-1.31D-10 OVMax= 1.53D-06

 Cycle   9  Pass 1  IDiag  3:
 E=  1.75302612402943     Delta-E=       -0.000000000005 Rises=F Damp=F
 DIIS: error= 4.24D-08 at cycle   9 NSaved=   9.
 NSaved= 9 IEnMin= 9 EnMin=  1.75302612402943     IErMin= 9 ErrMin= 4.24D-08
 ErrMax= 4.24D-08  0.00D+00 EMaxC= 1.00D-01 BMatC= 5.62D-14 BMatP= 9.17D-13
 IDIUse=1 WtCom= 1.00D+00 WtEn= 0.00D+00
 Coeff-Com: -0.402D-04 0.170D-03-0.112D-04-0.284D-02 0.129D-01-0.434D-01
 Coeff-Com:  0.164D+00-0.655D+00 0.152D+01
 Coeff:     -0.402D-04 0.170D-03-0.112D-04-0.284D-02 0.129D-01-0.434D-01
 Coeff:      0.164D+00-0.655D+00 0.152D+01
 Gap=     0.437 Goal=   None    Shift=    0.000
 RMSDP=4.30D-08 MaxDP=4.46D-07 DE=-5.24D-12 OVMax= 4.90D-07

 Cycle  10  Pass 1  IDiag  3:
 E=  1.75302612402903     Delta-E=        0.000000000000 Rises=F Damp=F
 DIIS: error= 6.22D-09 at cycle  10 NSaved=  10.
 NSaved=10 IEnMin=10 EnMin=  1.75302612402903     IErMin=10 ErrMin= 6.22D-09
 ErrMax= 6.22D-09  0.00D+00 EMaxC= 1.00D-01 BMatC= 1.47D-15 BMatP= 5.62D-14
 IDIUse=1 WtCom= 1.00D+00 WtEn= 0.00D+00
 Coeff-Com:  0.981D-05-0.417D-04 0.663D-05 0.673D-03-0.306D-02 0.106D-01
 Coeff-Com: -0.404D-01 0.177D+00-0.525D+00 0.138D+01
 Coeff:      0.981D-05-0.417D-04 0.663D-05 0.673D-03-0.306D-02 0.106D-01
 Coeff:     -0.404D-01 0.177D+00-0.525D+00 0.138D+01
 Gap=     0.437 Goal=   None    Shift=    0.000
 RMSDP=6.31D-09 MaxDP=6.01D-08 DE=-3.98D-13 OVMax= 6.22D-08

 Cycle  11  Pass 2  IDiag  1:
 SCF Done:  E(RAM1) =   1.75302612403     A.U. after   11 cycles
            NFock= 10  Conv=0.63D-08     -V/T= 1.1330
 KE=-1.317756249388D+01 PE=-1.734725779445D+02 EE= 8.347280201591D+01
 Leave Link  502 at Tue Dec  1 17:37:49 2015, MaxMem=    33554432 cpu:         0.0
 (Enter /home/Applications/g09/g09/l701.exe)
 Compute integral first derivatives.
 ... and contract with generalized density number  0.
 Leave Link  701 at Tue Dec  1 17:37:49 2015, MaxMem=    33554432 cpu:         0.0
 (Enter /home/Applications/g09/g09/l702.exe)
 L702 exits ... SP integral derivatives will be done elsewhere.
 Leave Link  702 at Tue Dec  1 17:37:49 2015, MaxMem=    33554432 cpu:         0.0
 (Enter /home/Applications/g09/g09/l703.exe)
 Compute integral first derivatives, UseDBF=F ICtDFT=           0.
 Integral derivatives from FoFJK, PRISM(SPDF).
 Calling FoFJK, ICntrl=      2127 FMM=F ISym2X=0 I1Cent= 0 IOpClX= 0 NMat=1 NMatS=1 NMatT=0.
 FoFJK:  IHMeth= 8 ICntrl=    2127 DoSepK=F KAlg= 0 I1Cent=   0 FoldK=F
 IRaf=         0 NMat=   1 IRICut=       1 DoRegI=T DoRafI=F ISym2E= 0.
 FoFCou: FMM=F IPFlag=           0 FMFlag=      100000 FMFlg1=         800
         NFxFlg=           0 DoJE=F BraDBF=F KetDBF=F FulRan=T
         wScrn=  0.000000 ICntrl=    2127 IOpCl=  0 I1Cent=           0 NGrid=           0
         NMat0=    1 NMatS0=      1 NMatT0=    0 NMatD0=    1 NMtDS0=    0 NMtDT0=    0
 Symmetry not used in FoFCou.
 Leave Link  703 at Tue Dec  1 17:37:49 2015, MaxMem=    33554432 cpu:         0.0
 (Enter /home/Applications/g09/g09/l716.exe)
 Dipole        =-1.89858766D-02 1.75942831D-01-1.57153424D-02
 ***** Axes restored to original set *****
 -------------------------------------------------------------------
 Center     Atomic                   Forces (Hartrees/Bohr)
 Number     Number              X              Y              Z
 -------------------------------------------------------------------
      1        6          -0.001087569    0.000496315   -0.006499564
      2        6          -0.007597193    0.003287847   -0.000372672
      3        8           0.003085219   -0.001512447    0.007559905
      4        6           0.001640769   -0.008458858   -0.010316275
      5        6           0.002199980    0.000648261    0.007592402
      6        1           0.000354140   -0.000744703    0.001713710
      7        1          -0.000523743    0.000314177   -0.000170202
      8        1          -0.001402293    0.001371956   -0.000089545
      9        1           0.003330691    0.004597452    0.000582242
 -------------------------------------------------------------------
 Cartesian Forces:  Max     0.010316275 RMS     0.004151381
 Leave Link  716 at Tue Dec  1 17:37:49 2015, MaxMem=    33554432 cpu:         0.0
 (Enter /home/Applications/g09/g09/l103.exe)

 GradGradGradGradGradGradGradGradGradGradGradGradGradGradGradGradGradGrad
 Berny optimization.
 Using GEDIIS/GDIIS optimizer.
 FormGI is forming the generalized inverse of G from B-inverse, IUseBI=4.
 Internal  Forces:  Max     0.006310562 RMS     0.002750047
 Search for a local minimum.
 Step number   3 out of a maximum of   48
 All quantities printed in internal units (Hartrees-Bohrs-Radians)
 RMS Force = .27500D-02 SwitMx=.10000D-02 MixMth= 1
 Mixed Optimization -- RFO/linear search
 Update second derivatives using D2CorX and points    1    2    3
 DE= -5.20D-03 DEPred=-6.87D-03 R= 7.56D-01
 TightC=F SS=  1.41D+00  RLast= 3.45D-01 DXNew= 8.4853D-01 1.0338D+00
 Trust test= 7.56D-01 RLast= 3.45D-01 DXMaxT set to 8.49D-01
 ITU=  1  1  0
 Use linear search instead of GDIIS.
     Eigenvalues ---    0.01886   0.01978   0.02142   0.02193   0.02368
     Eigenvalues ---    0.03502   0.13202   0.15999   0.16000   0.16209
     Eigenvalues ---    0.21293   0.22783   0.30279   0.37637   0.38975
     Eigenvalues ---    0.40093   0.44068   0.44948   0.49405   0.58591
     Eigenvalues ---    0.84354
 RFO step:  Lambda=-2.86063280D-03 EMin= 1.88614334D-02
 Quartic linear search produced a step of -0.10577.
 Iteration  1 RMS(Cart)=  0.03943156 RMS(Int)=  0.00186293
 Iteration  2 RMS(Cart)=  0.00141569 RMS(Int)=  0.00120437
 Iteration  3 RMS(Cart)=  0.00000154 RMS(Int)=  0.00120437
 Iteration  4 RMS(Cart)=  0.00000000 RMS(Int)=  0.00120437
 ITry= 1 IFail=0 DXMaxC= 1.21D-01 DCOld= 1.00D+10 DXMaxT= 8.49D-01 DXLimC= 3.00D+00 Rises=F
 Variable       Old X    -DE/DX   Delta X   Delta X   Delta X     New X
                                 (Linear)    (Quad)   (Total)
    R1        2.44936   0.00560   0.00515  -0.01741  -0.01162   2.43774
    R2        2.57136  -0.00446  -0.00414   0.00330  -0.00089   2.57047
    R3        2.04509  -0.00024  -0.00459   0.01603   0.01144   2.05653
    R4        2.56586  -0.00631  -0.00599   0.01200   0.00645   2.57231
    R5        2.01545  -0.00072  -0.00590   0.02156   0.01566   2.03111
    R6        2.56384  -0.00315  -0.00078  -0.00851  -0.00973   2.55411
    R7        2.45702  -0.00227   0.00079  -0.01601  -0.01583   2.44119
    R8        2.00963   0.00049  -0.00100   0.00365   0.00265   2.01228
    R9        2.04610  -0.00018   0.00347  -0.01616  -0.01269   2.03341
    A1        1.87609   0.00028  -0.00212   0.01381   0.00977   1.88586
    A2        2.16203   0.00571  -0.00647   0.05360   0.04614   2.20818
    A3        2.24473  -0.00594   0.00858  -0.06524  -0.05722   2.18751
    A4        1.90908  -0.00075  -0.00051  -0.00160  -0.00269   1.90639
    A5        2.28050   0.00221   0.00122   0.00545   0.00666   2.28716
    A6        2.09359  -0.00146  -0.00079  -0.00408  -0.00496   2.08863
    A7        1.84853  -0.00060   0.00294  -0.01314  -0.01210   1.83643
    A8        1.89286   0.00370  -0.00297   0.02502   0.01940   1.91226
    A9        2.09154  -0.00217   0.00231  -0.01839  -0.01542   2.07612
   A10        2.29841  -0.00143  -0.00041  -0.00498  -0.00479   2.29361
   A11        1.89607  -0.00232   0.00276  -0.01571  -0.01496   1.88112
   A12        2.18676   0.00033  -0.00099   0.00138   0.00129   2.18805
   A13        2.20035   0.00200  -0.00222   0.01442   0.01302   2.21337
    D1       -0.01567   0.00098   0.00345   0.02305   0.02679   0.01113
    D2        3.13178   0.00156  -0.00185   0.07141   0.07052  -3.08088
    D3       -3.13155  -0.00107   0.00372  -0.05905  -0.05808   3.09356
    D4        0.01590  -0.00049  -0.00158  -0.01070  -0.01435   0.00155
    D5        0.04984  -0.00364  -0.00966  -0.09226  -0.10105  -0.05121
    D6       -3.09486  -0.00179   0.00071  -0.06317  -0.06151   3.12682
    D7       -3.11907  -0.00122  -0.01032  -0.00261  -0.01545  -3.13452
    D8        0.01941   0.00063   0.00005   0.02648   0.02410   0.04351
    D9       -0.02226   0.00180   0.00366   0.05049   0.05306   0.03080
   D10        3.11421   0.00130   0.00824   0.00819   0.01515   3.12936
[...]
     37  0.195293D-05  0.000000D+00  0.177293D-05  0.190869D-05  0.203807D-05
     38  0.000000D+00  0.000000D+00  0.000000D+00  0.622676D-05 -0.575513D-05
               16            17            18            19            20 
     16  0.133603D+00
     17 -0.560804D-01  0.112117D+00
     18  0.270960D-01 -0.617538D-01  0.945693D-01
     19  0.289844D-01 -0.503630D-01 -0.328155D-01  0.831785D-01
     20 -0.107317D-01 -0.258258D-01  0.193211D-01  0.650477D-02  0.938177D-01
     21  0.964176D-02  0.148977D-01 -0.959542D-02 -0.530230D-02 -0.470601D-01
     22  0.108994D-02  0.109281D-01 -0.972564D-02 -0.120247D-02 -0.467576D-01
     23 -0.948454D-05  0.000000D+00  0.000000D+00  0.000000D+00 -0.545953D-05
     24  0.584453D-05  0.000000D+00  0.000000D+00 -0.146299D-05  0.292934D-05
     25 -0.853665D-05  0.190457D-05 -0.145426D-05  0.000000D+00 -0.618319D-05
     26  0.679242D-05  0.169893D-05  0.000000D+00 -0.178440D-05  0.220567D-05
     27  0.199147D-05  0.276483D-05 -0.141945D-05 -0.124589D-05 -0.125517D-05
     28  0.124320D-05  0.199442D-05  0.000000D+00  0.000000D+00  0.000000D+00
     29  0.144094D-05  0.147699D-05  0.000000D+00  0.000000D+00  0.000000D+00
     30  0.000000D+00  0.000000D+00  0.000000D+00  0.000000D+00  0.000000D+00
     31  0.474366D-05 -0.117160D-05  0.000000D+00  0.000000D+00  0.318439D-05
     32  0.000000D+00  0.397571D-05 -0.192061D-05 -0.211272D-05 -0.513867D-05
     33 -0.410256D-05  0.324331D-05 -0.155969D-05 -0.147807D-05  0.000000D+00
     34 -0.112705D-05  0.178696D-05  0.000000D+00  0.000000D+00  0.000000D+00
     35  0.204714D-05  0.000000D+00  0.000000D+00  0.000000D+00  0.168514D-05
     36  0.304950D-05  0.000000D+00  0.000000D+00  0.000000D+00  0.122281D-05
     37 -0.153141D-05  0.000000D+00  0.000000D+00 -0.118128D-05  0.000000D+00
     38  0.000000D+00  0.187299D-05  0.000000D+00 -0.156161D-05  0.000000D+00
               21            22            23            24            25 
     21  0.739035D-01
     22 -0.268434D-01  0.736010D-01
     23  0.206575D-05  0.301778D-05  0.228112D-01
     24  0.000000D+00 -0.207965D-05  0.324424D-02  0.172890D-01
     25  0.276621D-05  0.322421D-05  0.916752D-02 -0.775980D-02  0.154798D-01
     26  0.000000D+00 -0.187321D-05 -0.103995D-01  0.628501D-02 -0.144752D-02
     27  0.122666D-05  0.000000D+00 -0.177975D-01 -0.755424D-02 -0.297678D-02
     28  0.000000D+00  0.000000D+00 -0.787502D-02 -0.391034D-02  0.211014D-02
     29  0.000000D+00  0.000000D+00 -0.442923D-02  0.322762D-02 -0.916161D-02
     30  0.000000D+00  0.000000D+00  0.549322D-02  0.687152D-02 -0.407469D-02
     31 -0.194371D-05 -0.116926D-05 -0.191097D-01  0.204599D-02 -0.116402D-01
     32  0.225900D-05  0.274631D-05 -0.226718D-02 -0.100432D-01  0.293023D-02
     33  0.102158D-05  0.000000D+00  0.783195D-02 -0.683498D-02  0.975559D-02
     34  0.000000D+00 -0.131361D-05  0.513025D-02 -0.803147D-03  0.153734D-02
     35 -0.168719D-05  0.000000D+00  0.573811D-02  0.887472D-02 -0.439324D-02
     36  0.179983D-05 -0.278851D-05 -0.439050D-02  0.515512D-02 -0.958586D-02
     37 -0.153133D-05  0.100777D-05  0.887584D-02  0.186939D-02  0.515138D-02
     38  0.195569D-05 -0.127618D-05 -0.125278D-02 -0.185021D-02 -0.412394D-04
               26            27            28            29            30 
     26  0.152370D-01
     27  0.726645D-02  0.221909D-01
     28  0.607481D-02  0.767200D-02  0.123028D-01
     29 -0.150476D-02  0.766948D-02 -0.211156D-02  0.123063D-01
     30 -0.269640D-02 -0.684946D-02  0.251924D-02  0.252528D-02  0.118940D-01
     31  0.951554D-02  0.703298D-02  0.514817D-02 -0.285755D-03 -0.217057D-02
     32 -0.484583D-02 -0.178401D-02  0.173552D-02 -0.687647D-02 -0.335694D-02
     33 -0.491134D-02  0.703224D-02 -0.286004D-03  0.514744D-02 -0.217081D-02
     34 -0.439606D-02 -0.178449D-02 -0.687488D-02  0.173588D-02 -0.335450D-02
     35 -0.125663D-02 -0.178012D-01 -0.443212D-02 -0.787442D-02  0.549468D-02
     36 -0.402359D-04 -0.298061D-02 -0.915913D-02  0.210984D-02 -0.406868D-02
     37 -0.185507D-02 -0.756153D-02  0.322014D-02 -0.391226D-02  0.686941D-02
     38 -0.638673D-03  0.725907D-02 -0.150687D-02  0.607200D-02 -0.269395D-02
               31            32            33            34            35 
     31  0.234788D-01
     32  0.526878D-02  0.119622D-01
     33 -0.190255D-01 -0.640072D-02  0.234871D-01
     34 -0.640145D-02 -0.129420D-02  0.527158D-02  0.119625D-01
     35  0.782956D-02  0.512967D-02 -0.191152D-01 -0.226816D-02  0.228200D-01
     36  0.975353D-02  0.153701D-02 -0.116449D-01  0.292799D-02  0.917309D-02
     37 -0.683190D-02 -0.801011D-03  0.204010D-02 -0.100389D-01  0.325392D-02
     38 -0.490792D-02 -0.439367D-02  0.951040D-02 -0.484275D-02 -0.103930D-01
               36            37            38 
     36  0.154800D-01
     37 -0.775177D-02  0.172824D-01
     38 -0.144488D-02  0.627668D-02  0.152248D-01
 Leave Link  716 at Tue Dec  1 17:37:51 2015, MaxMem=    33554432 cpu:         0.0
 (Enter /home/Applications/g09/g09/l103.exe)

 GradGradGradGradGradGradGradGradGradGradGradGradGradGradGradGradGradGrad
 Berny optimization.
 Red2BG is reusing G-inverse.
 Internal  Forces:  Max     0.000376435 RMS     0.000105503
 Search for a local minimum.
 Step number   1 out of a maximum of    2
 All quantities printed in internal units (Hartrees-Bohrs-Radians)
 Second derivative matrix not updated -- analytic derivatives used.
 ITU=  0
     Eigenvalues ---    0.01639   0.02070   0.03753   0.04041   0.07368
     Eigenvalues ---    0.08250   0.09709   0.09909   0.11457   0.11680
     Eigenvalues ---    0.16708   0.24989   0.37608   0.38142   0.40495
     Eigenvalues ---    0.41284   0.61493   0.62063   0.66433   0.78777
     Eigenvalues ---    1.04143
 Angle between quadratic step and forces=  58.71 degrees.
 Linear search not attempted -- first point.
 Iteration  1 RMS(Cart)=  0.00029720 RMS(Int)=  0.00000011
 Iteration  2 RMS(Cart)=  0.00000009 RMS(Int)=  0.00000005
 ITry= 1 IFail=0 DXMaxC= 9.01D-04 DCOld= 1.00D+10 DXMaxT= 3.00D-01 DXLimC= 3.00D+00 Rises=F
 Variable       Old X    -DE/DX   Delta X   Delta X   Delta X     New X
                                 (Linear)    (Quad)   (Total)
    R1        2.45471  -0.00038   0.00000  -0.00048  -0.00048   2.45423
    R2        2.56943  -0.00025   0.00000  -0.00031  -0.00031   2.56912
    R3        2.04485  -0.00003   0.00000  -0.00002  -0.00002   2.04483
    R4        2.55855  -0.00013   0.00000  -0.00017  -0.00017   2.55838
    R5        2.01319   0.00002   0.00000   0.00016   0.00016   2.01335
    R6        2.55843  -0.00008   0.00000  -0.00005  -0.00005   2.55838
    R7        2.45383   0.00031   0.00000   0.00041   0.00041   2.45423
    R8        2.01330   0.00002   0.00000   0.00005   0.00005   2.01335
    R9        2.04466   0.00007   0.00000   0.00017   0.00017   2.04483
    A1        1.88396   0.00007   0.00000   0.00003   0.00003   1.88399
    A2        2.21363  -0.00001   0.00000   0.00026   0.00026   2.21389
    A3        2.18559  -0.00006   0.00000  -0.00028  -0.00028   2.18531
    A4        1.90461   0.00018   0.00000   0.00039   0.00039   1.90500
    A5        2.29405  -0.00009   0.00000  -0.00019  -0.00019   2.29386
    A6        2.08452  -0.00009   0.00000  -0.00020  -0.00020   2.08433
    A7        1.84712  -0.00010   0.00000  -0.00032  -0.00032   1.84680
    A8        1.90493  -0.00005   0.00000   0.00007   0.00007   1.90500
    A9        2.08455  -0.00001   0.00000  -0.00022  -0.00022   2.08433
   A10        2.29371   0.00006   0.00000   0.00015   0.00015   2.29386
   A11        1.88416  -0.00009   0.00000  -0.00017  -0.00017   1.88399
   A12        2.18537   0.00001   0.00000  -0.00007  -0.00007   2.18531
   A13        2.21365   0.00008   0.00000   0.00024   0.00024   2.21389
    D1        0.00010   0.00000   0.00000  -0.00010  -0.00010   0.00000
    D2       -3.14049  -0.00004   0.00000  -0.00111  -0.00111  -3.14159
    D3       -3.14155   0.00001   0.00000  -0.00004  -0.00004   3.14159
    D4        0.00104  -0.00002   0.00000  -0.00104  -0.00104   0.00000
    D5       -0.00009   0.00001   0.00000   0.00009   0.00009   0.00000
    D6        3.14154   0.00000   0.00000   0.00005   0.00005  -3.14159
    D7        3.14157  -0.00001   0.00000   0.00003   0.00003  -3.14159
    D8        0.00001  -0.00001   0.00000  -0.00001  -0.00001   0.00000
    D9       -0.00008   0.00000   0.00000   0.00008   0.00008   0.00000
   D10        3.14065   0.00003   0.00000   0.00094   0.00094   3.14159
   D11        0.00002   0.00000   0.00000  -0.00002  -0.00002   0.00000
   D12       -3.14156   0.00000   0.00000  -0.00003  -0.00003   3.14159
   D13        0.00004  -0.00001   0.00000  -0.00004  -0.00004   0.00000
   D14        3.14159   0.00000   0.00000   0.00000   0.00000  -3.14159
   D15       -3.14157   0.00000   0.00000  -0.00003  -0.00003   3.14159
   D16       -0.00001   0.00000   0.00000   0.00001   0.00001   0.00000
         Item               Value     Threshold  Converged?
 Maximum Force            0.000376     0.000450     YES
 RMS     Force            0.000106     0.000300     YES
 Maximum Displacement     0.000901     0.001800     YES
 RMS     Displacement     0.000297     0.001200     YES
 Predicted change in Energy=-3.562017D-07
 Optimization completed.
    -- Stationary point found.
                           ----------------------------
                           !   Optimized Parameters   !
                           ! (Angstroms and Degrees)  !
 --------------------------                            --------------------------
 ! Name  Definition              Value          Derivative Info.                !
 --------------------------------------------------------------------------------
 ! R1    R(1,2)                  1.299          -DE/DX =   -0.0004              !
 ! R2    R(1,5)                  1.3597         -DE/DX =   -0.0002              !
 ! R3    R(1,9)                  1.0821         -DE/DX =    0.0                 !
 ! R4    R(2,3)                  1.3539         -DE/DX =   -0.0001              !
 ! R5    R(2,8)                  1.0653         -DE/DX =    0.0                 !
 ! R6    R(3,4)                  1.3539         -DE/DX =   -0.0001              !
 ! R7    R(4,5)                  1.2985         -DE/DX =    0.0003              !
 ! R8    R(4,7)                  1.0654         -DE/DX =    0.0                 !
 ! R9    R(5,6)                  1.082          -DE/DX =    0.0001              !
 ! A1    A(2,1,5)              107.9431         -DE/DX =    0.0001              !
 ! A2    A(2,1,9)              126.8318         -DE/DX =    0.0                 !
 ! A3    A(5,1,9)              125.2251         -DE/DX =   -0.0001              !
 ! A4    A(1,2,3)              109.1259         -DE/DX =    0.0002              !
 ! A5    A(1,2,8)              131.4396         -DE/DX =   -0.0001              !
 ! A6    A(3,2,8)              119.4345         -DE/DX =   -0.0001              !
 ! A7    A(2,3,4)              105.832          -DE/DX =   -0.0001              !
 ! A8    A(3,4,5)              109.1444         -DE/DX =   -0.0001              !
 ! A9    A(3,4,7)              119.4358         -DE/DX =    0.0                 !
 ! A10   A(5,4,7)              131.4198         -DE/DX =    0.0001              !
 ! A11   A(1,5,4)              107.9545         -DE/DX =   -0.0001              !
 ! A12   A(1,5,6)              125.2126         -DE/DX =    0.0                 !
 ! A13   A(4,5,6)              126.8329         -DE/DX =    0.0001              !
 ! D1    D(5,1,2,3)              0.0059         -DE/DX =    0.0                 !
 ! D2    D(5,1,2,8)           -179.9366         -DE/DX =    0.0                 !
 ! D3    D(9,1,2,3)            180.0022         -DE/DX =    0.0                 !
 ! D4    D(9,1,2,8)              0.0597         -DE/DX =    0.0                 !
 ! D5    D(2,1,5,4)             -0.0051         -DE/DX =    0.0                 !
 ! D6    D(2,1,5,6)           -180.0028         -DE/DX =    0.0                 !
 ! D7    D(9,1,5,4)           -180.0015         -DE/DX =    0.0                 !
 ! D8    D(9,1,5,6)              0.0008         -DE/DX =    0.0                 !
 ! D9    D(1,2,3,4)             -0.0045         -DE/DX =    0.0                 !
 ! D10   D(8,2,3,4)            179.946          -DE/DX =    0.0                 !
 ! D11   D(2,3,4,5)              0.0013         -DE/DX =    0.0                 !
 ! D12   D(2,3,4,7)            180.0019         -DE/DX =    0.0                 !
 ! D13   D(3,4,5,1)              0.0022         -DE/DX =    0.0                 !
 ! D14   D(3,4,5,6)           -180.0001         -DE/DX =    0.0                 !
 ! D15   D(7,4,5,1)            180.0015         -DE/DX =    0.0                 !
 ! D16   D(7,4,5,6)             -0.0007         -DE/DX =    0.0                 !
 --------------------------------------------------------------------------------
 GradGradGradGradGradGradGradGradGradGradGradGradGradGradGradGradGradGrad

 Leave Link  103 at Tue Dec  1 17:37:51 2015, MaxMem=    33554432 cpu:         0.0
 (Enter /home/Applications/g09/g09/l9999.exe)
 1\1\GINC-DUSTIN-DESKTOP\Freq\RAM1\ZDO\C4H4O1\DUSTIN\01-Dec-2015\0\\#P 
 Geom=AllCheck Guess=TCheck SCRF=Check GenChk RAM1/ZDO Freq\\AM1-Repara
 m Input\\0,1\C,0.8990864163,-0.6847216985,0.0106441295\C,-0.3384298901
 ,-1.0794440713,0.0012477307\O,-1.1497720155,0.0044531488,-0.0014845934
 \C,-0.3284142743,1.0806699598,0.006933764\C,0.905060707,0.6749438191,0
 .014289945\H,1.7917783384,1.2949241469,0.0219607569\H,-0.7483385861,2.
 0598137122,0.0066377053\H,-0.7674548623,-2.0545593814,-0.0033484219\H,
 1.7802641664,-1.3127506357,0.014979984\\Version=ES64L-G09RevD.01\State
 =1-A\HF=1.7520189\RMSD=3.869e-10\RMSF=1.734e-04\ZeroPoint=0.0787206\Th
 ermal=0.0821445\Dipole=0.1735387,-0.0007295,0.0010857\DipoleDeriv=-0.5
 412784,0.3206999,-0.0020792,0.1342209,-0.2484525,0.0004842,-0.0025163,
 0.0018858,-0.1201547,0.6227957,-0.1803153,0.0014897,-0.3523434,-0.0486
 593,-0.003147,0.0010085,-0.0021163,0.354138,-0.6151449,0.0026812,-0.00
 18384,0.0031197,-0.0358122,0.0008491,-0.0018952,0.0008176,-0.3445135,0
 .6273835,0.1741082,0.0023177,0.3457681,-0.0537687,0.0012524,0.0027644,
 0.000181,0.354077,-0.5452826,-0.3180523,-0.0037559,-0.1315408,-0.24449
 8,-0.0012315,-0.0031927,-0.0026014,-0.1202162,0.2089328,0.1172227,0.00
 1652,0.1087854,0.1747795,0.0011687,0.0016095,0.0012582,0.0108832,0.017
 1352,-0.0722698,0.0004215,-0.088839,0.1406284,-0.000057,0.0003912,0.00
 00608,-0.0724808,0.0186322,0.0734459,0.0007705,0.0898774,0.1389676,0.0
 009764,0.0007771,0.000882,-0.0725531,0.2068264,-0.1175206,0.001022,-0.
 1090488,0.1768129,-0.0002952,0.0010542,-0.0003678,0.0108211\Polar=36.5
 004616,-0.0005667,35.6116898,0.2046634,0.074124,6.3876884\HyperPolar=2
 .4408693,-0.178563,-13.1602077,0.1457333,-0.0460375,-0.0513591,-0.0904
 556,4.2365215,-0.0176614,0.0856432\PG=C01 [X(C4H4O1)]\NImag=0\\1.13682
 770,0.01692208,0.92581261,0.00616230,0.00192859,0.23181178,-0.69726234
 ,-0.14457812,-0.00426774,1.05674959,-0.24595677,-0.14965627,-0.0017373
 8,0.11187504,0.95113346,-0.00452489,-0.00104568,-0.12183938,0.00571408
 ,0.00238996,0.24345816,-0.11662357,0.01577420,-0.00096421,-0.23561398,
 0.26164955,-0.00018490,0.70130188,0.07280124,0.00687456,0.00042625,0.2
 1135730,-0.39018080,0.00073024,0.00087989,0.86036846,-0.00081207,0.000
 04233,0.03085962,-0.00031152,0.00105687,-0.11025319,0.00393086,0.00189
 525,0.12653209,0.01149405,0.08727703,0.00024862,-0.00140123,-0.0118584
 6,-0.00022128,-0.24007770,-0.21285216,-0.00143904,1.05639168,0.0117214
 4,-0.02327487,-0.00000050,0.01091154,-0.10309559,-0.00026838,-0.263149
 56,-0.38586420,-0.00251487,-0.11312714,0.95300569,0.00005142,0.0005159
 7,0.00910283,-0.00016818,-0.00040617,0.02569888,-0.00157152,-0.0021851
 9,-0.11024974,0.00525198,0.00108413,0.24318378,-0.08259390,-0.05957686
 ,0.00006848,0.01058934,-0.01203673,-0.00001558,-0.11745724,-0.07169426
 ,-0.00120032,-0.69523284,0.25147071,-0.00325467,1.13817701,0.05518050,
 -0.58066165,-0.00085326,-0.08756768,-0.02239488,-0.00068474,-0.0146570
 3,0.00768011,-0.00015533,0.15006787,-0.15314011,0.00093557,-0.01945070
 ,0.92608198,0.00035923,-0.00164223,-0.11593766,-0.00020502,-0.00017368
 ,0.00909444,-0.00104888,-0.00053834,0.03086726,-0.00352867,0.00163035,
 -0.12157626,0.00613476,0.00169870,0.23152594,-0.00146435,-0.01510769,-
 0.00009597,0.00001553,-0.00167962,-0.00005124,-0.00371913,-0.00038208,
 -0.00008099,-0.04002559,-0.01179202,-0.00033575,-0.22755959,-0.1296431
 9,-0.00149248,0.27510035,-0.02432345,-0.02902808,-0.00026227,-0.001497
 43,-0.00440196,-0.00003967,0.00138171,0.00042006,-0.00001101,-0.003277
 39,0.00892729,-0.00001114,-0.12989464,-0.13147372,-0.00107548,0.158169
 80,0.15829193,-0.00011836,-0.00019772,0.00673440,-0.00005198,-0.000039
 61,0.00688560,-0.00007610,-0.00002407,0.00799796,-0.00031321,-0.000068
 46,0.00470369,-0.00149385,-0.00107464,-0.05867313,0.00206262,0.0014061
 3,0.03361062,-0.00315077,0.00179974,-0.00009425,0.00117083,-0.00194393
 ,-0.00003761,0.00785558,-0.02038588,-0.00005584,-0.09236828,0.11044405
 ,0.00009413,-0.02162451,0.03300426,-0.00010485,-0.00250679,-0.00011927
 ,-0.00001850,0.11133808,0.00199164,-0.00185602,-0.00002123,0.00092634,
 -0.00551845,-0.00002391,-0.00234838,-0.04976112,-0.00016869,0.10330203
 ,-0.28659960,0.00011980,0.01908430,-0.01489917,0.00007306,0.00115551,0
 .00018030,0.00000804,-0.12402031,0.35943349,-0.00009333,-0.00002358,0.
 01133027,-0.00002776,-0.00004322,0.00591645,-0.00000976,-0.00028974,0.
 00812511,0.00007609,0.00016780,-0.06366613,-0.00014222,0.00016973,0.00
 663906,-0.00001546,-0.00000077,0.00017958,0.00019526,0.00000643,0.0349
 0536,-0.02208757,-0.03291746,-0.00026775,-0.09439514,-0.11226958,-0.00
 040786,0.00806005,0.01985107,0.00004685,0.00117948,0.00188081,-0.00002
 555,-0.00318431,-0.00178813,-0.00010035,-0.00043670,-0.00109614,0.0000
 0071,-0.00028769,-0.00012812,0.00001328,0.11366418,-0.01899618,-0.0144
 0167,-0.00017071,-0.10513439,-0.28466970,-0.00109349,0.00181338,-0.049
 96380,-0.00011575,-0.00099092,-0.00552795,-0.00003307,-0.00197517,-0.0
 0182379,-0.00004036,-0.00003891,-0.00066804,-0.00000025,0.00012777,-0.
 00029988,0.00000502,0.12632366,0.35716615,-0.00023789,-0.00026506,0.00
 662814,-0.00038921,-0.00113832,-0.06365932,0.00000532,0.00000091,0.008
 12854,-0.00003227,-0.00001213,0.00591638,-0.00010368,-0.00004173,0.011
 32565,0.00000406,-0.00000556,-0.00100935,0.00001503,0.00000507,-0.0024
 2006,0.00075848,0.00145612,0.03490954,-0.22513939,0.13040684,-0.000789
 48,-0.03985244,0.01222060,-0.00027072,-0.00372595,0.00042487,-0.000077
 92,0.00004059,0.00164007,-0.00004187,-0.00111410,0.01485434,-0.0000137
 5,0.00059629,0.00065680,0.00000866,-0.00042648,0.00003701,0.00000390,-
 0.00251230,-0.00112924,-0.00001982,0.27213382,0.13065947,-0.13380875,0
 .00069051,0.00370742,0.00878435,0.00003567,-0.00134377,0.00042667,-0.0
 0002879,0.00145913,-0.00443048,-0.00001989,0.02407338,-0.02936890,0.00
 006798,-0.00068185,-0.00224773,-0.00000941,0.00109360,-0.00067958,0.00
 000833,0.00014385,0.00018864,0.00000071,-0.15911124,0.16113582,-0.0007
 8640,0.00068740,-0.05868994,-0.00029267,0.00009156,0.00469837,-0.00008
 080,-0.00001531,0.00799229,-0.00004223,-0.00001794,0.00688658,0.000007
 10,0.00000569,0.00673477,0.00000520,-0.00000021,-0.00042940,0.00000662
 ,0.00000142,-0.00100968,-0.00001782,-0.00000751,0.00018044,0.00120101,
 -0.00074510,0.03363655\\0.00041119,-0.00001678,-0.00000504,-0.00038511
 ,-0.00039512,-0.00008860,0.00001048,0.00010974,0.00000407,0.00029505,0
 .00000930,0.00001052,-0.00031872,0.00033935,0.00002886,-0.00007733,-0.
 00001603,-0.00000254,0.00004220,-0.00000870,-0.00000385,0.00000866,0.0
 0001824,0.00005588,0.00001358,-0.00004001,0.00000069\\\@


 IF IT'S NOT TRUE, IT'S WELL INVENTED -- DANTE
 Job cpu time:       0 days  0 hours  0 minutes  0.3 seconds.
 File lengths (MBytes):  RWF=      5 Int=      0 D2E=      0 Chk=      2 Scr=      1
 Normal termination of Gaussian 09 at Tue Dec  1 17:37:51 2015.
