 Entering Gaussian System, Link 0=g09
 Input=FuranAM1_70P10.com
 Output=FuranAM1_70P10.log
 Initial command:
 /home/Applications/g09/g09/l1.exe "/home/Applications/g09/scratch/Gau-9540.inp" -scrdir="/home/Applications/g09/scratch/"
 Entering Link 1 = /home/Applications/g09/g09/l1.exe PID=      9542.
  
 Copyright (c) 1988,1990,1992,1993,1995,1998,2003,2009,2013,
            Gaussian, Inc.  All Rights Reserved.
  
 This is part of the Gaussian(R) 09 program.  It is based on
 the Gaussian(R) 03 system (copyright 2003, Gaussian, Inc.),
 the Gaussian(R) 98 system (copyright 1998, Gaussian, Inc.),
 the Gaussian(R) 94 system (copyright 1995, Gaussian, Inc.),
 the Gaussian 92(TM) system (copyright 1992, Gaussian, Inc.),
 the Gaussian 90(TM) system (copyright 1990, Gaussian, Inc.),
 the Gaussian 88(TM) system (copyright 1988, Gaussian, Inc.),
 the Gaussian 86(TM) system (copyright 1986, Carnegie Mellon
 University), and the Gaussian 82(TM) system (copyright 1983,
 Carnegie Mellon University). Gaussian is a federally registered
 trademark of Gaussian, Inc.
  
 This software contains proprietary and confidential information,
 including trade secrets, belonging to Gaussian, Inc.
  
 This software is provided under written license and may be
 used, copied, transmitted, or stored only in accord with that
 written license.
  
 The following legend is applicable only to US Government
 contracts under FAR:
  
                    RESTRICTED RIGHTS LEGEND
  
 Use, reproduction and disclosure by the US Government is
 subject to restrictions as set forth in subparagraphs (a)
 and (c) of the Commercial Computer Software - Restricted
 Rights clause in FAR 52.227-19.
  
 Gaussian, Inc.
 340 Quinnipiac St., Bldg. 40, Wallingford CT 06492
  
  
 ---------------------------------------------------------------
 Warning -- This program may not be used in any manner that
 competes with the business of Gaussian, Inc. or will provide
 assistance to any competitor of Gaussian, Inc.  The licensee
 of this program is prohibited from giving any competitor of
 Gaussian, Inc. access to this program.  By using this program,
 the user acknowledges that Gaussian, Inc. is engaged in the
 business of creating and licensing software in the field of
 computational chemistry and represents and warrants to the
 licensee that it is not a competitor of Gaussian, Inc. and that
 it will not use this program in any manner prohibited above.
 ---------------------------------------------------------------
  

 Cite this work as:
 Gaussian 09, Revision D.01,
 M. J. Frisch, G. W. Trucks, H. B. Schlegel, G. E. Scuseria, 
 M. A. Robb, J. R. Cheeseman, G. Scalmani, V. Barone, B. Mennucci, 
 G. A. Petersson, H. Nakatsuji, M. Caricato, X. Li, H. P. Hratchian, 
 A. F. Izmaylov, J. Bloino, G. Zheng, J. L. Sonnenberg, M. Hada, 
 M. Ehara, K. Toyota, R. Fukuda, J. Hasegawa, M. Ishida, T. Nakajima, 
 Y. Honda, O. Kitao, H. Nakai, T. Vreven, J. A. Montgomery, Jr., 
 J. E. Peralta, F. Ogliaro, M. Bearpark, J. J. Heyd, E. Brothers, 
 K. N. Kudin, V. N. Staroverov, T. Keith, R. Kobayashi, J. Normand, 
 K. Raghavachari, A. Rendell, J. C. Burant, S. S. Iyengar, J. Tomasi, 
 M. Cossi, N. Rega, J. M. Millam, M. Klene, J. E. Knox, J. B. Cross, 
 V. Bakken, C. Adamo, J. Jaramillo, R. Gomperts, R. E. Stratmann, 
 O. Yazyev, A. J. Austin, R. Cammi, C. Pomelli, J. W. Ochterski, 
 R. L. Martin, K. Morokuma, V. G. Zakrzewski, G. A. Voth, 
 P. Salvador, J. J. Dannenberg, S. Dapprich, A. D. Daniels, 
 O. Farkas, J. B. Foresman, J. V. Ortiz, J. Cioslowski, 
 and D. J. Fox, Gaussian, Inc., Wallingford CT, 2013.
 
 ******************************************
 Gaussian 09:  ES64L-G09RevD.01 24-Apr-2013
                15-Dec-2015 
 ******************************************
 ------------------------------------------------------------
 #P AM1(Input,print) CIS(Singlets,NStates=15) pop(full) force
 ------------------------------------------------------------
 1/10=7,30=1,38=1/1,3;
 2/12=2,17=6,18=5,40=1/2;
 3/5=2,16=1,25=1,41=700000,71=1,135=100,136=1/1,2,8,3;
 4/35=1/1;
 5/5=2,35=1,38=5/2;
 8/6=1,10=1,108=15/1;
 9/15=2,41=15,42=1,48=1,49=10/14;
 10/5=4/2;
 6/7=3,18=1/1;
 7/12=6,13=5,29=1/1,2,3,16;
 1/10=7,30=1/3;
 99//99;
 Leave Link    1 at Tue Dec 15 17:07:43 2015, MaxMem=           0 cpu:         0.0
 (Enter /home/Applications/g09/g09/l101.exe)
 -----------------
 AM1-Reparam Input
 -----------------
 Symbolic Z-matrix:
 Charge =  0 Multiplicity = 1
 6                     0.93161  -0.744     0.00821 
 6                    -0.3651   -1.08296   0.00448 
 8                    -1.20557   0.02245  -0.00868 
 6                    -0.33138   1.05665   0.01686 
 6                     0.9379    0.67766   0.04094 
 1                     1.80556   1.32223   0.04502 
 1                    -0.88858   2.09304  -0.025 
 1                    -0.7932   -2.07036   0.01238 
 1                     1.83452  -1.39159  -0.00229 
 
 NAtoms=      9 NQM=        9 NQMF=       0 NMMI=      0 NMMIF=      0
                NMic=       0 NMicF=      0.
                    Isotopes and Nuclear Properties:
 (Nuclear quadrupole moments (NQMom) in fm**2, nuclear magnetic moments (NMagM)
  in nuclear magnetons)

  Atom         1           2           3           4           5           6           7           8           9
 IAtWgt=          12          12          16          12          12           1           1           1           1
 AtmWgt=  12.0000000  12.0000000  15.9949146  12.0000000  12.0000000   1.0078250   1.0078250   1.0078250   1.0078250
 NucSpn=           0           0           0           0           0           1           1           1           1
 AtZEff=   0.0000000   0.0000000   0.0000000   0.0000000   0.0000000   0.0000000   0.0000000   0.0000000   0.0000000
 NQMom=    0.0000000   0.0000000   0.0000000   0.0000000   0.0000000   0.0000000   0.0000000   0.0000000   0.0000000
 NMagM=    0.0000000   0.0000000   0.0000000   0.0000000   0.0000000   2.7928460   2.7928460   2.7928460   2.7928460
 AtZNuc=   6.0000000   6.0000000   8.0000000   6.0000000   6.0000000   1.0000000   1.0000000   1.0000000   1.0000000
 Leave Link  101 at Tue Dec 15 17:07:43 2015, MaxMem=    33554432 cpu:         0.0
 (Enter /home/Applications/g09/g09/l103.exe)

 GradGradGradGradGradGradGradGradGradGradGradGradGradGradGradGradGradGrad
 Berny optimization.
 Initialization pass.
 Trust Radius=3.00D-01 FncErr=1.00D-07 GrdErr=1.00D-07
 Number of steps in this run=      2 maximum allowed number of steps=      2.
 GradGradGradGradGradGradGradGradGradGradGradGradGradGradGradGradGradGrad

 Leave Link  103 at Tue Dec 15 17:07:43 2015, MaxMem=    33554432 cpu:         0.0
 (Enter /home/Applications/g09/g09/l202.exe)
                          Input orientation:                          
 ---------------------------------------------------------------------
 Center     Atomic      Atomic             Coordinates (Angstroms)
 Number     Number       Type             X           Y           Z
 ---------------------------------------------------------------------
      1          6           0        0.931612   -0.744002    0.008207
      2          6           0       -0.365104   -1.082964    0.004476
      3          8           0       -1.205568    0.022446   -0.008677
      4          6           0       -0.331380    1.056649    0.016859
      5          6           0        0.937901    0.677659    0.040935
      6          1           0        1.805562    1.322230    0.045024
      7          1           0       -0.888577    2.093041   -0.024997
      8          1           0       -0.793197   -2.070357    0.012380
      9          1           0        1.834522   -1.391592   -0.002290
 ---------------------------------------------------------------------
                    Distance matrix (angstroms):
                    1          2          3          4          5
     1  C    0.000000
     2  C    1.340292   0.000000
     3  O    2.270521   1.388699   0.000000
     4  C    2.199447   2.139915   1.354412   0.000000
     5  C    1.422052   2.190649   2.241924   1.324873   0.000000
     6  H    2.243760   3.240122   3.280126   2.153566   1.080890
     7  H    3.370905   3.218991   2.094782   1.177425   2.311639
     8  H    2.175822   1.076230   2.133147   3.160927   3.247939
     9  H    1.111184   2.221182   3.352863   3.268850   2.255570
                    6          7          8          9
     6  H    0.000000
     7  H    2.803112   0.000000
     8  H    4.273671   4.164658   0.000000
     9  H    2.714389   4.422494   2.714009   0.000000
 Stoichiometry    C4H4O
 Framework group  C1[X(C4H4O)]
 Deg. of freedom    21
 Full point group                 C1      NOp   1
 Largest Abelian subgroup         C1      NOp   1
 Largest concise Abelian subgroup C1      NOp   1
                         Standard orientation:                         
 ---------------------------------------------------------------------
 Center     Atomic      Atomic             Coordinates (Angstroms)
 Number     Number       Type             X           Y           Z
 ---------------------------------------------------------------------
      1          6           0       -1.137190    0.380335    0.010335
      2          6           0       -0.696027   -0.885175   -0.005211
      3          8           0        0.690219   -0.967181    0.003865
      4          6           0        1.061751    0.335255   -0.003555
      5          6           0        0.039693    1.178220   -0.013275
      6          1           0        0.091382    2.257813   -0.001811
      7          1           0        2.232895    0.449551    0.037523
      8          1           0       -1.277352   -1.790679   -0.025039
      9          1           0       -2.178041    0.768954    0.028640
 ---------------------------------------------------------------------
 Rotational constants (GHZ):      9.7597030      9.1213746      4.7154722
 Leave Link  202 at Tue Dec 15 17:07:43 2015, MaxMem=    33554432 cpu:         0.0
 (Enter /home/Applications/g09/g09/l301.exe)

 Semi-emprical parameters in input format:
 Method=8 CoreType=1 PeptideFC=0.0106250000 RIJScale=0.5404210000
 ****
 H       
 PQN=1 NValence=1 F0ss=0.4721550000 ZetaOverlap=1.0856700000 U=-0.3858490000
 Beta=-0.2268830000 CoreKO=1.0354420000 KON=0,0,0,1.0458670000 KON=1,0,1,1.0589200000
 KON=0,1,1,1.1438880000 KON=2,1,1,1.0589200000 EISol=-0.4188110042 EHeat=0.0830298228
 Alpha=1.4046640000
 GCore=0.0085280000,1.5127750000,2.2676710000
 GCore=0.0003530000,1.4368830000,3.4779940000
 GCore=-0.0013010000,0.5600570000,3.5861320000
 ****
 C       
 PQN=2,2 NValence=4 F0ss=0.4494440000 F0sp=0.4261420000 F0pp=0.3497590000 F2pp=0.1878900000
 G1sp=0.2701540000
 ZetaOverlap=1.8086650000,1.3781170000
 U=-1.6741410000,-1.4557970000
 Beta=-0.5453250000,-0.2836780000 DDN=0,1,0.7474020000 DDN=1,1,0.7964360000
 CoreKO=1.1124280000 KON=0,0,0,1.1124280000 KON=1,0,1,0.8159680000 KON=0,1,1,1.1124280000
 KON=2,1,1,0.8516400000 EISol=-4.4398989268 EHeat=0.2723305520 Alpha=1.3653470000
 DipHyp=1.4947180026
 GCore=0.0007890000,1.3361580000,2.6678360000
 GCore=0.0031890000,1.4001430000,3.2045450000
 GCore=-0.0015090000,1.3827320000,3.8739390000
 GCore=-0.0001030000,1.2700780000,4.6088130000
 ****
 O       
 PQN=2,2 NValence=6 F0ss=0.6666250000 F0sp=0.5321300000 F0pp=0.4958710000 F2pp=0.2358080000
 G1sp=0.4343770000
 ZetaOverlap=2.7336680000,2.5240390000
 U=-3.5951870000,-1.8323600000
 Beta=-1.1573400000,-1.2481890000 DDN=0,1,0.4953610000 DDN=1,1,0.5211070000
 CoreKO=0.8515990000 KON=0,0,0,0.8822960000 KON=1,0,1,0.5019540000 KON=0,1,1,0.8671530000
 KON=2,1,1,0.5515580000 EISol=-11.6164441184 EHeat=0.0949133088 Alpha=2.4031680000
 DipHyp=0.9906650029
 GCore=0.0204720000,1.2640290000,1.6023330000
 GCore=0.0052790000,1.9602000000,2.5761670000
 ****
 
 Standard basis: VSTO-6G (5D, 7F)
 Ernie: Thresh=  0.10000D-02 Tol=  0.10000D-05 Strict=F.
  NNHCO=     0 NNPyr=     0 NCTC=     0               EPep=         0.000000000
    EC=        68.903427567  ECS=         2.038976971   EG=         0.386006212
   EHC=         0.000000000  EAt=       -31.051283842  AtH=         1.516354808
 EPDDG=         0.000000000  ECC=        71.328410751 EAtT=        32.567638650
 There are    24 symmetry adapted cartesian basis functions of A   symmetry.
 There are    24 symmetry adapted basis functions of A   symmetry.
    24 basis functions,   144 primitive gaussians,    24 cartesian basis functions
    13 alpha electrons       13 beta electrons
       nuclear repulsion energy       103.8960494010 Hartrees.
 IExCor=    0 DFT=F Ex=HF Corr=None ExCW=0 ScaHFX=  1.000000
 ScaDFX=  1.000000  1.000000  1.000000  1.000000 ScalE2=  1.000000  1.000000
 IRadAn=      0 IRanWt=     -1 IRanGd=            0 ICorTp=0 IEmpDi=  4
 Integral buffers will be    131072 words long.
 Regular integral format.
 Two-electron integral symmetry is turned off.
 Leave Link  301 at Tue Dec 15 17:07:43 2015, MaxMem=    33554432 cpu:         0.0
 (Enter /home/Applications/g09/g09/l302.exe)
 Do NDO integrals.
 NPDir=0 NMtPBC=     1 NCelOv=     1 NCel=       1 NClECP=     1 NCelD=      1
         NCelK=      1 NCelE2=     1 NClLst=     1 CellRange=     0.0.
 One-electron integrals computed using PRISM.
 NBasis=    24 RedAO= F EigKep=  0.00D+00  NBF=    24
 NBsUse=    24 1.00D-04 EigRej=  0.00D+00 NBFU=    24
 Leave Link  302 at Tue Dec 15 17:07:44 2015, MaxMem=    33554432 cpu:         0.0
 (Enter /home/Applications/g09/g09/l308.exe)
 Leave Link  308 at Tue Dec 15 17:07:44 2015, MaxMem=    33554432 cpu:         0.0
 (Enter /home/Applications/g09/g09/l303.exe)
 DipDrv:  MaxL=1.
 Leave Link  303 at Tue Dec 15 17:07:44 2015, MaxMem=    33554432 cpu:         0.0
 (Enter /home/Applications/g09/g09/l401.exe)
 Simple Huckel Guess.
 JPrj=0 DoOrth=F DoCkMO=F.
 Leave Link  401 at Tue Dec 15 17:07:44 2015, MaxMem=    33554432 cpu:         0.0
 (Enter /home/Applications/g09/g09/l502.exe)
 Closed shell SCF:
 Using DIIS extrapolation, IDIIS=  1040.
 Overlap will be assumed to be unity.
 Two-electron integral symmetry not used.
 Keep J ints in memory in canonical form, NReq=888082.
 IVT=       79475 IEndB=       79475 NGot=    33554432 MDV=    33473473
 LenX=    33473473 LenY=    33472456
 Requested convergence on RMS density matrix=1.00D-08 within 128 cycles.
 Requested convergence on MAX density matrix=1.00D-06.
 Requested convergence on             energy=1.00D-06.
 No special actions if energy rises.
 FoFCou: FMM=F IPFlag=           0 FMFlag=           0 FMFlg1=           0
         NFxFlg=           0 DoJE=F BraDBF=F KetDBF=F FulRan=T
         wScrn=  0.000000 ICntrl=     600 IOpCl=  2 I1Cent=           0 NGrid=           0
         NMat0=    1 NMatS0=     54 NMatT0=    0 NMatD0=    1 NMtDS0=    0 NMtDT0=    0
 Symmetry not used in FoFCou.

 Cycle   1  Pass 1  IDiag  1:
 E=  5.74833722868259    
 DIIS: error= 1.92D-01 at cycle   1 NSaved=   1.
 NSaved= 1 IEnMin= 1 EnMin=  5.74833722868259     IErMin= 1 ErrMin= 1.92D-01
 ErrMax= 1.92D-01  0.00D+00 EMaxC= 1.00D-01 BMatC= 6.76D-01 BMatP= 6.76D-01
 IDIUse=3 WtCom= 0.00D+00 WtEn= 1.00D+00
 Coeff-Com:  0.100D+01
 Coeff-En:   0.100D+01
 Coeff:      0.100D+01
 GapD=    2.000 DampG=2.000 DampE=0.250 DampFc=0.5000 IDamp=-1.
 Damping current iteration by 5.00D-01
 RMSDP=7.22D-02 MaxDP=7.74D-01              OVMax= 0.00D+00

 Cycle   2  Pass 1  IDiag  1:
 E=  4.33234957503134     Delta-E=       -1.415987653651 Rises=F Damp=T
 DIIS: error= 1.08D-01 at cycle   2 NSaved=   2.
 NSaved= 2 IEnMin= 2 EnMin=  4.33234957503134     IErMin= 2 ErrMin= 1.08D-01
 ErrMax= 1.08D-01  0.00D+00 EMaxC= 1.00D-01 BMatC= 2.15D-01 BMatP= 6.76D-01
 IDIUse=3 WtCom= 0.00D+00 WtEn= 1.00D+00
 Coeff-Com: -0.111D+01 0.211D+01
 Coeff-En:   0.000D+00 0.100D+01
 Coeff:      0.000D+00 0.100D+01
 RMSDP=3.89D-02 MaxDP=3.92D-01 DE=-1.42D+00 OVMax= 0.00D+00

 Cycle   3  Pass 1  IDiag  1:
 E=  2.67667322119438     Delta-E=       -1.655676353837 Rises=F Damp=F
 DIIS: error= 2.12D-02 at cycle   3 NSaved=   3.
 NSaved= 3 IEnMin= 3 EnMin=  2.67667322119438     IErMin= 3 ErrMin= 2.12D-02
 ErrMax= 2.12D-02  0.00D+00 EMaxC= 1.00D-01 BMatC= 1.53D-02 BMatP= 2.15D-01
 IDIUse=3 WtCom= 7.88D-01 WtEn= 2.12D-01
 Coeff-Com:  0.224D+00-0.538D+00 0.131D+01
 Coeff-En:   0.000D+00 0.000D+00 0.100D+01
 Coeff:      0.176D+00-0.424D+00 0.125D+01
 RMSDP=1.07D-02 MaxDP=5.74D-02 DE=-1.66D+00 OVMax= 0.00D+00

 Cycle   4  Pass 1  IDiag  1:
 E=  2.62241942899513     Delta-E=       -0.054253792199 Rises=F Damp=F
 DIIS: error= 5.59D-03 at cycle   4 NSaved=   4.
 NSaved= 4 IEnMin= 4 EnMin=  2.62241942899513     IErMin= 4 ErrMin= 5.59D-03
 ErrMax= 5.59D-03  0.00D+00 EMaxC= 1.00D-01 BMatC= 1.26D-03 BMatP= 1.53D-02
 IDIUse=3 WtCom= 9.44D-01 WtEn= 5.59D-02
 Coeff-Com: -0.186D-01 0.257D-01-0.321D+00 0.131D+01
 Coeff-En:   0.000D+00 0.000D+00 0.000D+00 0.100D+01
 Coeff:     -0.175D-01 0.243D-01-0.303D+00 0.130D+01
 RMSDP=4.07D-03 MaxDP=2.27D-02 DE=-5.43D-02 OVMax= 0.00D+00

 Cycle   5  Pass 1  IDiag  3:
 E=  2.61700857136880     Delta-E=       -0.005410857626 Rises=F Damp=F
 DIIS: error= 1.17D-03 at cycle   5 NSaved=   5.
 NSaved= 5 IEnMin= 5 EnMin=  2.61700857136880     IErMin= 5 ErrMin= 1.17D-03
 ErrMax= 1.17D-03  0.00D+00 EMaxC= 1.00D-01 BMatC= 4.90D-05 BMatP= 1.26D-03
 IDIUse=3 WtCom= 9.88D-01 WtEn= 1.17D-02
 Coeff-Com:  0.126D-01-0.206D-01 0.124D+00-0.583D+00 0.147D+01
 Coeff-En:   0.000D+00 0.000D+00 0.000D+00 0.000D+00 0.100D+01
 Coeff:      0.125D-01-0.204D-01 0.122D+00-0.576D+00 0.146D+01
 Gap=     0.388 Goal=   None    Shift=    0.000
 RMSDP=9.54D-04 MaxDP=5.14D-03 DE=-5.41D-03 OVMax= 1.05D-02

 Cycle   6  Pass 1  IDiag  3:
 E=  2.61676435691629     Delta-E=       -0.000244214453 Rises=F Damp=F
 DIIS: error= 1.83D-04 at cycle   6 NSaved=   6.
 NSaved= 6 IEnMin= 6 EnMin=  2.61676435691629     IErMin= 6 ErrMin= 1.83D-04
 ErrMax= 1.83D-04  0.00D+00 EMaxC= 1.00D-01 BMatC= 1.36D-06 BMatP= 4.90D-05
 IDIUse=3 WtCom= 9.98D-01 WtEn= 1.83D-03
 Coeff-Com: -0.209D-02 0.417D-02-0.334D-01 0.160D+00-0.502D+00 0.137D+01
 Coeff-En:   0.000D+00 0.000D+00 0.000D+00 0.000D+00 0.000D+00 0.100D+01
 Coeff:     -0.209D-02 0.416D-02-0.333D-01 0.159D+00-0.501D+00 0.137D+01
 Gap=     0.389 Goal=   None    Shift=    0.000
 RMSDP=1.52D-04 MaxDP=8.42D-04 DE=-2.44D-04 OVMax= 1.28D-03

 Cycle   7  Pass 1  IDiag  3:
 E=  2.61675793832541     Delta-E=       -0.000006418591 Rises=F Damp=F
 DIIS: error= 4.30D-05 at cycle   7 NSaved=   7.
 NSaved= 7 IEnMin= 7 EnMin=  2.61675793832541     IErMin= 7 ErrMin= 4.30D-05
 ErrMax= 4.30D-05  0.00D+00 EMaxC= 1.00D-01 BMatC= 4.96D-08 BMatP= 1.36D-06
 IDIUse=1 WtCom= 1.00D+00 WtEn= 0.00D+00
 Coeff-Com:  0.170D-03-0.470D-03 0.744D-02-0.388D-01 0.141D+00-0.535D+00
 Coeff-Com:  0.143D+01
 Coeff:      0.170D-03-0.470D-03 0.744D-02-0.388D-01 0.141D+00-0.535D+00
 Coeff:      0.143D+01
 Gap=     0.389 Goal=   None    Shift=    0.000
 RMSDP=2.83D-05 MaxDP=1.88D-04 DE=-6.42D-06 OVMax= 1.73D-04

 Cycle   8  Pass 1  IDiag  3:
 E=  2.61675771659172     Delta-E=       -0.000000221734 Rises=F Damp=F
 DIIS: error= 7.45D-06 at cycle   8 NSaved=   8.
 NSaved= 8 IEnMin= 8 EnMin=  2.61675771659172     IErMin= 8 ErrMin= 7.45D-06
 ErrMax= 7.45D-06  0.00D+00 EMaxC= 1.00D-01 BMatC= 1.22D-09 BMatP= 4.96D-08
 IDIUse=1 WtCom= 1.00D+00 WtEn= 0.00D+00
 Coeff-Com: -0.234D-05 0.189D-04-0.926D-03 0.616D-02-0.284D-01 0.136D+00
 Coeff-Com: -0.468D+00 0.136D+01
 Coeff:     -0.234D-05 0.189D-04-0.926D-03 0.616D-02-0.284D-01 0.136D+00
 Coeff:     -0.468D+00 0.136D+01
 Gap=     0.389 Goal=   None    Shift=    0.000
 RMSDP=4.21D-06 MaxDP=3.01D-05 DE=-2.22D-07 OVMax= 3.30D-05

 Cycle   9  Pass 1  IDiag  3:
 E=  2.61675771147898     Delta-E=       -0.000000005113 Rises=F Damp=F
 DIIS: error= 1.04D-06 at cycle   9 NSaved=   9.
 NSaved= 9 IEnMin= 9 EnMin=  2.61675771147898     IErMin= 9 ErrMin= 1.04D-06
 ErrMax= 1.04D-06  0.00D+00 EMaxC= 1.00D-01 BMatC= 3.09D-11 BMatP= 1.22D-09
 IDIUse=1 WtCom= 1.00D+00 WtEn= 0.00D+00
 Coeff-Com:  0.161D-05-0.173D-05-0.588D-05-0.421D-03 0.393D-02-0.258D-01
 Coeff-Com:  0.102D+00-0.401D+00 0.132D+01
 Coeff:      0.161D-05-0.173D-05-0.588D-05-0.421D-03 0.393D-02-0.258D-01
 Coeff:      0.102D+00-0.401D+00 0.132D+01
 Gap=     0.389 Goal=   None    Shift=    0.000
 RMSDP=6.91D-07 MaxDP=4.88D-06 DE=-5.11D-09 OVMax= 4.67D-06

 Cycle  10  Pass 1  IDiag  3:
 E=  2.61675771134053     Delta-E=       -0.000000000138 Rises=F Damp=F
 DIIS: error= 1.52D-07 at cycle  10 NSaved=  10.
 NSaved=10 IEnMin=10 EnMin=  2.61675771134053     IErMin=10 ErrMin= 1.52D-07
 ErrMax= 1.52D-07  0.00D+00 EMaxC= 1.00D-01 BMatC= 1.18D-12 BMatP= 3.09D-11
 IDIUse=1 WtCom= 1.00D+00 WtEn= 0.00D+00
 Coeff-Com: -0.382D-06 0.448D-06-0.850D-05 0.234D-03-0.185D-02 0.116D-01
 Coeff-Com: -0.446D-01 0.173D+00-0.628D+00 0.149D+01
 Coeff:     -0.382D-06 0.448D-06-0.850D-05 0.234D-03-0.185D-02 0.116D-01
 Coeff:     -0.446D-01 0.173D+00-0.628D+00 0.149D+01
 Gap=     0.389 Goal=   None    Shift=    0.000
 RMSDP=1.69D-07 MaxDP=1.24D-06 DE=-1.38D-10 OVMax= 1.54D-06

 Cycle  11  Pass 1  IDiag  3:
 E=  2.61675771133314     Delta-E=       -0.000000000007 Rises=F Damp=F
 DIIS: error= 4.95D-08 at cycle  11 NSaved=  11.
 NSaved=11 IEnMin=11 EnMin=  2.61675771133314     IErMin=11 ErrMin= 4.95D-08
 ErrMax= 4.95D-08  0.00D+00 EMaxC= 1.00D-01 BMatC= 7.34D-14 BMatP= 1.18D-12
 IDIUse=1 WtCom= 1.00D+00 WtEn= 0.00D+00
 Coeff-Com: -0.157D-06 0.335D-06 0.406D-05-0.898D-04 0.677D-03-0.421D-02
 Coeff-Com:  0.163D-01-0.642D-01 0.238D+00-0.718D+00 0.153D+01
 Coeff:     -0.157D-06 0.335D-06 0.406D-05-0.898D-04 0.677D-03-0.421D-02
 Coeff:      0.163D-01-0.642D-01 0.238D+00-0.718D+00 0.153D+01
 Gap=     0.389 Goal=   None    Shift=    0.000
 RMSDP=5.08D-08 MaxDP=3.86D-07 DE=-7.39D-12 OVMax= 4.79D-07

 Cycle  12  Pass 1  IDiag  3:
 E=  2.61675771133309     Delta-E=        0.000000000000 Rises=F Damp=F
 DIIS: error= 9.29D-09 at cycle  12 NSaved=  12.
 NSaved=12 IEnMin=12 EnMin=  2.61675771133309     IErMin=12 ErrMin= 9.29D-09
 ErrMax= 9.29D-09  0.00D+00 EMaxC= 1.00D-01 BMatC= 3.10D-15 BMatP= 7.34D-14
 IDIUse=1 WtCom= 1.00D+00 WtEn= 0.00D+00
 Coeff-Com:  0.609D-07-0.118D-06-0.116D-05 0.203D-04-0.145D-03 0.893D-03
 Coeff-Com: -0.348D-02 0.140D-01-0.518D-01 0.174D+00-0.540D+00 0.141D+01
 Coeff:      0.609D-07-0.118D-06-0.116D-05 0.203D-04-0.145D-03 0.893D-03
 Coeff:     -0.348D-02 0.140D-01-0.518D-01 0.174D+00-0.540D+00 0.141D+01
 Gap=     0.389 Goal=   None    Shift=    0.000
 RMSDP=9.68D-09 MaxDP=6.80D-08 DE=-4.26D-14 OVMax= 7.89D-08

 Cycle  13  Pass 2  IDiag  1:
 SCF Done:  E(RAM1) =   2.61675771133     A.U. after   13 cycles
            NFock= 12  Conv=0.97D-08     -V/T= 1.1826
 KE=-1.432784120979D+01 PE=-1.696766518433D+02 EE= 8.272520136351D+01
 Leave Link  502 at Tue Dec 15 17:07:44 2015, MaxMem=    33554432 cpu:         0.0
 (Enter /home/Applications/g09/g09/l801.exe)
 Range of M.O.s used for correlation:     1    24
 NBasis=    24 NAE=    13 NBE=    13 NFC=     0 NFV=     0
 NROrb=     24 NOA=    13 NOB=    13 NVA=    11 NVB=    11
 Leave Link  801 at Tue Dec 15 17:07:44 2015, MaxMem=    33554432 cpu:         0.0
 (Enter /home/Applications/g09/g09/l914.exe)
 RHF ground state
 MDV=    33554432 DFT=F DoStab=F Mixed=F DoRPA=F DoScal=F NonHer=F
 Making orbital integer symmetry assigments:
 Orbital symmetries:
       Occupied  (A) (A) (A) (A) (A) (A) (A) (A) (A) (A) (A) (A)
                 (A)
       Virtual   (A) (A) (A) (A) (A) (A) (A) (A) (A) (A) (A)
    60 initial guesses have been made.
 Convergence on wavefunction:    0.000001000000000
 Davidson Disk Diagonalization:  ConvIn= 1.00D-06 SkipCon=T Conv= 1.00D-06.
 Max sub-space:   240 roots to seek:    60 dimension of matrix:          286
 Iteration     1 Dimension    60 NMult     0 NNew     60
 CISAX will form    60 AO SS matrices at one time.
 NMat=    60 NSing=    60 JSym2X= 0.
 FoFJK:  IHMeth= 8 ICntrl=       0 DoSepK=F KAlg= 0 I1Cent=   0 FoldK=F
 IRaf=         1 NMat= 120 IRICut=       1 DoRegI=T DoRafI=F ISym2E= 0.
 FoFCou: FMM=F IPFlag=           0 FMFlag=      100000 FMFlg1=           0
         NFxFlg=           0 DoJE=F BraDBF=F KetDBF=F FulRan=T
         wScrn=  0.000000 ICntrl=       0 IOpCl=  0 I1Cent=           0 NGrid=           0
         NMat0=  120 NMatS0=     60 NMatT0=    0 NMatD0=  120 NMtDS0=    0 NMtDT0=    0
 Symmetry not used in FoFCou.
 New state      6 was old state      7
 New state      7 was old state      6
 New state      8 was old state      9
 New state      9 was old state      8
 New state     10 was old state     12
 New state     11 was old state     10
 New state     12 was old state     11
 New state     13 was old state     14
 New state     14 was old state     13
 Excitation Energies [eV] at current iteration:
 Root      1 :     5.161881146725601
 Root      2 :     5.754712705863315
 Root      3 :     6.431863183964256
 Root      4 :     6.546373420241282
 Root      5 :     7.462119298442961
 Root      6 :     7.706435333591874
 Root      7 :     8.543105900301704
 Root      8 :     8.859532035928858
 Root      9 :     9.073174138930044
 Root     10 :     9.349819490007516
 Root     11 :     9.584003347207281
 Root     12 :     9.627814383393025
 Root     13 :     9.973722466314570
 Root     14 :    10.200449578387450
 Root     15 :    10.319169915840770
 Root     16 :    10.634646195797450
 Root     17 :    10.736501649373180
 Root     18 :    10.826315728353140
 Root     19 :    11.099852913663320
 Root     20 :    11.478468776684660
 Root     21 :    11.649652102767620
 Root     22 :    12.028122170375640
 Root     23 :    12.148136053976830
 Root     24 :    12.170585050788990
 Root     25 :    12.718909863275570
 Root     26 :    12.822768380223140
 Root     27 :    12.976518286361380
 Root     28 :    13.126739227629400
 Root     29 :    13.454627757497190
 Root     30 :    13.538345136158260
 Root     31 :    13.667891999106810
 Root     32 :    13.698855944353160
 Root     33 :    13.999290182993890
 Root     34 :    14.128416122291570
 Root     35 :    14.419930667866350
 Root     36 :    14.604003093684720
 Root     37 :    14.723176348332530
 Root     38 :    14.949840896201930
 Root     39 :    15.285502978264430
 Root     40 :    15.313212807701550
 Root     41 :    15.539024560660620
 Root     42 :    15.564783199855360
 Root     43 :    15.758326910404170
 Root     44 :    16.039394981970570
 Root     45 :    16.223865711738820
 Root     46 :    16.324084926722150
 Root     47 :    16.433276804565890
 Root     48 :    16.510770570472510
 Root     49 :    16.624992019791840
 Root     50 :    16.638452886097230
 Root     51 :    16.818246078279760
 Root     52 :    16.824710643187320
 Root     53 :    17.352092707717830
 Root     54 :    17.446118586015290
 Root     55 :    17.886509454839930
 Root     56 :    18.001882742397430
 Root     57 :    18.104347506399010
 Root     58 :    18.426382953140390
 Root     59 :    18.516772548895330
 Root     60 :    18.712445175146320
 Iteration     2 Dimension   120 NMult    60 NNew     60
 CISAX will form    60 AO SS matrices at one time.
 NMat=    60 NSing=    60 JSym2X= 0.
 Root      1 not converged, maximum delta is    0.021595461771151
 Root      2 not converged, maximum delta is    0.018695732198991
 Root      3 not converged, maximum delta is    0.028728943408815
 Root      4 not converged, maximum delta is    0.022272090750144
 Root      5 not converged, maximum delta is    0.019313775140170
 Root      6 not converged, maximum delta is    0.008574592415668
 Root      7 not converged, maximum delta is    0.011092913981683
 Root      8 not converged, maximum delta is    0.033035364045322
 Root      9 not converged, maximum delta is    0.049318117316612
 Root     10 not converged, maximum delta is    0.026371567530822
 Root     11 not converged, maximum delta is    0.094395806391246
 Root     12 not converged, maximum delta is    0.029548792927696
 Root     13 not converged, maximum delta is    0.097827929433449
 Root     14 not converged, maximum delta is    0.080498972588277
 Root     15 not converged, maximum delta is    0.050796916784094
 Excitation Energies [eV] at current iteration:
 Root      1 :     5.085114637871034   Change is   -0.076766508854567
 Root      2 :     5.736026366592635   Change is   -0.018686339270680
 Root      3 :     6.393695626023666   Change is   -0.038167557940591
 Root      4 :     6.528604176654782   Change is   -0.017769243586499
 Root      5 :     7.449043639381806   Change is   -0.013075659061155
 Root      6 :     7.703907585384869   Change is   -0.002527748207006
 Root      7 :     8.527554223266126   Change is   -0.015551677035578
 Root      8 :     8.836777980460203   Change is   -0.022754055468653
 Root      9 :     8.953304556771760   Change is   -0.119869582158283
 Root     10 :     9.328945718086050   Change is   -0.020873771921466
 Root     11 :     9.429130977885213   Change is   -0.154872369322068
 Root     12 :     9.605957010288142   Change is   -0.021857373104883
 Root     13 :     9.854180440799206   Change is   -0.119542025515363
 Root     14 :    10.043151831891990   Change is   -0.157297746495455
 Root     15 :    10.279142706923840   Change is   -0.040027208916929
 Root     16 :    10.471785012945160   Change is   -0.162861182852289
 Root     17 :    10.697835191102020   Change is   -0.038666458271152
 Root     18 :    10.802444642045320   Change is   -0.023871086307827
 Root     19 :    10.850573550819390   Change is   -0.249279362843927
 Root     20 :    11.459364495079150   Change is   -0.019104281605518
 Root     21 :    11.503030781202700   Change is   -0.146621321564913
 Root     22 :    11.903853241224140   Change is   -0.266731809564846
 Root     23 :    11.980063820522270   Change is   -0.048058349853374
 Root     24 :    11.990691276459280   Change is   -0.157444777517557
 Root     25 :    12.471500379578340   Change is   -0.247409483697232
 Root     26 :    12.776821308524080   Change is   -0.045947071699059
 Root     27 :    12.808688944034740   Change is   -0.167829342326638
 Root     28 :    12.973486898762500   Change is   -0.153252328866895
 Root     29 :    13.346887198216290   Change is   -0.191457937941966
 Root     30 :    13.370004398281190   Change is   -0.084623359215992
 Root     31 :    13.493485880429350   Change is   -0.174406118677454
 Root     32 :    13.567295284143350   Change is   -0.131560660209807
 Root     33 :    13.757130047104870   Change is   -0.242160135889026
 Root     34 :    13.913719683295970   Change is   -0.214696438995599
 Root     35 :    14.340686995023710   Change is   -0.079243672842643
 Root     36 :    14.597368697591500   Change is   -0.006634396093220
 Root     37 :    14.611610878205160   Change is   -0.111565470127362
 Root     38 :    14.678649545905790   Change is   -0.271191350296141
 Root     39 :    14.949411254177110   Change is   -0.336091724087316
 Root     40 :    15.150230706420680   Change is   -0.162982101280866
 Root     41 :    15.245058029322460   Change is   -0.293966531338160
 Root     42 :    15.433448459215220   Change is   -0.324878451188950
 Root     43 :    15.453480313743390   Change is   -0.111302886111974
 Root     44 :    15.738765518980000   Change is   -0.300629462990571
 Root     45 :    16.085195478216340   Change is   -0.138670233522481
 Root     46 :    16.121746384405610   Change is   -0.202338542316538
 Root     47 :    16.180185716053870   Change is   -0.330584854418642
 Root     48 :    16.311056718582400   Change is   -0.327396167514826
 Root     49 :    16.326119945807950   Change is   -0.107156858757945
 Root     50 :    16.543519596830960   Change is   -0.281191046356358
 Root     51 :    16.613743542136120   Change is   -0.011248477655728
 Root     52 :    16.673904654882580   Change is   -0.144341423397171
 Root     53 :    16.988367068667370   Change is   -0.363725639050457
 Root     54 :    17.297222227953320   Change is   -0.148896358061975
 Root     55 :    17.580902608091080   Change is   -0.420980134306351
 Root     56 :    17.787708165727000   Change is   -0.098801289112924
 Root     57 :    17.911946073455110   Change is   -0.192401432943907
 Root     58 :    18.026759414995790   Change is   -0.685685760150536
 Root     59 :    18.159412611629050   Change is   -0.266970341511341
 Root     60 :    18.205680628461590   Change is   -0.311091920433737
 Iteration     3 Dimension   135 NMult   120 NNew     15
 CISAX will form    15 AO SS matrices at one time.
 NMat=    15 NSing=    15 JSym2X= 0.
 Root      1 not converged, maximum delta is    0.000759783830787
 Root      2 not converged, maximum delta is    0.000014173670487
 Root      3 not converged, maximum delta is    0.000027057107567
 Root      4 not converged, maximum delta is    0.000048711984635
 Root      5 not converged, maximum delta is    0.000022474955876
 Root      6 not converged, maximum delta is    0.000021418945127
 Root      7 not converged, maximum delta is    0.000570469893423
 Root      8 not converged, maximum delta is    0.000379441446863
 Root      9 not converged, maximum delta is    0.002030498622894
 Root     10 not converged, maximum delta is    0.000146300463604
 Root     11 not converged, maximum delta is    0.001333738892377
 Root     12 not converged, maximum delta is    0.000114861341777
 Root     13 not converged, maximum delta is    0.001363034777471
 Root     14 not converged, maximum delta is    0.001888517361400
 Root     15 not converged, maximum delta is    0.000347578006032
 Excitation Energies [eV] at current iteration:
 Root      1 :     5.084936407159871   Change is   -0.000178230711163
 Root      2 :     5.736026268306705   Change is   -0.000000098285930
 Root      3 :     6.393695438769083   Change is   -0.000000187254583
 Root      4 :     6.528603877396923   Change is   -0.000000299257859
 Root      5 :     7.449043466369776   Change is   -0.000000173012030
 Root      6 :     7.703907509109697   Change is   -0.000000076275172
 Root      7 :     8.527503695674756   Change is   -0.000050527591368
 Root      8 :     8.836765305454527   Change is   -0.000012675005677
 Root      9 :     8.952707051805495   Change is   -0.000597504966266
 Root     10 :     9.328941293823403   Change is   -0.000004424262647
 Root     11 :     9.428624719843068   Change is   -0.000506258042146
 Root     12 :     9.605953355019665   Change is   -0.000003655268476
 Root     13 :     9.853872615022039   Change is   -0.000307825777167
 Root     14 :    10.042440746693750   Change is   -0.000711085198238
 Root     15 :    10.279120679606260   Change is   -0.000022027317573
 Iteration     4 Dimension   143 NMult   135 NNew      8
 CISAX will form     8 AO SS matrices at one time.
 NMat=     8 NSing=     8 JSym2X= 0.
 Root      1 not converged, maximum delta is    0.000038603787607
 Root      2 has converged.
 Root      3 not converged, maximum delta is    0.000001052723692
 Root      4 not converged, maximum delta is    0.000001387339600
 Root      5 not converged, maximum delta is    0.000001590286594
 Root      6 has converged.
 Root      7 not converged, maximum delta is    0.000018714838254
 Root      8 not converged, maximum delta is    0.000008819885585
 Root      9 not converged, maximum delta is    0.000062545735224
 Root     10 not converged, maximum delta is    0.000003495560195
 Root     11 not converged, maximum delta is    0.000065970467023
 Root     12 not converged, maximum delta is    0.000005581135576
 Root     13 not converged, maximum delta is    0.000067647284750
 Root     14 not converged, maximum delta is    0.000093802259128
 Root     15 not converged, maximum delta is    0.000013222082929
 Excitation Energies [eV] at current iteration:
 Root      1 :     5.084935898538504   Change is   -0.000000508621367
 Root      2 :     5.736026268251758   Change is   -0.000000000054947
 Root      3 :     6.393695438468517   Change is   -0.000000000300566
 Root      4 :     6.528603876811494   Change is   -0.000000000585429
 Root      5 :     7.449043465823923   Change is   -0.000000000545853
 Root      6 :     7.703907508891430   Change is   -0.000000000218266
 Root      7 :     8.527503562803377   Change is   -0.000000132871381
 Root      8 :     8.836765279824297   Change is   -0.000000025630230
 Root      9 :     8.952705988496589   Change is   -0.000001063308906
 Root     10 :     9.328941289630972   Change is   -0.000000004192430
 Root     11 :     9.428623414563527   Change is   -0.000001305279541
 Root     12 :     9.605953347980957   Change is   -0.000000007038708
 Root     13 :     9.853871825294190   Change is   -0.000000789727850
 Root     14 :    10.042438919474350   Change is   -0.000001827219400
 Root     15 :    10.279120640811080   Change is   -0.000000038795185
 Convergence achieved on expansion vectors.
 ***********************************************************************
 Excited states from <AA,BB:AA,BB> singles matrix:
 ***********************************************************************
 
 1PDM for each excited state written to RWF  633
 Ground to excited state transition densities written to RWF  633
 Ground to excited state transition electric dipole moments (Au):
       state          X           Y           Z        Dip. S.      Osc.
         1         1.3805      0.9712     -0.0294      2.8499      0.3550
         2        -0.0010     -0.0168      0.0236      0.0008      0.0001
         3        -0.0061     -0.0041      0.1108      0.0123      0.0019
         4         0.0060     -0.0257     -0.0014      0.0007      0.0001
         5        -0.0142     -0.0248      0.1685      0.0292      0.0053
         6        -0.0040     -0.0093     -0.0138      0.0003      0.0001
         7         0.3360     -0.6234     -0.0107      0.5016      0.1048
         8        -0.1388     -0.0415     -0.1763      0.0521      0.0113
         9        -0.7949     -0.2183      0.0110      0.6796      0.1491
        10        -0.0205      0.0049      0.0319      0.0015      0.0003
        11         0.5772      0.1111      0.0072      0.3456      0.0798
        12         0.0623      0.0350     -0.0694      0.0099      0.0023
        13         0.6770      0.4816      0.0043      0.6904      0.1667
        14        -0.1634      0.2213      0.0028      0.0757      0.0186
        15        -0.0570     -0.0887      0.0834      0.0181      0.0045
 Ground to excited state transition velocity dipole moments (Au):
       state          X           Y           Z        Dip. S.      Osc.
         1        -0.1642     -0.1156      0.0021      0.0403      0.1438
         2         0.0046      0.0009     -0.0818      0.0067      0.0212
         3         0.0021      0.0030     -0.1703      0.0290      0.0823
         4        -0.0010      0.0077     -0.0043      0.0001      0.0002
         5         0.0024      0.0039     -0.0210      0.0005      0.0011
         6         0.0023      0.0001      0.0197      0.0004      0.0009
         7        -0.1342      0.2097     -0.0013      0.0620      0.1318
         8         0.0303      0.0086     -0.0048      0.0010      0.0021
         9         0.1479      0.0542     -0.0118      0.0250      0.0506
        10        -0.0030     -0.0018      0.0230      0.0005      0.0011
        11        -0.0415     -0.0188      0.0061      0.0021      0.0041
        12        -0.0056     -0.0129     -0.1341      0.0182      0.0343
        13        -0.1086     -0.0684      0.0131      0.0166      0.0306
        14         0.0525     -0.0559      0.0267      0.0066      0.0119
        15         0.0080      0.0128      0.1084      0.0120      0.0211
 Ground to excited state transition magnetic dipole moments (Au):
       state          X           Y           Z
         1         0.0031      0.0037      0.5955
         2        -0.2041      0.2095     -0.0098
         3        -0.1073     -0.2018     -0.0030
         4         0.5450     -0.7247     -0.0136
         5        -0.6722     -0.5805     -0.0098
         6        -0.3745      0.5635     -0.0042
         7        -0.0104      0.0647     -0.0206
         8         0.4213      0.3261     -0.0485
         9        -0.0675     -0.0481     -0.1932
        10        -0.3855      0.0963      0.0121
        11        -0.0101     -0.0004      0.0092
        12        -0.1313      0.2840     -0.0048
        13         0.0024      0.0241      0.1861
        14        -0.0073      0.0194      0.0014
        15        -0.2007      0.2010     -0.0251
 Ground to excited state transition velocity quadrupole moments (Au):
       state          XX          YY          ZZ          XY          XZ          YZ
         1         0.2778     -0.2695     -0.0002     -0.0990     -0.0109      0.0065
         2         0.0092      0.0048     -0.0060      0.0078     -0.1516     -0.1602
         3         0.0004     -0.0037      0.0034     -0.0059      0.1270     -0.0413
         4        -0.0038      0.0131      0.0056     -0.0050     -0.1835     -0.1505
         5        -0.0056     -0.0024      0.0006     -0.0009     -0.0583      0.1085
         6        -0.0104      0.0016      0.0071     -0.0002     -0.4468     -0.2537
         7        -0.0031      0.1154     -0.0059     -0.2442     -0.0055      0.0013
         8         0.0101      0.0328      0.0065      0.0232     -0.1329      0.2797
         9         0.0547      0.1869      0.0551      0.1245      0.0078     -0.0419
        10         0.0489      0.0476      0.0029      0.0165      0.0248     -0.1620
        11        -0.0182     -0.3439     -0.0740     -0.1741      0.0162     -0.0082
        12         0.0439     -0.0159     -0.0089     -0.0084     -0.2912     -0.0249
        13         0.4544      0.0362      0.1021      0.0276     -0.0288     -0.0206
        14         0.5514      0.2071      0.0757      0.1533     -0.0033     -0.0271
        15        -0.1461     -0.0190     -0.0348     -0.0173     -0.1811     -0.2748
 <0|del|b> * <b|rxdel|0> + <0|del|b> * <b|delr+rdel|0>
 Rotatory Strengths (R) in cgs (10**-40 erg-esu-cm/Gauss)
       state          XX          YY          ZZ    R(velocity)    E-M Angle
         1        -1.2438     -0.2732      2.6485      0.3772       89.86
         2         0.8426     -0.3907     -0.2487      0.0677       90.00
         3         0.7758     -1.2183     -0.5487     -0.3304       90.48
         4        -6.0568     -0.5108    -11.3606     -5.9761      138.77
         5        -2.3707     -1.5333     -5.7109     -3.2050      101.22
         6        -0.0159     -1.9277     -0.3411     -0.7615       93.91
         7        16.9957      1.0483     15.7718     11.2720       28.78
         8         4.4364     23.5267      6.4870     11.4834       21.99
         9        -2.3819    -13.3820     -6.4164     -7.3934      108.11
        10         0.5482      1.5789      0.4632      0.8634       82.21
        11        -0.7030      1.9100     -0.2205      0.3288       39.76
        12        -5.6587      0.3842      0.6927     -1.5273       93.11
        13        -0.8025      3.9510     -2.1240      0.3415       88.76
        14         2.7423     -5.6134      0.1359     -0.9118      147.80
        15         0.2958     -4.3458      0.7933     -1.0856       93.20
 1/2[<0|r|b>*<b|rxdel|0> + (<0|rxdel|b>*<b|r|0>)*]
 Rotatory Strengths (R) in cgs (10**-40 erg-esu-cm/Gauss)
       state          XX          YY          ZZ     R(length)
         1        -3.0239     -2.5169     12.3778      2.2790
         2        -0.1505      2.4849      0.1643      0.8329
         3        -0.4632     -0.5827      0.2335     -0.2708
         4        -2.3238    -13.1620     -0.0138     -5.1665
         5        -6.7549    -10.1704      1.1636     -5.2539
         6        -1.0540      3.7210     -0.0413      0.8752
         7         2.4649     28.5253     -0.1555     10.2782
         8        41.3477      9.5644     -6.0524     14.9532
         9       -37.9419     -7.4200      1.5037    -14.6194
        10        -5.5812     -0.3359     -0.2733     -2.0635
        11         4.1182      0.0347     -0.0467      1.3687
        12         5.7840     -7.0268     -0.2336     -0.4922
        13        -1.1596     -8.1924     -0.5688     -3.3069
        14        -0.8385     -3.0390     -0.0028     -1.2934
        15        -8.0828     12.6055      1.4793      2.0007
  1/2[<0|del|b>*<b|r|0> + (<0|r|b>*<b|del|0>)*] (Au)
       state          X           Y           Z        Dip. S.   Osc.(frdel)
         1        -0.2267     -0.1122     -0.0001      0.3390      0.2260
         2         0.0000      0.0000     -0.0019      0.0020      0.0013
         3         0.0000      0.0000     -0.0189      0.0189      0.0126
         4         0.0000     -0.0002      0.0000      0.0002      0.0001
         5         0.0000     -0.0001     -0.0035      0.0037      0.0025
         6         0.0000      0.0000     -0.0003      0.0003      0.0002
         7        -0.0451     -0.1307      0.0000      0.1758      0.1172
         8        -0.0042     -0.0004      0.0008      0.0037      0.0025
         9        -0.1176     -0.0118     -0.0001      0.1295      0.0864
        10         0.0001      0.0000      0.0007     -0.0008     -0.0005
        11        -0.0240     -0.0021      0.0000      0.0260      0.0173
        12        -0.0004     -0.0005      0.0093     -0.0085     -0.0057
        13        -0.0735     -0.0329      0.0001      0.1064      0.0709
        14        -0.0086     -0.0124      0.0001      0.0209      0.0139
        15        -0.0005     -0.0011      0.0090     -0.0074     -0.0050

 Excitation energies and oscillator strengths:
 
 Excited State   1:      Singlet-A      5.0849 eV  243.83 nm  f=0.3550  <S**2>=0.000
      13 -> 14         0.69937
 This state for optimization and/or second-order correction.
 Total Energy, E(CIS) =   2.80362567529    
 Copying the excited state density for this state as the 1-particle RhoCI density.
 
 Excited State   2:      Singlet-A      5.7360 eV  216.15 nm  f=0.0001  <S**2>=0.000
      10 -> 15         0.10086
      13 -> 15         0.67160
      13 -> 17        -0.10509
 
 Excited State   3:      Singlet-A      6.3937 eV  193.92 nm  f=0.0019  <S**2>=0.000
      13 -> 16         0.66971
 
 Excited State   4:      Singlet-A      6.5286 eV  189.91 nm  f=0.0001  <S**2>=0.000
      12 -> 14         0.69995
 
 Excited State   5:      Singlet-A      7.4490 eV  166.44 nm  f=0.0053  <S**2>=0.000
      10 -> 14        -0.12548
      11 -> 14         0.68718
 
 Excited State   6:      Singlet-A      7.7039 eV  160.94 nm  f=0.0001  <S**2>=0.000
      13 -> 17         0.67050
      13 -> 21        -0.11921
 
 Excited State   7:      Singlet-A      8.5275 eV  145.39 nm  f=0.1048  <S**2>=0.000
      10 -> 14         0.67687
      11 -> 14         0.12309
 
 Excited State   8:      Singlet-A      8.8368 eV  140.30 nm  f=0.0113  <S**2>=0.000
      10 -> 15         0.25415
      12 -> 15         0.11324
      13 -> 18         0.61468
      13 -> 19         0.12731
 
 Excited State   9:      Singlet-A      8.9527 eV  138.49 nm  f=0.1491  <S**2>=0.000
       9 -> 15         0.12784
       9 -> 16         0.10343
      11 -> 18        -0.10307
      12 -> 15         0.55856
      12 -> 16        -0.20677
      12 -> 17        -0.21592
      13 -> 18        -0.11576
 
 Excited State  10:      Singlet-A      9.3289 eV  132.90 nm  f=0.0003  <S**2>=0.000
      10 -> 16         0.25564
      13 -> 17        -0.10161
      13 -> 19         0.62014
 
 Excited State  11:      Singlet-A      9.4286 eV  131.50 nm  f=0.0798  <S**2>=0.000
       8 -> 15        -0.12131
      11 -> 15         0.39895
      11 -> 16         0.16153
      11 -> 18        -0.20468
      12 -> 15        -0.27278
      12 -> 16        -0.23274
      12 -> 17        -0.26165
      12 -> 18         0.12718
 
 Excited State  12:      Singlet-A      9.6060 eV  129.07 nm  f=0.0023  <S**2>=0.000
       7 -> 15        -0.12969
      10 -> 15         0.59382
      11 -> 15         0.15972
      13 -> 15        -0.15337
      13 -> 18        -0.23888
 
 Excited State  13:      Singlet-A      9.8539 eV  125.82 nm  f=0.1667  <S**2>=0.000
      11 -> 15        -0.11470
      11 -> 16         0.37908
      11 -> 18        -0.11592
      11 -> 19         0.13707
      12 -> 16         0.44538
      12 -> 17        -0.26326
 
 Excited State  14:      Singlet-A     10.0424 eV  123.46 nm  f=0.0186  <S**2>=0.000
       8 -> 15        -0.18014
       8 -> 16        -0.11311
       9 -> 15         0.25967
       9 -> 16        -0.10273
      10 -> 15        -0.11910
      11 -> 15         0.34198
      11 -> 17         0.14695
      11 -> 19        -0.15228
      12 -> 15         0.11892
      12 -> 16         0.31457
      12 -> 17         0.15357
      12 -> 18         0.10859
 
 Excited State  15:      Singlet-A     10.2791 eV  120.62 nm  f=0.0045  <S**2>=0.000
       7 -> 16         0.11162
      10 -> 16         0.60029
      13 -> 16         0.14314
      13 -> 18         0.13900
      13 -> 19        -0.22845
 SavETr:  write IOETrn=   770 NScale= 10 NData=  16 NLR=1 NState=   15 LETran=     280.
 The selected state is a singlet
 CISAX will form     1 AO SS matrices at one time.
 NMat=     1 NSing=     1 JSym2X= 0.
 Leave Link  914 at Tue Dec 15 17:07:44 2015, MaxMem=    33554432 cpu:         0.1
 (Enter /home/Applications/g09/g09/l1002.exe)
 Minotr:  Closed shell wavefunction.
          Computing CIS/TD-HF/TD-KS derivatives.
          Using Z-Vector for PSCF gradient.
          Skipping F1 and S1 gradient terms here.
          IDoAtm=111111111
          Direct CPHF calculation.
          Differentiating once with respect to electric field.
                with respect to dipole field.
          Differentiating once with respect to nuclear coordinates.
          Electric field/nuclear overlap derivatives assumed to be zero.
          Requested convergence is 1.0D-10 RMS, and 1.0D-09 maximum.
          NewPWx=T KeepS1=F KeepF1=F KeepIn=T MapXYZ=F SortEE=F KeepMc=T.
          MDV=      33495423 using IRadAn=       0.
 Keep J ints in memory in canonical form, NReq=871704.
 FoFCou: FMM=F IPFlag=           0 FMFlag=           0 FMFlg1=           0
         NFxFlg=           0 DoJE=F BraDBF=F KetDBF=F FulRan=T
         wScrn=  0.000000 ICntrl=     600 IOpCl=  2 I1Cent=           0 NGrid=           0
         NMat0=    1 NMatS0=     54 NMatT0=    0 NMatD0=    1 NMtDS0=    0 NMtDT0=    0
 Symmetry not used in FoFCou.
          Solving linear equations separately, MaxMat=       0.
          There are     1 degrees of freedom in the 1st order CPHF.  IDoFFX=0 NUNeed=     1.
 LinEq1:  Iter=  0 NonCon=     1 RMS=6.61D-03 Max=5.37D-02 NDo=     1
 AX will form     1 AO Fock derivatives at one time.
 LinEq1:  Iter=  1 NonCon=     1 RMS=5.64D-04 Max=2.34D-03 NDo=     1
 LinEq1:  Iter=  2 NonCon=     1 RMS=5.82D-05 Max=3.49D-04 NDo=     1
 LinEq1:  Iter=  3 NonCon=     1 RMS=5.74D-06 Max=2.56D-05 NDo=     1
 LinEq1:  Iter=  4 NonCon=     1 RMS=1.15D-06 Max=9.00D-06 NDo=     1
 LinEq1:  Iter=  5 NonCon=     1 RMS=1.30D-07 Max=6.29D-07 NDo=     1
 LinEq1:  Iter=  6 NonCon=     1 RMS=1.68D-08 Max=6.00D-08 NDo=     1
 LinEq1:  Iter=  7 NonCon=     1 RMS=2.18D-09 Max=9.29D-09 NDo=     1
 LinEq1:  Iter=  8 NonCon=     1 RMS=2.50D-10 Max=8.82D-10 NDo=     1
 LinEq1:  Iter=  9 NonCon=     0 RMS=2.56D-11 Max=9.31D-11 NDo=     1
 Linear equations converged to 1.000D-10 1.000D-09 after     9 iterations.
 End of Minotr F.D. properties file   721 does not exist.
 End of Minotr F.D. properties file   722 does not exist.
 End of Minotr F.D. properties file   788 does not exist.
 Leave Link 1002 at Tue Dec 15 17:07:44 2015, MaxMem=    33554432 cpu:         0.0
 (Enter /home/Applications/g09/g09/l601.exe)
 Copying SCF densities to generalized density rwf, IOpCl= 0 IROHF=0.

 **********************************************************************

            Population analysis using the SCF density.

 **********************************************************************

 Orbital symmetries:
       Occupied  (A) (A) (A) (A) (A) (A) (A) (A) (A) (A) (A) (A)
                 (A)
       Virtual   (A) (A) (A) (A) (A) (A) (A) (A) (A) (A) (A)
 The electronic state is 1-A.
 Alpha  occ. eigenvalues --   -1.83957  -1.12972  -0.85982  -0.78451  -0.74079
 Alpha  occ. eigenvalues --   -0.65931  -0.62779  -0.54061  -0.53115  -0.43742
 Alpha  occ. eigenvalues --   -0.43365  -0.40857  -0.28415
 Alpha virt. eigenvalues --    0.10445   0.15133   0.18678   0.26214   0.28427
 Alpha virt. eigenvalues --    0.30702   0.37121   0.42048   0.48042   0.56382
 Alpha virt. eigenvalues --    0.59215
     Molecular Orbital Coefficients:
                           1         2         3         4         5
                           O         O         O         O         O
     Eigenvalues --    -1.83957  -1.12972  -0.85982  -0.78451  -0.74079
   1 1   C  1S          0.07078   0.44775   0.25382  -0.19409   0.23187
   2        1PX         0.09576   0.23063  -0.11625   0.16049  -0.10472
   3        1PY        -0.05092  -0.01508  -0.26098   0.12592   0.38138
   4        1PZ        -0.00060  -0.00383  -0.00224  -0.00196   0.00185
   5 2   C  1S          0.21249   0.25437   0.48321   0.11826  -0.36304
   6        1PX         0.25326  -0.01965  -0.08556   0.41746  -0.11343
   7        1PY         0.02186   0.32552  -0.06271  -0.31628   0.21213
   8        1PZ         0.00173   0.00161   0.00132  -0.00285   0.00295
   9 3   O  1S          0.85159  -0.27227   0.01050   0.05985   0.27429
  10        1PX        -0.02289  -0.09305  -0.14711  -0.21186   0.11083
  11        1PY         0.04031   0.12420  -0.10971  -0.18057  -0.10649
  12        1PZ        -0.00027  -0.00054  -0.00092  -0.00173   0.00223
  13 4   C  1S          0.22790   0.24691  -0.47161  -0.22614  -0.33198
  14        1PX        -0.10754  -0.31389  -0.07532  -0.19894  -0.09375
  15        1PY        -0.24596   0.14516  -0.05022   0.54285   0.04633
  16        1PZ         0.00165  -0.00024  -0.00591  -0.00961  -0.00038
  17 5   C  1S          0.07319   0.45653  -0.26169   0.22216   0.15392
  18        1PX         0.01610  -0.06580  -0.27756   0.10798  -0.37240
  19        1PY        -0.11115  -0.21623  -0.02502   0.16119   0.19558
  20        1PZ         0.00110   0.00473  -0.00381  -0.00199   0.00380
  21 6   H  1S          0.00369   0.13695  -0.15159   0.18666   0.16325
  22 7   H  1S          0.04702   0.01571  -0.26443  -0.14266  -0.20821
  23 8   H  1S          0.04348   0.03781   0.29475   0.05409  -0.24232
  24 9   H  1S          0.00300   0.12762   0.13718  -0.14393   0.22533
                           6         7         8         9        10
                           O         O         O         O         O
     Eigenvalues --    -0.65931  -0.62779  -0.54061  -0.53115  -0.43742
   1 1   C  1S         -0.16458  -0.00208  -0.09560   0.14179   0.02158
   2        1PX         0.22525   0.01442  -0.00855  -0.00479  -0.12240
   3        1PY         0.02701  -0.00216  -0.37685  -0.13993   0.04715
   4        1PZ        -0.01835   0.38597   0.00765  -0.01237   0.23533
   5 2   C  1S         -0.13147   0.00143  -0.15551   0.10154  -0.00966
   6        1PX         0.42331   0.03880  -0.38346   0.39463   0.05197
   7        1PY         0.20428   0.01161   0.33589   0.43717  -0.04272
   8        1PZ        -0.02142   0.54501   0.02048  -0.00694   0.67078
   9 3   O  1S         -0.19175  -0.01315   0.24263   0.02416  -0.01381
  10        1PX        -0.10369  -0.01333   0.07445  -0.10126  -0.01497
  11        1PY         0.13440   0.00422  -0.06893  -0.09076   0.00571
  12        1PZ        -0.01108   0.19435   0.00487  -0.00506  -0.00349
  13 4   C  1S         -0.13833  -0.01332  -0.11059  -0.11087   0.03933
  14        1PX        -0.33077  -0.00454  -0.26944   0.51885  -0.03594
  15        1PY        -0.32232  -0.00575   0.39689   0.31370   0.01561
  16        1PZ        -0.03371   0.59314  -0.00763  -0.02053  -0.64585
  17 5   C  1S         -0.18386  -0.01737  -0.08110  -0.14631  -0.01486
  18        1PX        -0.12013  -0.00913   0.37071  -0.05842   0.05470
  19        1PY        -0.22026  -0.00568  -0.15615  -0.01503  -0.05268
  20        1PZ        -0.02109   0.40100  -0.00198  -0.01628  -0.18060
  21 6   H  1S         -0.23598  -0.01237  -0.13903  -0.09569  -0.04219
  22 7   H  1S         -0.30101  -0.00226  -0.17850   0.29242  -0.00839
  23 8   H  1S         -0.30895  -0.02287  -0.11892  -0.28341  -0.01263
  24 9   H  1S         -0.21030  -0.00635  -0.13757   0.05658   0.10534
                          11        12        13        14        15
                           O         O         O         V         V
     Eigenvalues --    -0.43365  -0.40857  -0.28415   0.10445   0.15133
   1 1   C  1S         -0.09971   0.02898   0.00339   0.00128  -0.06009
   2        1PX         0.41913   0.48887   0.01403   0.01193  -0.12235
   3        1PY        -0.28704   0.20510  -0.00344  -0.00211  -0.11491
   4        1PZ         0.03569   0.01204   0.57625   0.67904  -0.00504
   5 2   C  1S          0.09703  -0.10217   0.00069  -0.00303  -0.01526
   6        1PX        -0.16246  -0.24055  -0.00096  -0.00053  -0.04876
   7        1PY         0.21550  -0.18892   0.00673   0.00224  -0.06547
   8        1PZ         0.13979   0.05899  -0.39175  -0.21536   0.00150
   9 3   O  1S          0.00385   0.09749   0.00106   0.00050   0.00530
  10        1PX         0.04515   0.08166   0.00219  -0.00005  -0.06236
  11        1PY         0.02347  -0.11096  -0.00089   0.00034   0.00999
  12        1PZ         0.00167   0.00250  -0.15594   0.00134  -0.00365
  13 4   C  1S         -0.11664  -0.07884  -0.00250  -0.00464  -0.13373
  14        1PX         0.14559   0.20982   0.01001  -0.00973  -0.51612
  15        1PY        -0.21691   0.17826  -0.00228   0.00153   0.03316
  16        1PZ        -0.12470  -0.05215  -0.36697   0.20811  -0.01710
  17 5   C  1S          0.09585   0.03908  -0.00433   0.00169  -0.08866
  18        1PX        -0.14670  -0.33752   0.00490  -0.00736  -0.27367
  19        1PY         0.45716  -0.43639   0.00241   0.00328   0.12813
  20        1PZ        -0.03960  -0.01094   0.59582  -0.66980   0.01411
  21 6   H  1S          0.36174  -0.29549   0.00259  -0.00287  -0.05691
  22 7   H  1S         -0.01873   0.13465  -0.00510   0.01445   0.73964
  23 8   H  1S          0.01696   0.13017   0.00302   0.00452  -0.12065
  24 9   H  1S         -0.39516  -0.26243  -0.00177   0.00193  -0.08588
                          16        17        18        19        20
                           V         V         V         V         V
     Eigenvalues --     0.18678   0.26214   0.28427   0.30702   0.37121
   1 1   C  1S         -0.12742   0.03731  -0.08659   0.15843   0.42504
   2        1PX        -0.06301   0.55537   0.15476  -0.10296  -0.13088
   3        1PY         0.38994   0.09622  -0.11095   0.48309  -0.23838
   4        1PZ        -0.00123  -0.01298  -0.00540   0.00379  -0.00159
   5 2   C  1S         -0.05990   0.03754  -0.23156   0.40765  -0.31567
   6        1PX         0.09719  -0.07198   0.10003  -0.20070   0.21913
   7        1PY         0.49797  -0.05466   0.03646   0.02932  -0.12567
   8        1PZ         0.00954   0.00053   0.00253  -0.00142  -0.00034
   9 3   O  1S          0.01006  -0.00268  -0.01569   0.00007  -0.03685
  10        1PX        -0.02193  -0.00032   0.00446  -0.03804   0.10845
  11        1PY         0.07642  -0.00981  -0.02351  -0.04437  -0.14138
  12        1PZ         0.00176   0.00096   0.00146  -0.00040  -0.00074
  13 4   C  1S         -0.03356  -0.12911  -0.38513  -0.27332  -0.25839
  14        1PX        -0.08072  -0.06304   0.01434   0.02118   0.05140
  15        1PY         0.04015  -0.08771  -0.17011  -0.17368  -0.22071
  16        1PZ        -0.00370  -0.00158  -0.00020   0.00188   0.00207
  17 5   C  1S         -0.10314  -0.06930  -0.07168  -0.03749   0.42112
  18        1PX         0.08281   0.34319   0.19686   0.40700   0.24847
  19        1PY         0.15972   0.34498  -0.45272  -0.11988   0.07947
  20        1PZ         0.00187  -0.00022  -0.00033  -0.00449   0.00166
  21 6   H  1S         -0.16264  -0.34138   0.54027   0.11038  -0.29935
  22 7   H  1S          0.09460   0.11646   0.20847   0.12652   0.08227
  23 8   H  1S          0.67464  -0.08282   0.22392  -0.29756   0.14607
  24 9   H  1S         -0.13191   0.51398   0.28039  -0.34157  -0.25995
                          21        22        23        24
                           V         V         V         V
     Eigenvalues --     0.42048   0.48042   0.56382   0.59215
   1 1   C  1S         -0.57582   0.00288   0.07041   0.00558
   2        1PX        -0.16236  -0.00101  -0.03060  -0.00561
   3        1PY        -0.03633  -0.00054  -0.01706  -0.00959
   4        1PZ         0.00572   0.01481  -0.00029  -0.00026
   5 2   C  1S          0.22902  -0.00048  -0.17117   0.18087
   6        1PX        -0.09567   0.00164  -0.13976   0.16304
   7        1PY         0.15442  -0.00197  -0.10619  -0.08018
   8        1PZ         0.00021  -0.17057  -0.00033   0.00165
   9 3   O  1S         -0.00121  -0.00012   0.11766   0.00649
  10        1PX        -0.01729  -0.00528  -0.56278   0.73600
  11        1PY        -0.02427   0.00751   0.73167   0.56432
  12        1PZ         0.00274   0.96830  -0.00902  -0.00037
  13 4   C  1S         -0.21434   0.00026  -0.16699  -0.19697
  14        1PX         0.11781   0.00087   0.15383  -0.01458
  15        1PY        -0.14498  -0.00109   0.07845   0.18642
  16        1PZ         0.00100  -0.18095   0.00059  -0.00112
  17 5   C  1S          0.59882  -0.00057   0.07658  -0.00175
  18        1PX        -0.08748   0.00020   0.02732  -0.00973
  19        1PY        -0.11569   0.00064   0.02605   0.00085
  20        1PZ         0.00497   0.01554  -0.00026  -0.00006
  21 6   H  1S         -0.22592  -0.00002  -0.03853  -0.00461
  22 7   H  1S          0.03644   0.00042  -0.00209   0.00073
  23 8   H  1S         -0.06036  -0.00064  -0.00738  -0.00503
  24 9   H  1S          0.19462  -0.00150  -0.03436   0.00200
     Density Matrix:
                           1         2         3         4         5
   1 1   C  1S          0.85789
   2        1PX        -0.08414   1.18695
   3        1PY         0.06941  -0.02733   1.04253
   4        1PZ         0.00408   0.00074  -0.00003   1.07682
   5 2   C  1S          0.36501   0.08600  -0.54551  -0.00441   1.12170
   6        1PX        -0.17341   0.02756   0.23884   0.00294   0.30086
   7        1PY         0.42065   0.11198  -0.46697  -0.00594  -0.10266
   8        1PZ         0.00556   0.00467  -0.00649   0.29761   0.00098
   9 3   O  1S          0.01396   0.00764  -0.02318  -0.00086   0.00947
  10        1PX        -0.04128  -0.03030   0.08594   0.00046  -0.35394
  11        1PY         0.01425   0.02734  -0.05113  -0.00002   0.00369
  12        1PZ        -0.00021  -0.00021  -0.00109  -0.03053  -0.00271
  13 4   C  1S          0.00345   0.01983   0.05064   0.00085  -0.00482
  14        1PX        -0.01162  -0.00533  -0.02282   0.00504   0.00505
  15        1PY         0.05387   0.02948   0.01375  -0.00332  -0.03827
  16        1PZ        -0.00368  -0.00689  -0.00086  -0.27751   0.00007
  17 5   C  1S          0.28857   0.36606   0.34058  -0.01119   0.00594
  18        1PX        -0.44795  -0.37648  -0.43025   0.01719  -0.05509
  19        1PY        -0.21454  -0.23149  -0.11573   0.00378  -0.00299
  20        1PZ         0.00953   0.02115   0.00442   0.90929  -0.00117
  21 6   H  1S          0.03556   0.04620   0.03214   0.00068   0.06758
  22 7   H  1S          0.07259   0.05799   0.03970  -0.00779   0.05291
  23 8   H  1S          0.10407   0.03492  -0.13582  -0.00201   0.54885
  24 9   H  1S          0.52444  -0.77263   0.26555   0.01212   0.08558
                           6         7         8         9        10
   6        1PX         1.65884
   7        1PY        -0.02547   1.37043
   8        1PZ        -0.00282  -0.00901   1.84884
   9 3   O  1S          0.04804   0.00866   0.00008   1.96874
  10        1PX        -0.46616   0.04663  -0.00407   0.13207   0.24731
  11        1PY         0.04940   0.14631  -0.00025  -0.19241   0.02418
  12        1PZ        -0.00574  -0.00140   0.33087   0.00236   0.00046
  13 4   C  1S          0.03201  -0.01987   0.00090   0.01164   0.11504
  14        1PX         0.00968   0.01054  -0.00061  -0.02472   0.12108
  15        1PY        -0.02274   0.01320  -0.00077  -0.04445  -0.14911
  16        1PZ         0.00024  -0.00031   0.02804   0.00002  -0.00216
  17 5   C  1S         -0.04728   0.02784   0.00319   0.01489   0.00027
  18        1PX         0.01577  -0.02527  -0.00381   0.02101  -0.01293
  19        1PY         0.02361  -0.00318  -0.00010  -0.01748   0.02496
  20        1PZ        -0.00135   0.00213  -0.28328   0.00067   0.00121
  21 6   H  1S         -0.00817   0.05696  -0.00015   0.00550   0.00966
  22 7   H  1S          0.04969   0.00179   0.00156   0.00402   0.08424
  23 8   H  1S         -0.39504  -0.64267  -0.01253   0.00675  -0.04483
  24 9   H  1S          0.03897   0.04346  -0.00013   0.00454  -0.02318
                          11        12        13        14        15
  11        1PY         0.23399
  12        1PZ        -0.00113   0.12459
  13 4   C  1S          0.34611  -0.00256   1.12376
  14        1PX        -0.16444  -0.00285  -0.01450   1.36397
  15        1PY        -0.42657   0.00476  -0.31361   0.08006   1.63970
  16        1PZ         0.00465   0.34976  -0.00109  -0.01482   0.00223
  17 5   C  1S          0.04754  -0.00015   0.37500  -0.32122   0.31275
  18        1PX         0.08193  -0.00223   0.49123  -0.26250   0.36373
  19        1PY        -0.07435   0.00091  -0.27964   0.23077  -0.15935
  20        1PZ         0.00040  -0.02824  -0.00221   0.00071   0.00153
  21 6   H  1S          0.02046  -0.00054   0.09594  -0.05255  -0.01077
  22 7   H  1S          0.02133   0.00336   0.52184   0.76600   0.12556
  23 8   H  1S         -0.06334  -0.00235   0.04664  -0.01847  -0.03788
  24 9   H  1S         -0.00116  -0.00142   0.06857  -0.04718   0.02951
                          16        17        18        19        20
  16        1PZ         1.84726
  17 5   C  1S         -0.00785   0.85671
  18        1PX        -0.00688  -0.03384   1.05156
  19        1PY         0.00566   0.09721   0.02163   1.19868
  20        1PZ         0.28490  -0.00256   0.00154  -0.00017   1.10176
  21 6   H  1S         -0.00151   0.52336   0.03875   0.81507   0.00279
  22 7   H  1S          0.01971   0.09352   0.08999  -0.08565  -0.00119
  23 8   H  1S         -0.00078   0.06645  -0.04965  -0.03286   0.00451
  24 9   H  1S         -0.00151   0.03450  -0.04513  -0.03037   0.00180
                          21        22        23        24
  21 6   H  1S          0.81506
  22 7   H  1S          0.00693   0.72529
  23 8   H  1S          0.03250   0.03227   0.71936
  24 9   H  1S          0.00036   0.03020   0.01249   0.81824
    Full Mulliken population analysis:
                           1         2         3         4         5
   1 1   C  1S          0.85789
   2        1PX         0.00000   1.18695
   3        1PY         0.00000   0.00000   1.04253
   4        1PZ         0.00000   0.00000   0.00000   1.07682
   5 2   C  1S          0.00000   0.00000   0.00000   0.00000   1.12170
   6        1PX         0.00000   0.00000   0.00000   0.00000   0.00000
   7        1PY         0.00000   0.00000   0.00000   0.00000   0.00000
   8        1PZ         0.00000   0.00000   0.00000   0.00000   0.00000
   9 3   O  1S          0.00000   0.00000   0.00000   0.00000   0.00000
  10        1PX         0.00000   0.00000   0.00000   0.00000   0.00000
  11        1PY         0.00000   0.00000   0.00000   0.00000   0.00000
  12        1PZ         0.00000   0.00000   0.00000   0.00000   0.00000
  13 4   C  1S          0.00000   0.00000   0.00000   0.00000   0.00000
  14        1PX         0.00000   0.00000   0.00000   0.00000   0.00000
  15        1PY         0.00000   0.00000   0.00000   0.00000   0.00000
  16        1PZ         0.00000   0.00000   0.00000   0.00000   0.00000
  17 5   C  1S          0.00000   0.00000   0.00000   0.00000   0.00000
  18        1PX         0.00000   0.00000   0.00000   0.00000   0.00000
  19        1PY         0.00000   0.00000   0.00000   0.00000   0.00000
  20        1PZ         0.00000   0.00000   0.00000   0.00000   0.00000
  21 6   H  1S          0.00000   0.00000   0.00000   0.00000   0.00000
  22 7   H  1S          0.00000   0.00000   0.00000   0.00000   0.00000
  23 8   H  1S          0.00000   0.00000   0.00000   0.00000   0.00000
  24 9   H  1S          0.00000   0.00000   0.00000   0.00000   0.00000
                           6         7         8         9        10
   6        1PX         1.65884
   7        1PY         0.00000   1.37043
   8        1PZ         0.00000   0.00000   1.84884
   9 3   O  1S          0.00000   0.00000   0.00000   1.96874
  10        1PX         0.00000   0.00000   0.00000   0.00000   0.24731
  11        1PY         0.00000   0.00000   0.00000   0.00000   0.00000
  12        1PZ         0.00000   0.00000   0.00000   0.00000   0.00000
  13 4   C  1S          0.00000   0.00000   0.00000   0.00000   0.00000
  14        1PX         0.00000   0.00000   0.00000   0.00000   0.00000
  15        1PY         0.00000   0.00000   0.00000   0.00000   0.00000
  16        1PZ         0.00000   0.00000   0.00000   0.00000   0.00000
  17 5   C  1S          0.00000   0.00000   0.00000   0.00000   0.00000
  18        1PX         0.00000   0.00000   0.00000   0.00000   0.00000
  19        1PY         0.00000   0.00000   0.00000   0.00000   0.00000
  20        1PZ         0.00000   0.00000   0.00000   0.00000   0.00000
  21 6   H  1S          0.00000   0.00000   0.00000   0.00000   0.00000
  22 7   H  1S          0.00000   0.00000   0.00000   0.00000   0.00000
  23 8   H  1S          0.00000   0.00000   0.00000   0.00000   0.00000
  24 9   H  1S          0.00000   0.00000   0.00000   0.00000   0.00000
                          11        12        13        14        15
  11        1PY         0.23399
  12        1PZ         0.00000   0.12459
  13 4   C  1S          0.00000   0.00000   1.12376
  14        1PX         0.00000   0.00000   0.00000   1.36397
  15        1PY         0.00000   0.00000   0.00000   0.00000   1.63970
  16        1PZ         0.00000   0.00000   0.00000   0.00000   0.00000
  17 5   C  1S          0.00000   0.00000   0.00000   0.00000   0.00000
  18        1PX         0.00000   0.00000   0.00000   0.00000   0.00000
  19        1PY         0.00000   0.00000   0.00000   0.00000   0.00000
  20        1PZ         0.00000   0.00000   0.00000   0.00000   0.00000
  21 6   H  1S          0.00000   0.00000   0.00000   0.00000   0.00000
  22 7   H  1S          0.00000   0.00000   0.00000   0.00000   0.00000
  23 8   H  1S          0.00000   0.00000   0.00000   0.00000   0.00000
  24 9   H  1S          0.00000   0.00000   0.00000   0.00000   0.00000
                          16        17        18        19        20
  16        1PZ         1.84726
  17 5   C  1S          0.00000   0.85671
  18        1PX         0.00000   0.00000   1.05156
  19        1PY         0.00000   0.00000   0.00000   1.19868
  20        1PZ         0.00000   0.00000   0.00000   0.00000   1.10176
  21 6   H  1S          0.00000   0.00000   0.00000   0.00000   0.00000
  22 7   H  1S          0.00000   0.00000   0.00000   0.00000   0.00000
  23 8   H  1S          0.00000   0.00000   0.00000   0.00000   0.00000
  24 9   H  1S          0.00000   0.00000   0.00000   0.00000   0.00000
                          21        22        23        24
  21 6   H  1S          0.81506
  22 7   H  1S          0.00000   0.72529
  23 8   H  1S          0.00000   0.00000   0.71936
  24 9   H  1S          0.00000   0.00000   0.00000   0.81824
     Gross orbital populations:
                           1
   1 1   C  1S          0.85789
   2        1PX         1.18695
   3        1PY         1.04253
   4        1PZ         1.07682
   5 2   C  1S          1.12170
   6        1PX         1.65884
   7        1PY         1.37043
   8        1PZ         1.84884
   9 3   O  1S          1.96874
  10        1PX         0.24731
  11        1PY         0.23399
  12        1PZ         0.12459
  13 4   C  1S          1.12376
  14        1PX         1.36397
  15        1PY         1.63970
  16        1PZ         1.84726
  17 5   C  1S          0.85671
  18        1PX         1.05156
  19        1PY         1.19868
  20        1PZ         1.10176
  21 6   H  1S          0.81506
  22 7   H  1S          0.72529
  23 8   H  1S          0.71936
  24 9   H  1S          0.81824
          Condensed to atoms (all electrons):
               1          2          3          4          5          6
     1  C    4.164199   0.000000   0.000000   0.000000   0.000000   0.000000
     2  C    0.000000   5.999813   0.000000   0.000000   0.000000   0.000000
     3  O    0.000000   0.000000   2.574637   0.000000   0.000000   0.000000
     4  C    0.000000   0.000000   0.000000   5.974689   0.000000   0.000000
     5  C    0.000000   0.000000   0.000000   0.000000   4.208712   0.000000
     6  H    0.000000   0.000000   0.000000   0.000000   0.000000   0.815061
     7  H    0.000000   0.000000   0.000000   0.000000   0.000000   0.000000
     8  H    0.000000   0.000000   0.000000   0.000000   0.000000   0.000000
     9  H    0.000000   0.000000   0.000000   0.000000   0.000000   0.000000
               7          8          9
     1  C    0.000000   0.000000   0.000000
     2  C    0.000000   0.000000   0.000000
     3  O    0.000000   0.000000   0.000000
     4  C    0.000000   0.000000   0.000000
     5  C    0.000000   0.000000   0.000000
     6  H    0.000000   0.000000   0.000000
     7  H    0.725286   0.000000   0.000000
     8  H    0.000000   0.719360   0.000000
     9  H    0.000000   0.000000   0.818242
 Mulliken charges:
               1
     1  C   -0.164199
     2  C   -1.999813
     3  O    3.425363
     4  C   -1.974689
     5  C   -0.208712
     6  H    0.184939
     7  H    0.274714
     8  H    0.280640
     9  H    0.181758
 Sum of Mulliken charges =   0.00000
 Mulliken charges with hydrogens summed into heavy atoms:
               1
     1  C    0.017559
     2  C   -1.719173
     3  O    3.425363
     4  C   -1.699975
     5  C   -0.023773
 Charge=              0.0000 electrons
 Dipole moment (field-independent basis, Debye):
    X=              7.2602    Y=             -9.7819    Z=              0.1804  Tot=             12.1831
 N-N= 1.038960494010D+02 E-N=-1.696766519261D+02  KE=-1.432784120979D+01
 Orbital energies and kinetic energies (alpha):
                                 1                 2
   1         O                -1.839575         -1.238343
   2         O                -1.129725         -0.983067
   3         O                -0.859821         -0.804099
   4         O                -0.784507         -0.509946
   5         O                -0.740787         -0.608285
   6         O                -0.659306         -0.544283
   7         O                -0.627789         -0.500782
   8         O                -0.540606         -0.318043
   9         O                -0.531146         -0.348183
  10         O                -0.437421         -0.317105
  11         O                -0.433646         -0.407701
  12         O                -0.408567         -0.327761
  13         O                -0.284150         -0.256323
  14         V                 0.104447         -0.172480
  15         V                 0.151330         -0.192570
  16         V                 0.186778         -0.170050
  17         V                 0.262138         -0.145175
  18         V                 0.284265         -0.140899
  19         V                 0.307022         -0.083400
  20         V                 0.371207         -0.040389
  21         V                 0.420484         -0.033697
  22         V                 0.480417          0.688605
  23         V                 0.563816          0.705890
  24         V                 0.592148          0.758604
 Total kinetic energy from orbitals=-1.432784120979D+01
 Leave Link  601 at Tue Dec 15 17:07:44 2015, MaxMem=    33554432 cpu:         0.0
 (Enter /home/Applications/g09/g09/l701.exe)
 Compute integral first derivatives.
 ... and contract with generalized density number  6.
 Leave Link  701 at Tue Dec 15 17:07:44 2015, MaxMem=    33554432 cpu:         0.0
 (Enter /home/Applications/g09/g09/l702.exe)
 L702 exits ... SP integral derivatives will be done elsewhere.
 Leave Link  702 at Tue Dec 15 17:07:44 2015, MaxMem=    33554432 cpu:         0.0
 (Enter /home/Applications/g09/g09/l703.exe)
 Compute integral first derivatives, UseDBF=F ICtDFT=           0.
 Integral derivatives from FoFJK, PRISM(SPDF).
 Calling FoFJK, ICntrl=  10005127 FMM=F ISym2X=0 I1Cent= 0 IOpClX= 0 NMat=1 NMatS=1 NMatT=0.
 FoFJK:  IHMeth= 8 ICntrl=10005127 DoSepK=F KAlg= 0 I1Cent=   0 FoldK=F
 IRaf=         0 NMat=   1 IRICut=       1 DoRegI=T DoRafI=F ISym2E= 0.
 FoFCou: FMM=F IPFlag=           0 FMFlag=      100000 FMFlg1=         800
         NFxFlg=           0 DoJE=F BraDBF=F KetDBF=F FulRan=T
         wScrn=  0.000000 ICntrl=10005127 IOpCl=  0 I1Cent=           0 NGrid=           0
         NMat0=    1 NMatS0=      1 NMatT0=    0 NMatD0=    1 NMtDS0=    0 NMtDT0=    0
 Symmetry not used in FoFCou.
 Leave Link  703 at Tue Dec 15 17:07:44 2015, MaxMem=    33554432 cpu:         0.0
 (Enter /home/Applications/g09/g09/l716.exe)
 Dipole        = 3.08193568D+00-4.20016348D+00 7.01703008D-02
 ***** Axes restored to original set *****
 -------------------------------------------------------------------
 Center     Atomic                   Forces (Hartrees/Bohr)
 Number     Number              X              Y              Z
 -------------------------------------------------------------------
      1        6           0.084400426    0.006069794    0.001319716
      2        6          -0.201074007   -0.043411640   -0.003285918
      3        8           0.173081783   -0.038875633    0.005012320
      4        6          -0.239673753    0.137927028   -0.007365569
      5        6           0.087184908   -0.019700094    0.001276464
      6        1           0.046685207    0.033618891    0.001495403
      7        1           0.031089437    0.003377589    0.002044830
      8        1          -0.005658282   -0.058184811    0.000371555
      9        1           0.023964281   -0.020821123   -0.000868802
 -------------------------------------------------------------------
 Cartesian Forces:  Max     0.239673753 RMS     0.080326819
 Z-matrix is all fixed cartesians, so copy forces.
 Force constants in Cartesian coordinates: 
                1             2             3             4             5 
      1  0.938392D+00
      2 -0.113597D-01  0.783132D+00
      3 -0.161626D-03  0.107442D-01  0.212431D+00
      4 -0.547511D+00 -0.103710D+00 -0.112708D-02  0.943755D+00
      5 -0.810937D-01 -0.213961D+00 -0.696153D-03  0.301198D-01  0.865148D+00
      6 -0.599452D-03 -0.565757D-03 -0.104670D+00  0.345220D-02 -0.429800D-02
      7 -0.757331D-02  0.289633D-01 -0.279793D-03 -0.271809D+00  0.146212D+00
      8 -0.575770D-02  0.220240D-01 -0.136210D-03  0.191121D+00 -0.336633D+00
      9  0.671310D-04  0.249025D-03  0.522398D-02 -0.317429D-02  0.255620D-02
     10  0.106084D-01 -0.470065D-04  0.100393D-03  0.226106D-01  0.171980D-01
     11  0.355980D-01 -0.164538D-03  0.329939D-03 -0.191205D-01 -0.145471D-01
     12  0.108856D-02 -0.108934D-03  0.266472D-03  0.341159D-03  0.350568D-03
     13 -0.167336D+00  0.112641D-01 -0.125539D-03  0.928661D-02 -0.355227D-01
     14 -0.134415D-01 -0.421313D+00 -0.895678D-02 -0.420572D-04  0.159294D-03
     15 -0.591930D-03 -0.797556D-02 -0.843668D-01  0.104262D-03 -0.787616D-04
     16  0.173779D-01 -0.745087D-04 -0.102774D-03  0.000000D+00 -0.128548D-05
     17 -0.233872D-01  0.102910D-03  0.238100D-04  0.000000D+00  0.238645D-05
     18 -0.837357D-03 -0.411931D-03  0.180546D-01  0.141155D-04 -0.103417D-03
     19  0.160889D-05  0.142804D-05 -0.623412D-04  0.463270D-05  0.110349D-05
     20 -0.702950D-05 -0.623931D-05  0.272378D-03 -0.148515D-05  0.000000D+00
     21 -0.195475D-03 -0.173501D-03  0.757423D-02 -0.984453D-04 -0.234493D-04
     22  0.720637D-02 -0.275703D-01  0.182083D-03 -0.151902D+00 -0.938769D-01
     23 -0.312475D-02  0.119523D-01  0.145795D-03 -0.921849D-01 -0.323818D+00
     24 -0.457880D-04 -0.133861D-03  0.280750D-01  0.585169D-03  0.221328D-02
     25 -0.251167D+00  0.102532D+00  0.157668D-02 -0.443496D-02  0.169633D-01
     26  0.102574D+00 -0.181767D+00 -0.172697D-02 -0.618192D-02  0.236500D-01
     27  0.127593D-02 -0.162366D-02 -0.825886D-01 -0.970862D-04  0.797405D-04
                6             7             8             9            10 
      6  0.190351D+00
      7 -0.343302D-02  0.564149D+00
      8  0.353469D-02  0.321394D-01  0.664671D+00
      9 -0.460601D-01  0.114779D-01  0.301362D-02  0.557210D-01
     10  0.809529D-03 -0.317007D+00 -0.225393D+00 -0.870153D-02  0.996607D+00
     11 -0.575835D-03 -0.179440D+00 -0.358384D+00 -0.598888D-02  0.431724D-02
     12 -0.191493D-02 -0.758203D-02 -0.639836D-02 -0.483654D-01  0.204711D-01
     13 -0.945759D-03 -0.850638D-02  0.720178D-02 -0.483778D-03 -0.572164D+00
     14 -0.548616D-04 -0.285367D-01  0.241407D-01 -0.658046D-03  0.127788D+00
     15 -0.149884D-03 -0.718566D-03  0.275335D-03  0.815581D-02 -0.758586D-02
     16  0.558059D-04  0.251270D-05  0.000000D+00 -0.119468D-03 -0.533763D-02
     17 -0.103602D-03 -0.231121D-05  0.000000D+00  0.109888D-03  0.718793D-02
     18  0.448959D-02 -0.168850D-03 -0.555003D-04  0.802810D-02 -0.459130D-03
     19 -0.203285D-03  0.188488D-01 -0.159581D-01  0.103916D-02 -0.135319D+00
     20  0.651692D-04  0.101542D-01 -0.860125D-02  0.733410D-03  0.689470D-01
     21  0.431982D-02  0.508589D-03 -0.536721D-03  0.432628D-02 -0.442711D-02
     22  0.608232D-03  0.218949D-01  0.166458D-01 -0.112509D-03  0.000000D+00
     23  0.207112D-02 -0.949089D-02 -0.721498D-02  0.937482D-04  0.000000D+00
     24 -0.728633D-01  0.232452D-03  0.243581D-03  0.561768D-02 -0.946773D-04
     25  0.255755D-03  0.000000D+00  0.000000D+00  0.732781D-05  0.000000D+00
     26 -0.729258D-04  0.000000D+00  0.000000D+00 -0.108964D-03  0.259157D-05
     27  0.264980D-01 -0.367255D-04  0.595640D-04  0.735263D-02 -0.112680D-03
               11            12            13            14            15 
     11  0.803331D+00
     12 -0.159027D-02  0.206057D+00
     13  0.101806D+00 -0.101636D-01  0.985497D+00
     14 -0.230864D+00  0.233899D-02  0.722065D-02  0.816116D+00
     15  0.928357D-03 -0.117366D+00  0.106474D-01  0.740612D-02  0.225535D+00
     16 -0.178847D-01 -0.131369D-03 -0.270556D+00 -0.117132D+00 -0.565306D-03
     17  0.240731D-01 -0.160893D-05 -0.118882D+00 -0.201195D+00 -0.959925D-03
     18  0.249286D-03  0.281293D-01  0.556463D-03 -0.343414D-03 -0.875968D-01
     19  0.747235D-01 -0.398893D-02  0.725462D-02  0.242161D-01 -0.126722D-02
     20 -0.223446D+00  0.547091D-02  0.388620D-02  0.130529D-01  0.591184D-03
     21  0.676997D-02 -0.753273D-01 -0.349588D-03  0.830780D-03  0.315078D-01
     22  0.000000D+00 -0.135499D-04  0.000000D+00  0.000000D+00 -0.387993D-04
     23  0.000000D+00  0.391309D-04  0.000000D+00 -0.166390D-05  0.722342D-04
     24 -0.225518D-04  0.415448D-02  0.217641D-04 -0.159454D-03  0.692229D-02
     25  0.000000D+00 -0.212630D-04  0.165249D-01 -0.734707D-04  0.160587D-04
     26  0.230025D-05 -0.100418D-03  0.230263D-01 -0.958996D-04 -0.258979D-03
     27 -0.100014D-03  0.436611D-02  0.842717D-03 -0.403336D-03  0.173584D-01
               16            17            18            19            20 
     16  0.258515D+00
     17  0.135084D+00  0.177027D+00
     18  0.765209D-03  0.946745D-03  0.472563D-01
     19 -0.146260D-05  0.134532D-05  0.982850D-04  0.109211D+00
     20  0.639031D-05 -0.587789D-05 -0.429422D-03 -0.829853D-01  0.219007D+00
     21  0.177700D-03 -0.163451D-03 -0.119413D-01  0.438433D-02 -0.670363D-02
     22  0.000000D+00  0.000000D+00  0.000000D+00  0.000000D+00  0.000000D+00
     23  0.000000D+00  0.000000D+00  0.000000D+00  0.000000D+00  0.000000D+00
     24  0.000000D+00  0.000000D+00  0.000000D+00  0.000000D+00  0.000000D+00
     25  0.000000D+00  0.000000D+00  0.312647D-04  0.000000D+00  0.000000D+00
     26  0.183533D-05 -0.340722D-05  0.147652D-03  0.000000D+00  0.000000D+00
     27 -0.797989D-04  0.148144D-03 -0.641983D-02  0.000000D+00  0.000000D+00
               21            22            23            24            25 
     21  0.395404D-01
     22  0.000000D+00  0.122801D+00
     23  0.000000D+00  0.104801D+00  0.319081D+00
     24  0.000000D+00 -0.687829D-03 -0.230591D-02  0.392219D-01
     25  0.000000D+00  0.000000D+00  0.000000D+00 -0.110906D-04  0.239076D+00
     26  0.000000D+00  0.000000D+00  0.172090D-05  0.164916D-03 -0.119422D+00
     27  0.000000D+00  0.623728D-04 -0.116122D-03 -0.111281D-01 -0.185473D-02
               26            27 
     26  0.158213D+00
     27  0.195569D-02  0.445613D-01
 Leave Link  716 at Tue Dec 15 17:07:44 2015, MaxMem=    33554432 cpu:         0.0
 (Enter /home/Applications/g09/g09/l103.exe)

 GradGradGradGradGradGradGradGradGradGradGradGradGradGradGradGradGradGrad
 Berny optimization.
 Search for a local minimum.
 Step number   1 out of a maximum of    2
 All quantities printed in internal units (Hartrees-Bohrs-Radians)
 Second derivative matrix not updated -- first step.
 ITU=  0
     Eigenvalues ---    0.02059   0.02847   0.06735   0.06980   0.07710
     Eigenvalues ---    0.09108   0.12958   0.14260   0.15193   0.23429
     Eigenvalues ---    0.26606   0.32076   0.39457   0.41402   0.61084
     Eigenvalues ---    0.78295   1.05694   1.33817   1.35914   1.60392
     Eigenvalues ---    1.71855
 Quadratic step=1.009D+00 exceeds max=3.000D-01 adjusted using Lamda=-5.262D-01.
 Angle between NR and scaled steps=  28.01 degrees.
 Angle between quadratic step and forces=  27.49 degrees.
 Linear search not attempted -- first point.
 TrRot= -0.001235  0.001480 -0.000014  1.235918  0.000167 -1.234991
 Variable       Old X    -DE/DX   Delta X   Delta X   Delta X     New X
                                 (Linear)    (Quad)   (Total)
    X1        1.76049   0.08440   0.00000   0.02177   0.02185   1.78234
    Y1       -1.40596   0.00607   0.00000  -0.01961  -0.01648  -1.42244
    Z1        0.01551   0.00132   0.00000   0.00117   0.00128   0.01679
    X2       -0.68995  -0.20107   0.00000  -0.10900  -0.10827  -0.79822
    Y2       -2.04651  -0.04341   0.00000  -0.07327  -0.07253  -2.11903
    Z2        0.00846  -0.00329   0.00000  -0.00318  -0.00282   0.00564
    X3       -2.27819   0.17308   0.00000   0.12672   0.12547  -2.15273
    Y3        0.04242  -0.03888   0.00000  -0.02564  -0.02616   0.01626
    Z3       -0.01640   0.00501   0.00000   0.00446   0.00456  -0.01183
    X4       -0.62622  -0.23967   0.00000  -0.12709  -0.13029  -0.75651
    Y4        1.99678   0.13793   0.00000   0.12196   0.12274   2.11952
    Z4        0.03186  -0.00737   0.00000  -0.00456  -0.00487   0.02699
    X5        1.77238   0.08718   0.00000   0.01976   0.01732   1.78970
    Y5        1.28059  -0.01970   0.00000   0.02482   0.02797   1.30856
    Z5        0.07736   0.00128   0.00000  -0.00018  -0.00050   0.07686
    X6        3.41202   0.04669   0.00000   0.06623   0.06265   3.47466
    Y6        2.49865   0.03362   0.00000   0.04065   0.04537   2.54402
    Z6        0.08508   0.00150   0.00000   0.00297   0.00236   0.08744
    X7       -1.67917   0.03109   0.00000   0.01181   0.00686  -1.67231
    Y7        3.95527   0.00338   0.00000   0.05184   0.05177   4.00704
    Z7       -0.04724   0.00204   0.00000   0.00136   0.00081  -0.04643
    X8       -1.49893  -0.00566   0.00000  -0.03470  -0.03221  -1.53114
    Y8       -3.91241  -0.05818   0.00000  -0.10284  -0.10278  -4.01519
    Z8        0.02339   0.00037   0.00000  -0.00048   0.00023   0.02362
    X9        3.46674   0.02396   0.00000   0.03539   0.03663   3.50337
    Y9       -2.62973  -0.02082   0.00000  -0.03464  -0.02991  -2.65964
    Z9       -0.00433  -0.00087   0.00000  -0.00127  -0.00106  -0.00538
         Item               Value     Threshold  Converged?
 Maximum Force            0.239674     0.000450     NO 
 RMS     Force            0.080327     0.000300     NO 
 Maximum Displacement     0.130289     0.001800     NO 
 RMS     Displacement     0.057700     0.001200     NO 
 Predicted change in Energy=-7.922999D-02
 GradGradGradGradGradGradGradGradGradGradGradGradGradGradGradGradGradGrad

 Leave Link  103 at Tue Dec 15 17:07:44 2015, MaxMem=    33554432 cpu:         0.0
 (Enter /home/Applications/g09/g09/l9999.exe)
 1\1\GINC-DUSTIN-DESKTOP\Force\RAM1-FC\STO-3G\C4H4O1\DUSTIN\15-Dec-2015
 \0\\#P AM1(Input,print) CIS(Singlets,NStates=15) pop(full) force\\AM1-
 Reparam Input\\0,1\C,0.931612,-0.744002,0.008207\C,-0.365104,-1.082964
 ,0.004476\O,-1.205568,0.022446,-0.008677\C,-0.33138,1.056649,0.016859\
 C,0.937901,0.677659,0.040935\H,1.805562,1.32223,0.045024\H,-0.888577,2
 .093041,-0.024997\H,-0.793197,-2.070357,0.01238\H,1.834522,-1.391592,-
 0.00229\\Version=ES64L-G09RevD.01\State=1-A\HF=2.6167577\RMSD=9.676e-0
 9\RMSF=8.033e-02\Dipole=-5.2036274,0.2190398,-0.1375076\PG=C01 [X(C4H4
 O1)]\\@


     SCHOPENHAUER'S LAW OF ENTROPY
 IF YOU PUT A SPOONFUL OF WINE IN A BARREL FULL
 OF SEWAGE, YOU GET SEWAGE.
 IF YOU PUT A SPOONFUL OF SEWAGE IN A BARREL FULL
 OF WINE, YOU GET SEWAGE.
 Job cpu time:       0 days  0 hours  0 minutes  0.7 seconds.
 File lengths (MBytes):  RWF=      7 Int=      0 D2E=      0 Chk=      2 Scr=      1
 Normal termination of Gaussian 09 at Tue Dec 15 17:07:44 2015.
