 Entering Gaussian System, Link 0=g09
 Input=FuranAM1_88P6.com
 Output=FuranAM1_88P6.log
 Initial command:
 /home/Applications/g09/g09/l1.exe "/home/Applications/g09/scratch/Gau-8330.inp" -scrdir="/home/Applications/g09/scratch/"
 Entering Link 1 = /home/Applications/g09/g09/l1.exe PID=      8332.
  
 Copyright (c) 1988,1990,1992,1993,1995,1998,2003,2009,2013,
            Gaussian, Inc.  All Rights Reserved.
  
 This is part of the Gaussian(R) 09 program.  It is based on
 the Gaussian(R) 03 system (copyright 2003, Gaussian, Inc.),
 the Gaussian(R) 98 system (copyright 1998, Gaussian, Inc.),
 the Gaussian(R) 94 system (copyright 1995, Gaussian, Inc.),
 the Gaussian 92(TM) system (copyright 1992, Gaussian, Inc.),
 the Gaussian 90(TM) system (copyright 1990, Gaussian, Inc.),
 the Gaussian 88(TM) system (copyright 1988, Gaussian, Inc.),
 the Gaussian 86(TM) system (copyright 1986, Carnegie Mellon
 University), and the Gaussian 82(TM) system (copyright 1983,
 Carnegie Mellon University). Gaussian is a federally registered
 trademark of Gaussian, Inc.
  
 This software contains proprietary and confidential information,
 including trade secrets, belonging to Gaussian, Inc.
  
 This software is provided under written license and may be
 used, copied, transmitted, or stored only in accord with that
 written license.
  
 The following legend is applicable only to US Government
 contracts under FAR:
  
                    RESTRICTED RIGHTS LEGEND
  
 Use, reproduction and disclosure by the US Government is
 subject to restrictions as set forth in subparagraphs (a)
 and (c) of the Commercial Computer Software - Restricted
 Rights clause in FAR 52.227-19.
  
 Gaussian, Inc.
 340 Quinnipiac St., Bldg. 40, Wallingford CT 06492
  
  
 ---------------------------------------------------------------
 Warning -- This program may not be used in any manner that
 competes with the business of Gaussian, Inc. or will provide
 assistance to any competitor of Gaussian, Inc.  The licensee
 of this program is prohibited from giving any competitor of
 Gaussian, Inc. access to this program.  By using this program,
 the user acknowledges that Gaussian, Inc. is engaged in the
 business of creating and licensing software in the field of
 computational chemistry and represents and warrants to the
 licensee that it is not a competitor of Gaussian, Inc. and that
 it will not use this program in any manner prohibited above.
 ---------------------------------------------------------------
  

 Cite this work as:
 Gaussian 09, Revision D.01,
 M. J. Frisch, G. W. Trucks, H. B. Schlegel, G. E. Scuseria, 
 M. A. Robb, J. R. Cheeseman, G. Scalmani, V. Barone, B. Mennucci, 
 G. A. Petersson, H. Nakatsuji, M. Caricato, X. Li, H. P. Hratchian, 
 A. F. Izmaylov, J. Bloino, G. Zheng, J. L. Sonnenberg, M. Hada, 
 M. Ehara, K. Toyota, R. Fukuda, J. Hasegawa, M. Ishida, T. Nakajima, 
 Y. Honda, O. Kitao, H. Nakai, T. Vreven, J. A. Montgomery, Jr., 
 J. E. Peralta, F. Ogliaro, M. Bearpark, J. J. Heyd, E. Brothers, 
 K. N. Kudin, V. N. Staroverov, T. Keith, R. Kobayashi, J. Normand, 
 K. Raghavachari, A. Rendell, J. C. Burant, S. S. Iyengar, J. Tomasi, 
 M. Cossi, N. Rega, J. M. Millam, M. Klene, J. E. Knox, J. B. Cross, 
 V. Bakken, C. Adamo, J. Jaramillo, R. Gomperts, R. E. Stratmann, 
 O. Yazyev, A. J. Austin, R. Cammi, C. Pomelli, J. W. Ochterski, 
 R. L. Martin, K. Morokuma, V. G. Zakrzewski, G. A. Voth, 
 P. Salvador, J. J. Dannenberg, S. Dapprich, A. D. Daniels, 
 O. Farkas, J. B. Foresman, J. V. Ortiz, J. Cioslowski, 
 and D. J. Fox, Gaussian, Inc., Wallingford CT, 2013.
 
 ******************************************
 Gaussian 09:  ES64L-G09RevD.01 24-Apr-2013
                15-Dec-2015 
 ******************************************
 ------------------------------------------------------------
 #P AM1(Input,print) CIS(Singlets,NStates=15) pop(full) force
 ------------------------------------------------------------
 1/10=7,30=1,38=1/1,3;
 2/12=2,17=6,18=5,40=1/2;
 3/5=2,16=1,25=1,41=700000,71=1,135=100,136=1/1,2,8,3;
 4/35=1/1;
 5/5=2,35=1,38=5/2;
 8/6=1,10=1,108=15/1;
 9/15=2,41=15,42=1,48=1,49=10/14;
 10/5=4/2;
 6/7=3,18=1/1;
 7/12=6,13=5,29=1/1,2,3,16;
 1/10=7,30=1/3;
 99//99;
 Leave Link    1 at Tue Dec 15 17:06:25 2015, MaxMem=           0 cpu:         0.0
 (Enter /home/Applications/g09/g09/l101.exe)
 -----------------
 AM1-Reparam Input
 -----------------
 Symbolic Z-matrix:
 Charge =  0 Multiplicity = 1
 6                     0.95345  -0.7527   -0.02911 
 6                    -0.32143  -1.09329  -0.03239 
 8                    -1.13232  -0.00209  -0.04711 
 6                    -0.38997   1.11159   0.04153 
 6                     0.93734   0.69602   0.01497 
 1                     1.85473   1.33047  -0.03395 
 1                    -0.81309   2.05405  -0.01561 
 1                    -0.83678  -2.03607   0.02172 
 1                     1.80898  -1.33599   0.0243 
 
 NAtoms=      9 NQM=        9 NQMF=       0 NMMI=      0 NMMIF=      0
                NMic=       0 NMicF=      0.
                    Isotopes and Nuclear Properties:
 (Nuclear quadrupole moments (NQMom) in fm**2, nuclear magnetic moments (NMagM)
  in nuclear magnetons)

  Atom         1           2           3           4           5           6           7           8           9
 IAtWgt=          12          12          16          12          12           1           1           1           1
 AtmWgt=  12.0000000  12.0000000  15.9949146  12.0000000  12.0000000   1.0078250   1.0078250   1.0078250   1.0078250
 NucSpn=           0           0           0           0           0           1           1           1           1
 AtZEff=   0.0000000   0.0000000   0.0000000   0.0000000   0.0000000   0.0000000   0.0000000   0.0000000   0.0000000
 NQMom=    0.0000000   0.0000000   0.0000000   0.0000000   0.0000000   0.0000000   0.0000000   0.0000000   0.0000000
 NMagM=    0.0000000   0.0000000   0.0000000   0.0000000   0.0000000   2.7928460   2.7928460   2.7928460   2.7928460
 AtZNuc=   6.0000000   6.0000000   8.0000000   6.0000000   6.0000000   1.0000000   1.0000000   1.0000000   1.0000000
 Leave Link  101 at Tue Dec 15 17:06:25 2015, MaxMem=    33554432 cpu:         0.0
 (Enter /home/Applications/g09/g09/l103.exe)

 GradGradGradGradGradGradGradGradGradGradGradGradGradGradGradGradGradGrad
 Berny optimization.
 Initialization pass.
 Trust Radius=3.00D-01 FncErr=1.00D-07 GrdErr=1.00D-07
 Number of steps in this run=      2 maximum allowed number of steps=      2.
 GradGradGradGradGradGradGradGradGradGradGradGradGradGradGradGradGradGrad

 Leave Link  103 at Tue Dec 15 17:06:25 2015, MaxMem=    33554432 cpu:         0.0
 (Enter /home/Applications/g09/g09/l202.exe)
                          Input orientation:                          
 ---------------------------------------------------------------------
 Center     Atomic      Atomic             Coordinates (Angstroms)
 Number     Number       Type             X           Y           Z
 ---------------------------------------------------------------------
      1          6           0        0.953447   -0.752695   -0.029112
      2          6           0       -0.321426   -1.093288   -0.032388
      3          8           0       -1.132316   -0.002085   -0.047105
      4          6           0       -0.389969    1.111590    0.041529
      5          6           0        0.937335    0.696018    0.014973
      6          1           0        1.854728    1.330467   -0.033948
      7          1           0       -0.813089    2.054046   -0.015605
      8          1           0       -0.836778   -2.036069    0.021717
      9          1           0        1.808981   -1.335993    0.024301
 ---------------------------------------------------------------------
                    Distance matrix (angstroms):
                    1          2          3          4          5
     1  C    0.000000
     2  C    1.319589   0.000000
     3  O    2.216787   1.359589   0.000000
     4  C    2.298981   2.207181   1.341345   0.000000
     5  C    1.449473   2.188227   2.185099   1.391094   0.000000
     6  H    2.269779   3.257336   3.270826   2.256606   1.116481
     7  H    3.316418   3.185549   2.081003   1.034658   2.215662
     8  H    2.203302   1.075803   2.056495   3.179275   3.257579
     9  H    1.036836   2.144937   3.230424   3.290340   2.211091
                    6          7          8          9
     6  H    0.000000
     7  H    2.764263   0.000000
     8  H    4.310553   4.090354   0.000000
     9  H    2.667488   4.285931   2.736815   0.000000
 Stoichiometry    C4H4O
 Framework group  C1[X(C4H4O)]
 Deg. of freedom    21
 Full point group                 C1      NOp   1
 Largest Abelian subgroup         C1      NOp   1
 Largest concise Abelian subgroup C1      NOp   1
                         Standard orientation:                         
 ---------------------------------------------------------------------
 Center     Atomic      Atomic             Coordinates (Angstroms)
 Number     Number       Type             X           Y           Z
 ---------------------------------------------------------------------
      1          6           0        0.997475    0.685063   -0.014824
      2          6           0        0.940449   -0.633211   -0.000099
      3          8           0       -0.343307   -1.080257   -0.024714
      4          6           0       -1.184418   -0.037306    0.038479
      5          6           0       -0.389944    1.104132    0.005761
      6          1           0       -0.719698    2.168621   -0.062461
      7          1           0       -2.209550   -0.159561   -0.029901
      8          1           0        1.684739   -1.406406    0.074416
      9          1           0        1.809589    1.327340    0.039754
 ---------------------------------------------------------------------
 Rotational constants (GHZ):      9.7518399      9.1571597      4.7261241
 Leave Link  202 at Tue Dec 15 17:06:25 2015, MaxMem=    33554432 cpu:         0.0
 (Enter /home/Applications/g09/g09/l301.exe)

 Semi-emprical parameters in input format:
 Method=8 CoreType=1 PeptideFC=0.0106250000 RIJScale=0.5404210000
 ****
 H       
 PQN=1 NValence=1 F0ss=0.4721550000 ZetaOverlap=1.0856700000 U=-0.4219420000
 Beta=-0.2344680000 CoreKO=1.1349760000 KON=0,0,0,1.0458670000 KON=1,0,1,1.0589200000
 KON=0,1,1,1.0589200000 KON=2,1,1,1.0697690000 EISol=-0.4188110042 EHeat=0.0830298228
 Alpha=1.4609850000
 GCore=0.0079790000,1.5127750000,2.2676710000
 GCore=0.0003530000,1.4368830000,3.4779940000
 GCore=-0.0011950000,0.5600570000,3.5861320000
 ****
 C       
 PQN=2,2 NValence=4 F0ss=0.4494440000 F0sp=0.4215150000 F0pp=0.3497590000 F2pp=0.1878900000
 G1sp=0.2701540000
 ZetaOverlap=1.8086650000,1.3781170000
 U=-1.7687090000,-1.4557970000
 Beta=-0.5453250000,-0.3063130000 DDN=0,1,0.7474020000 DDN=1,1,0.7268010000
 CoreKO=1.1356210000 KON=0,0,0,1.1124280000 KON=1,0,1,0.8998210000 KON=0,1,1,1.1124280000
 KON=2,1,1,0.8516400000 EISol=-4.4398989268 EHeat=0.2723305520 Alpha=1.2789610000
 DipHyp=1.4947180026
 GCore=0.0007260000,1.3361580000,2.6678360000
 GCore=0.0028980000,1.4001430000,3.2840710000
 GCore=-0.0015090000,1.3017660000,3.8739390000
 GCore=-0.0001030000,1.4822700000,4.6744780000
 ****
 O       
 PQN=2,2 NValence=6 F0ss=0.5666750000 F0sp=0.5321300000 F0pp=0.4826590000 F2pp=0.2358080000
 G1sp=0.4216980000
 ZetaOverlap=2.6354490000,2.4967270000
 U=-3.3169990000,-1.9779290000
 Beta=-1.1573400000,-1.2994290000 DDN=0,1,0.4953610000 DDN=1,1,0.4852320000
 CoreKO=0.8515990000 KON=0,0,0,0.8822960000 KON=1,0,1,0.5019540000 KON=0,1,1,0.8682050000
 KON=2,1,1,0.5068780000 EISol=-11.6164441184 EHeat=0.0949133088 Alpha=2.4031680000
 DipHyp=0.9906650029
 GCore=0.0204720000,1.4001430000,1.6023330000
 GCore=0.0051530000,1.9602000000,2.7307880000
 ****
 
 Standard basis: VSTO-6G (5D, 7F)
 Ernie: Thresh=  0.10000D-02 Tol=  0.10000D-05 Strict=F.
  NNHCO=     0 NNPyr=     0 NCTC=     0               EPep=         0.000000000
    EC=        68.591080049  ECS=         2.453592905   EG=         0.350403089
   EHC=         0.000000000  EAt=       -31.051283842  AtH=         1.516354808
 EPDDG=         0.000000000  ECC=        71.395076043 EAtT=        32.567638650
 There are    24 symmetry adapted cartesian basis functions of A   symmetry.
 There are    24 symmetry adapted basis functions of A   symmetry.
    24 basis functions,   144 primitive gaussians,    24 cartesian basis functions
    13 alpha electrons       13 beta electrons
       nuclear repulsion energy       103.9627146938 Hartrees.
 IExCor=    0 DFT=F Ex=HF Corr=None ExCW=0 ScaHFX=  1.000000
 ScaDFX=  1.000000  1.000000  1.000000  1.000000 ScalE2=  1.000000  1.000000
 IRadAn=      0 IRanWt=     -1 IRanGd=            0 ICorTp=0 IEmpDi=  4
 Integral buffers will be    131072 words long.
 Regular integral format.
 Two-electron integral symmetry is turned off.
 Leave Link  301 at Tue Dec 15 17:06:25 2015, MaxMem=    33554432 cpu:         0.0
 (Enter /home/Applications/g09/g09/l302.exe)
 Do NDO integrals.
 NPDir=0 NMtPBC=     1 NCelOv=     1 NCel=       1 NClECP=     1 NCelD=      1
         NCelK=      1 NCelE2=     1 NClLst=     1 CellRange=     0.0.
 One-electron integrals computed using PRISM.
 NBasis=    24 RedAO= F EigKep=  0.00D+00  NBF=    24
 NBsUse=    24 1.00D-04 EigRej=  0.00D+00 NBFU=    24
 Leave Link  302 at Tue Dec 15 17:06:25 2015, MaxMem=    33554432 cpu:         0.0
 (Enter /home/Applications/g09/g09/l308.exe)
 Leave Link  308 at Tue Dec 15 17:06:25 2015, MaxMem=    33554432 cpu:         0.0
 (Enter /home/Applications/g09/g09/l303.exe)
 DipDrv:  MaxL=1.
 Leave Link  303 at Tue Dec 15 17:06:25 2015, MaxMem=    33554432 cpu:         0.0
 (Enter /home/Applications/g09/g09/l401.exe)
 Simple Huckel Guess.
 JPrj=0 DoOrth=F DoCkMO=F.
 Leave Link  401 at Tue Dec 15 17:06:25 2015, MaxMem=    33554432 cpu:         0.0
 (Enter /home/Applications/g09/g09/l502.exe)
 Closed shell SCF:
 Using DIIS extrapolation, IDIIS=  1040.
 Overlap will be assumed to be unity.
 Two-electron integral symmetry not used.
 Keep J ints in memory in canonical form, NReq=888082.
 IVT=       79475 IEndB=       79475 NGot=    33554432 MDV=    33473473
 LenX=    33473473 LenY=    33472456
 Requested convergence on RMS density matrix=1.00D-08 within 128 cycles.
 Requested convergence on MAX density matrix=1.00D-06.
 Requested convergence on             energy=1.00D-06.
 No special actions if energy rises.
 FoFCou: FMM=F IPFlag=           0 FMFlag=           0 FMFlg1=           0
         NFxFlg=           0 DoJE=F BraDBF=F KetDBF=F FulRan=T
         wScrn=  0.000000 ICntrl=     600 IOpCl=  2 I1Cent=           0 NGrid=           0
         NMat0=    1 NMatS0=     54 NMatT0=    0 NMatD0=    1 NMtDS0=    0 NMtDT0=    0
 Symmetry not used in FoFCou.

 Cycle   1  Pass 1  IDiag  1:
 E=  4.81029311159648    
 DIIS: error= 1.49D-01 at cycle   1 NSaved=   1.
 NSaved= 1 IEnMin= 1 EnMin=  4.81029311159648     IErMin= 1 ErrMin= 1.49D-01
 ErrMax= 1.49D-01  0.00D+00 EMaxC= 1.00D-01 BMatC= 4.65D-01 BMatP= 4.65D-01
 IDIUse=3 WtCom= 0.00D+00 WtEn= 1.00D+00
 Coeff-Com:  0.100D+01
 Coeff-En:   0.100D+01
 Coeff:      0.100D+01
 GapD=    2.000 DampG=2.000 DampE=0.250 DampFc=0.5000 IDamp=-1.
 Damping current iteration by 5.00D-01
 RMSDP=6.37D-02 MaxDP=7.00D-01              OVMax= 0.00D+00

 Cycle   2  Pass 1  IDiag  1:
 E=  3.85491838974467     Delta-E=       -0.955374721852 Rises=F Damp=T
 DIIS: error= 8.54D-02 at cycle   2 NSaved=   2.
 NSaved= 2 IEnMin= 2 EnMin=  3.85491838974467     IErMin= 2 ErrMin= 8.54D-02
 ErrMax= 8.54D-02  0.00D+00 EMaxC= 1.00D-01 BMatC= 1.67D-01 BMatP= 4.65D-01
 IDIUse=3 WtCom= 1.46D-01 WtEn= 8.54D-01
 Coeff-Com: -0.118D+01 0.218D+01
 Coeff-En:   0.000D+00 0.100D+01
 Coeff:     -0.172D+00 0.117D+01
 RMSDP=3.70D-02 MaxDP=3.68D-01 DE=-9.55D-01 OVMax= 0.00D+00

 Cycle   3  Pass 1  IDiag  1:
 E=  2.59669121451256     Delta-E=       -1.258227175232 Rises=F Damp=F
 DIIS: error= 1.97D-02 at cycle   3 NSaved=   3.
 NSaved= 3 IEnMin= 3 EnMin=  2.59669121451256     IErMin= 3 ErrMin= 1.97D-02
 ErrMax= 1.97D-02  0.00D+00 EMaxC= 1.00D-01 BMatC= 1.54D-02 BMatP= 1.67D-01
 IDIUse=3 WtCom= 8.03D-01 WtEn= 1.97D-01
 Coeff-Com:  0.442D+00-0.102D+01 0.158D+01
 Coeff-En:   0.000D+00 0.000D+00 0.100D+01
 Coeff:      0.355D+00-0.820D+00 0.147D+01
 RMSDP=1.23D-02 MaxDP=6.25D-02 DE=-1.26D+00 OVMax= 0.00D+00

 Cycle   4  Pass 1  IDiag  3:
 E=  2.53483272339402     Delta-E=       -0.061858491119 Rises=F Damp=F
 DIIS: error= 4.45D-03 at cycle   4 NSaved=   4.
 NSaved= 4 IEnMin= 4 EnMin=  2.53483272339402     IErMin= 4 ErrMin= 4.45D-03
 ErrMax= 4.45D-03  0.00D+00 EMaxC= 1.00D-01 BMatC= 1.00D-03 BMatP= 1.54D-02
 IDIUse=3 WtCom= 9.55D-01 WtEn= 4.45D-02
 Coeff-Com: -0.727D-01 0.147D+00-0.396D+00 0.132D+01
 Coeff-En:   0.000D+00 0.000D+00 0.000D+00 0.100D+01
 Coeff:     -0.695D-01 0.140D+00-0.378D+00 0.131D+01
 Gap=     0.395 Goal=   None    Shift=    0.000
 RMSDP=3.71D-03 MaxDP=2.17D-02 DE=-6.19D-02 OVMax= 3.64D-02

 Cycle   5  Pass 1  IDiag  3:
 E=  2.53037245049629     Delta-E=       -0.004460272898 Rises=F Damp=F
 DIIS: error= 1.16D-03 at cycle   5 NSaved=   5.
 NSaved= 5 IEnMin= 5 EnMin=  2.53037245049629     IErMin= 5 ErrMin= 1.16D-03
 ErrMax= 1.16D-03  0.00D+00 EMaxC= 1.00D-01 BMatC= 4.36D-05 BMatP= 1.00D-03
 IDIUse=3 WtCom= 9.88D-01 WtEn= 1.16D-02
 Coeff-Com:  0.179D-01-0.329D-01 0.960D-01-0.487D+00 0.141D+01
 Coeff-En:   0.000D+00 0.000D+00 0.000D+00 0.000D+00 0.100D+01
 Coeff:      0.177D-01-0.326D-01 0.948D-01-0.482D+00 0.140D+01
 Gap=     0.396 Goal=   None    Shift=    0.000
 RMSDP=8.77D-04 MaxDP=5.43D-03 DE=-4.46D-03 OVMax= 7.02D-03

 Cycle   6  Pass 1  IDiag  3:
 E=  2.53015240839481     Delta-E=       -0.000220042101 Rises=F Damp=F
 DIIS: error= 2.08D-04 at cycle   6 NSaved=   6.
 NSaved= 6 IEnMin= 6 EnMin=  2.53015240839481     IErMin= 6 ErrMin= 2.08D-04
 ErrMax= 2.08D-04  0.00D+00 EMaxC= 1.00D-01 BMatC= 1.72D-06 BMatP= 4.36D-05
 IDIUse=3 WtCom= 9.98D-01 WtEn= 2.08D-03
 Coeff-Com: -0.166D-02 0.316D-02-0.185D-01 0.123D+00-0.521D+00 0.142D+01
 Coeff-En:   0.000D+00 0.000D+00 0.000D+00 0.000D+00 0.000D+00 0.100D+01
 Coeff:     -0.166D-02 0.315D-02-0.185D-01 0.123D+00-0.520D+00 0.141D+01
 Gap=     0.397 Goal=   None    Shift=    0.000
 RMSDP=1.76D-04 MaxDP=1.17D-03 DE=-2.20D-04 OVMax= 1.21D-03

 Cycle   7  Pass 1  IDiag  3:
 E=  2.53014437419714     Delta-E=       -0.000008034198 Rises=F Damp=F
 DIIS: error= 2.55D-05 at cycle   7 NSaved=   7.
 NSaved= 7 IEnMin= 7 EnMin=  2.53014437419714     IErMin= 7 ErrMin= 2.55D-05
 ErrMax= 2.55D-05  0.00D+00 EMaxC= 1.00D-01 BMatC= 3.98D-08 BMatP= 1.72D-06
 IDIUse=1 WtCom= 1.00D+00 WtEn= 0.00D+00
 Coeff-Com:  0.198D-03-0.384D-03 0.664D-02-0.488D-01 0.217D+00-0.652D+00
 Coeff-Com:  0.148D+01
 Coeff:      0.198D-03-0.384D-03 0.664D-02-0.488D-01 0.217D+00-0.652D+00
 Coeff:      0.148D+01
 Gap=     0.397 Goal=   None    Shift=    0.000
 RMSDP=2.46D-05 MaxDP=1.56D-04 DE=-8.03D-06 OVMax= 1.89D-04

 Cycle   8  Pass 1  IDiag  3:
 E=  2.53014419871875     Delta-E=       -0.000000175478 Rises=F Damp=F
 DIIS: error= 3.48D-06 at cycle   8 NSaved=   8.
 NSaved= 8 IEnMin= 8 EnMin=  2.53014419871875     IErMin= 8 ErrMin= 3.48D-06
 ErrMax= 3.48D-06  0.00D+00 EMaxC= 1.00D-01 BMatC= 8.43D-10 BMatP= 3.98D-08
 IDIUse=1 WtCom= 1.00D+00 WtEn= 0.00D+00
 Coeff-Com: -0.709D-05-0.204D-04-0.167D-02 0.137D-01-0.639D-01 0.195D+00
 Coeff-Com: -0.502D+00 0.136D+01
 Coeff:     -0.709D-05-0.204D-04-0.167D-02 0.137D-01-0.639D-01 0.195D+00
 Coeff:     -0.502D+00 0.136D+01
 Gap=     0.397 Goal=   None    Shift=    0.000
 RMSDP=3.37D-06 MaxDP=2.10D-05 DE=-1.75D-07 OVMax= 2.46D-05

 Cycle   9  Pass 1  IDiag  3:
 E=  2.53014419522046     Delta-E=       -0.000000003498 Rises=F Damp=F
 DIIS: error= 1.03D-06 at cycle   9 NSaved=   9.
 NSaved= 9 IEnMin= 9 EnMin=  2.53014419522046     IErMin= 9 ErrMin= 1.03D-06
 ErrMax= 1.03D-06  0.00D+00 EMaxC= 1.00D-01 BMatC= 2.57D-11 BMatP= 8.43D-10
 IDIUse=1 WtCom= 1.00D+00 WtEn= 0.00D+00
 Coeff-Com:  0.372D-05 0.107D-05 0.153D-03-0.127D-02 0.601D-02-0.174D-01
 Coeff-Com:  0.431D-01-0.210D+00 0.118D+01
 Coeff:      0.372D-05 0.107D-05 0.153D-03-0.127D-02 0.601D-02-0.174D-01
 Coeff:      0.431D-01-0.210D+00 0.118D+01
 Gap=     0.397 Goal=   None    Shift=    0.000
 RMSDP=5.88D-07 MaxDP=3.62D-06 DE=-3.50D-09 OVMax= 3.45D-06

 Cycle  10  Pass 1  IDiag  3:
 E=  2.53014419510130     Delta-E=       -0.000000000119 Rises=F Damp=F
 DIIS: error= 2.75D-07 at cycle  10 NSaved=  10.
 NSaved=10 IEnMin=10 EnMin=  2.53014419510130     IErMin=10 ErrMin= 2.75D-07
 ErrMax= 2.75D-07  0.00D+00 EMaxC= 1.00D-01 BMatC= 2.40D-12 BMatP= 2.57D-11
 IDIUse=1 WtCom= 1.00D+00 WtEn= 0.00D+00
 Coeff-Com:  0.462D-06-0.242D-05-0.161D-04 0.121D-03-0.568D-03 0.113D-02
 Coeff-Com: -0.190D-02 0.371D-01-0.505D+00 0.147D+01
 Coeff:      0.462D-06-0.242D-05-0.161D-04 0.121D-03-0.568D-03 0.113D-02
 Coeff:     -0.190D-02 0.371D-01-0.505D+00 0.147D+01
 Gap=     0.397 Goal=   None    Shift=    0.000
 RMSDP=2.28D-07 MaxDP=1.57D-06 DE=-1.19D-10 OVMax= 1.56D-06

 Cycle  11  Pass 1  IDiag  3:
 E=  2.53014419508774     Delta-E=       -0.000000000014 Rises=F Damp=F
 DIIS: error= 7.80D-08 at cycle  11 NSaved=  11.
 NSaved=11 IEnMin=11 EnMin=  2.53014419508774     IErMin=11 ErrMin= 7.80D-08
 ErrMax= 7.80D-08  0.00D+00 EMaxC= 1.00D-01 BMatC= 1.32D-13 BMatP= 2.40D-12
 IDIUse=1 WtCom= 1.00D+00 WtEn= 0.00D+00
 Coeff-Com: -0.484D-06 0.985D-06-0.117D-05 0.239D-04-0.132D-03 0.683D-03
 Coeff-Com: -0.219D-02-0.465D-02 0.173D+00-0.704D+00 0.154D+01
 Coeff:     -0.484D-06 0.985D-06-0.117D-05 0.239D-04-0.132D-03 0.683D-03
 Coeff:     -0.219D-02-0.465D-02 0.173D+00-0.704D+00 0.154D+01
 Gap=     0.397 Goal=   None    Shift=    0.000
 RMSDP=6.09D-08 MaxDP=4.37D-07 DE=-1.36D-11 OVMax= 3.66D-07

 Cycle  12  Pass 1  IDiag  3:
 E=  2.53014419508682     Delta-E=       -0.000000000001 Rises=F Damp=F
 DIIS: error= 1.24D-08 at cycle  12 NSaved=  12.
 NSaved=12 IEnMin=12 EnMin=  2.53014419508682     IErMin=12 ErrMin= 1.24D-08
 ErrMax= 1.24D-08  0.00D+00 EMaxC= 1.00D-01 BMatC= 3.62D-15 BMatP= 1.32D-13
 IDIUse=1 WtCom= 1.00D+00 WtEn= 0.00D+00
 Coeff-Com:  0.266D-07-0.379D-07 0.860D-06-0.164D-04 0.897D-04-0.401D-03
 Coeff-Com:  0.124D-02 0.101D-02-0.703D-01 0.299D+00-0.734D+00 0.150D+01
 Coeff:      0.266D-07-0.379D-07 0.860D-06-0.164D-04 0.897D-04-0.401D-03
 Coeff:      0.124D-02 0.101D-02-0.703D-01 0.299D+00-0.734D+00 0.150D+01
 Gap=     0.397 Goal=   None    Shift=    0.000
 RMSDP=9.49D-09 MaxDP=8.69D-08 DE=-9.24D-13 OVMax= 1.00D-07

 Cycle  13  Pass 2  IDiag  1:
 SCF Done:  E(RAM1) =   2.53014419509     A.U. after   13 cycles
            NFock= 12  Conv=0.95D-08     -V/T= 1.1680
 KE=-1.505602103986D+01 PE=-1.689204131668D+02 EE= 8.254386370797D+01
 Leave Link  502 at Tue Dec 15 17:06:25 2015, MaxMem=    33554432 cpu:         0.0
 (Enter /home/Applications/g09/g09/l801.exe)
 Range of M.O.s used for correlation:     1    24
 NBasis=    24 NAE=    13 NBE=    13 NFC=     0 NFV=     0
 NROrb=     24 NOA=    13 NOB=    13 NVA=    11 NVB=    11
 Leave Link  801 at Tue Dec 15 17:06:25 2015, MaxMem=    33554432 cpu:         0.0
 (Enter /home/Applications/g09/g09/l914.exe)
 RHF ground state
 MDV=    33554432 DFT=F DoStab=F Mixed=F DoRPA=F DoScal=F NonHer=F
 Making orbital integer symmetry assigments:
 Orbital symmetries:
       Occupied  (A) (A) (A) (A) (A) (A) (A) (A) (A) (A) (A) (A)
                 (A)
       Virtual   (A) (A) (A) (A) (A) (A) (A) (A) (A) (A) (A)
    60 initial guesses have been made.
 Convergence on wavefunction:    0.000001000000000
 Davidson Disk Diagonalization:  ConvIn= 1.00D-06 SkipCon=T Conv= 1.00D-06.
 Max sub-space:   240 roots to seek:    60 dimension of matrix:          286
 Iteration     1 Dimension    60 NMult     0 NNew     60
 CISAX will form    60 AO SS matrices at one time.
 NMat=    60 NSing=    60 JSym2X= 0.
 FoFJK:  IHMeth= 8 ICntrl=       0 DoSepK=F KAlg= 0 I1Cent=   0 FoldK=F
 IRaf=         1 NMat= 120 IRICut=       1 DoRegI=T DoRafI=F ISym2E= 0.
 FoFCou: FMM=F IPFlag=           0 FMFlag=      100000 FMFlg1=           0
         NFxFlg=           0 DoJE=F BraDBF=F KetDBF=F FulRan=T
         wScrn=  0.000000 ICntrl=       0 IOpCl=  0 I1Cent=           0 NGrid=           0
         NMat0=  120 NMatS0=     60 NMatT0=    0 NMatD0=  120 NMtDS0=    0 NMtDT0=    0
 Symmetry not used in FoFCou.
 New state      3 was old state      4
 New state      4 was old state      3
 New state      5 was old state      8
 New state      6 was old state      7
 New state      7 was old state      5
 New state      8 was old state      6
 New state     10 was old state     11
 New state     11 was old state     10
 New state     15 was old state     22
 Excitation Energies [eV] at current iteration:
 Root      1 :     5.310466757321125
 Root      2 :     6.432678025323035
 Root      3 :     6.647111314728653
 Root      4 :     6.683578720651191
 Root      5 :     7.719737758849550
 Root      6 :     7.935635871356820
 Root      7 :     8.449523353379979
 Root      8 :     8.777463568971969
 Root      9 :     8.977442514893827
 Root     10 :     9.397614929447917
 Root     11 :     9.486228143499282
 Root     12 :     9.788906479062861
 Root     13 :     9.835266601940752
 Root     14 :     9.894058252933361
 Root     15 :     9.985264637652833
 Root     16 :    10.239720390273430
 Root     17 :    10.421698028651870
 Root     18 :    10.584059975632370
 Root     19 :    10.927744867251890
 Root     20 :    11.330834486916140
 Root     21 :    11.502524168223180
 Root     22 :    11.743642828439230
 Root     23 :    11.839549935632310
 Root     24 :    11.870649397962570
 Root     25 :    12.126515571364150
 Root     26 :    12.481478063662430
 Root     27 :    12.671905568773920
 Root     28 :    12.679941572579690
 Root     29 :    12.808100531185080
 Root     30 :    12.896266360168640
 Root     31 :    12.972771331862700
 Root     32 :    13.214336463464400
 Root     33 :    13.316033911573260
 Root     34 :    13.518366420380640
 Root     35 :    13.556829052912880
 Root     36 :    13.618060602848030
 Root     37 :    14.034800049599820
 Root     38 :    14.158773273223980
 Root     39 :    14.252830035646090
 Root     40 :    14.330879980934910
 Root     41 :    14.475327174759040
 Root     42 :    14.544450571948240
 Root     43 :    14.717477069441730
 Root     44 :    14.863881306486360
 Root     45 :    14.894130658468300
 Root     46 :    15.353088071369420
 Root     47 :    15.754761158027260
 Root     48 :    15.812271585969600
 Root     49 :    15.921810918753790
 Root     50 :    16.177006743234930
 Root     51 :    16.225228699208600
 Root     52 :    16.370973019565600
 Root     53 :    16.453744969311530
 Root     54 :    16.862279844296670
 Root     55 :    16.904676837420940
 Root     56 :    17.492777389407830
 Root     57 :    17.626906944766180
 Root     58 :    17.640362172532300
 Root     59 :    17.785360508864410
 Root     60 :    17.879678630093910
 Iteration     2 Dimension   120 NMult    60 NNew     60
 CISAX will form    60 AO SS matrices at one time.
 NMat=    60 NSing=    60 JSym2X= 0.
 Root      1 not converged, maximum delta is    0.022282806552489
 Root      2 not converged, maximum delta is    0.026101933587058
 Root      3 not converged, maximum delta is    0.183242615962352
 Root      4 not converged, maximum delta is    0.194025657618596
 Root      5 not converged, maximum delta is    0.028453827085479
 Root      6 not converged, maximum delta is    0.016278549205071
 Root      7 not converged, maximum delta is    0.020189501385407
 Root      8 not converged, maximum delta is    0.017115610163804
 Root      9 not converged, maximum delta is    0.032223208298372
 New state     10 was old state     11
 Root     10 not converged, maximum delta is    0.087602931692403
 New state     11 was old state     10
 Root     11 not converged, maximum delta is    0.051012689688917
 Root     12 not converged, maximum delta is    0.164365358851936
 New state     13 was old state     15
 Root     13 not converged, maximum delta is    0.298358940038206
 New state     14 was old state     13
 Root     14 not converged, maximum delta is    0.136373755090744
 New state     15 was old state     14
 Root     15 not converged, maximum delta is    0.182080300377489
 Excitation Energies [eV] at current iteration:
 Root      1 :     5.236849201328850   Change is   -0.073617555992275
 Root      2 :     6.404668126946979   Change is   -0.028009898376056
 Root      3 :     6.629773103511224   Change is   -0.017338211217430
 Root      4 :     6.648400853310111   Change is   -0.035177867341080
 Root      5 :     7.684092231380279   Change is   -0.035645527469271
 Root      6 :     7.920173351924283   Change is   -0.015462519432538
 Root      7 :     8.429041472822904   Change is   -0.020481880557074
 Root      8 :     8.751449164242088   Change is   -0.026014404729883
 Root      9 :     8.943956827626131   Change is   -0.033485687267696
 Root     10 :     9.317568067174657   Change is   -0.168660076324626
 Root     11 :     9.356409113246420   Change is   -0.041205816201497
 Root     12 :     9.735160656720160   Change is   -0.053745822342700
 Root     13 :     9.785860927907949   Change is   -0.199403709744884
 Root     14 :     9.810988917380527   Change is   -0.024277684560226
 Root     15 :     9.866849904150882   Change is   -0.027208348782477
 Root     16 :    10.194716312643410   Change is   -0.045004077630026
 Root     17 :    10.339126221545620   Change is   -0.082571807106250
 Root     18 :    10.451411472142550   Change is   -0.132648503489817
 Root     19 :    10.734022518184870   Change is   -0.193722349067025
 Root     20 :    11.052861306561510   Change is   -0.277973180354638
 Root     21 :    11.283368274672530   Change is   -0.219155893550646
 Root     22 :    11.446372475992100   Change is   -0.297270352447129
 Root     23 :    11.745509306813230   Change is   -0.094040628819074
 Root     24 :    11.828462471714690   Change is   -0.042186926247875
 Root     25 :    11.953878365043010   Change is   -0.172637206321137
 Root     26 :    12.275044623362760   Change is   -0.206433440299669
 Root     27 :    12.498425497572710   Change is   -0.173480071201210
 Root     28 :    12.594442988808190   Change is   -0.085498583771500
 Root     29 :    12.703477546487650   Change is   -0.192788813680998
 Root     30 :    12.751554242174660   Change is   -0.056546289010415
 Root     31 :    12.874464390251540   Change is   -0.098306941611152
 Root     32 :    12.939365995594060   Change is   -0.274970467870338
 Root     33 :    13.011573710250610   Change is   -0.304460201322649
 Root     34 :    13.184673127302850   Change is   -0.333693293077792
 Root     35 :    13.321613717108420   Change is   -0.296446885739607
 Root     36 :    13.437655005738150   Change is   -0.119174047174726
 Root     37 :    13.780190632239470   Change is   -0.254609417360348
 Root     38 :    14.093779719702310   Change is   -0.064993553521678
 Root     39 :    14.147748074017540   Change is   -0.105081961628545
 Root     40 :    14.173889877295090   Change is   -0.156990103639822
 Root     41 :    14.361549336010240   Change is   -0.113777838748801
 Root     42 :    14.415694440863440   Change is   -0.128756131084799
 Root     43 :    14.665756371188240   Change is   -0.051720698253496
 Root     44 :    14.736304021692690   Change is   -0.127577284793664
 Root     45 :    14.744986454496030   Change is   -0.149144203972265
 Root     46 :    14.786392197226970   Change is   -0.566695874142448
 Root     47 :    15.475764988852080   Change is   -0.278996169175172
 Root     48 :    15.587568121863070   Change is   -0.224703464106534
 Root     49 :    15.855030878424720   Change is   -0.066780040329070
 Root     50 :    15.962272411154610   Change is   -0.214734332080320
 Root     51 :    16.052890111442010   Change is   -0.172338587766586
 Root     52 :    16.163003068144920   Change is   -0.207969951420686
 Root     53 :    16.243549604750610   Change is   -0.618730239546062
 Root     54 :    16.327905833392040   Change is   -0.125839135919482
 Root     55 :    16.689797216525090   Change is   -0.214879620895852
 Root     56 :    17.282179177768290   Change is   -0.210598211639537
 Root     57 :    17.329572811445480   Change is   -0.297334133320690
 Root     58 :    17.554708183509400   Change is   -0.324970446584508
 Root     59 :    17.611430369430410   Change is   -0.028931803101889
 Root     60 :    17.628144767810090   Change is   -0.157215741054321
 Iteration     3 Dimension   135 NMult   120 NNew     15
 CISAX will form    15 AO SS matrices at one time.
 NMat=    15 NSing=    15 JSym2X= 0.
 Root      1 not converged, maximum delta is    0.001309908882727
 Root      2 not converged, maximum delta is    0.000092673072801
 Root      3 not converged, maximum delta is    0.000068706065256
 Root      4 not converged, maximum delta is    0.000075620252913
 Root      5 not converged, maximum delta is    0.000065661945223
 Root      6 not converged, maximum delta is    0.000142991135094
 Root      7 not converged, maximum delta is    0.000141110620789
 Root      8 not converged, maximum delta is    0.000751118910551
 Root      9 not converged, maximum delta is    0.000079711228037
 Root     10 not converged, maximum delta is    0.002168456980432
 Root     11 not converged, maximum delta is    0.000449190904260
 Root     12 not converged, maximum delta is    0.000898042855685
 Root     13 not converged, maximum delta is    0.002953043472438
 Root     14 not converged, maximum delta is    0.002063520135790
 Root     15 not converged, maximum delta is    0.000438704791061
 Excitation Energies [eV] at current iteration:
 Root      1 :     5.236608727557001   Change is   -0.000240473771849
 Root      2 :     6.404665344411358   Change is   -0.000002782535621
 Root      3 :     6.629771522485561   Change is   -0.000001581025662
 Root      4 :     6.648399320049331   Change is   -0.000001533260781
 Root      5 :     7.684090889904219   Change is   -0.000001341476060
 Root      6 :     7.920169237998075   Change is   -0.000004113926208
 Root      7 :     8.429035972533272   Change is   -0.000005500289632
 Root      8 :     8.751368567328983   Change is   -0.000080596913104
 Root      9 :     8.943954291159985   Change is   -0.000002536466146
 Root     10 :     9.316577298876664   Change is   -0.000990768297993
 Root     11 :     9.356405338877407   Change is   -0.000003774369013
 Root     12 :     9.734979363432648   Change is   -0.000181293287511
 Root     13 :     9.785348646650171   Change is   -0.000512281257779
 Root     14 :     9.810906812690929   Change is   -0.000082104689598
 Root     15 :     9.866810386316939   Change is   -0.000039517833945
 Iteration     4 Dimension   143 NMult   135 NNew      8
 CISAX will form     8 AO SS matrices at one time.
 NMat=     8 NSing=     8 JSym2X= 0.
 Root      1 not converged, maximum delta is    0.000035899300104
 Root      2 not converged, maximum delta is    0.000003985960562
 Root      3 not converged, maximum delta is    0.000001689303011
 Root      4 not converged, maximum delta is    0.000003495355228
 Root      5 not converged, maximum delta is    0.000001810245568
 Root      6 not converged, maximum delta is    0.000006119662782
 Root      7 not converged, maximum delta is    0.000004036450766
 Root      8 not converged, maximum delta is    0.000016937657618
 Root      9 not converged, maximum delta is    0.000004653319191
 Root     10 not converged, maximum delta is    0.000047598202003
 Root     11 not converged, maximum delta is    0.000004631840005
 Root     12 not converged, maximum delta is    0.000042770435067
 Root     13 not converged, maximum delta is    0.000092101885417
 Root     14 not converged, maximum delta is    0.000029101810189
 Root     15 not converged, maximum delta is    0.000018996831806
 Excitation Energies [eV] at current iteration:
 Root      1 :     5.236608367089733   Change is   -0.000000360467268
 Root      2 :     6.404665339016818   Change is   -0.000000005394541
 Root      3 :     6.629771521582644   Change is   -0.000000000902918
 Root      4 :     6.648399317823786   Change is   -0.000000002225544
 Root      5 :     7.684090889079102   Change is   -0.000000000825116
 Root      6 :     7.920169233301126   Change is   -0.000000004696949
 Root      7 :     8.429035967912579   Change is   -0.000000004620694
 Root      8 :     8.751368513540404   Change is   -0.000000053788579
 Root      9 :     8.943954287055963   Change is   -0.000000004104023
 Root     10 :     9.316576720583431   Change is   -0.000000578293233
 Root     11 :     9.356405334504753   Change is   -0.000000004372654
 Root     12 :     9.734979023807957   Change is   -0.000000339624692
 Root     13 :     9.785347848906969   Change is   -0.000000797743201
 Root     14 :     9.810906745022844   Change is   -0.000000067668085
 Root     15 :     9.866810305916379   Change is   -0.000000080400559
 Convergence achieved on expansion vectors.
 ***********************************************************************
 Excited states from <AA,BB:AA,BB> singles matrix:
 ***********************************************************************
 
 1PDM for each excited state written to RWF  633
 Ground to excited state transition densities written to RWF  633
 Ground to excited state transition electric dipole moments (Au):
       state          X           Y           Z        Dip. S.      Osc.
         1        -1.5620      0.5465      0.0410      2.7402      0.3516
         2        -0.1160      0.0411      0.1123      0.0278      0.0044
         3        -0.0364     -0.0254      0.0556      0.0051      0.0008
         4        -0.0623      0.0268      0.1446      0.0255      0.0042
         5         0.0317     -0.0264     -0.0920      0.0102      0.0019
         6        -0.0954      0.0242     -0.1503      0.0323      0.0063
         7         0.0703     -0.0277     -0.1355      0.0241      0.0050
         8         0.3871      0.5743     -0.0216      0.4801      0.1029
         9        -0.0112      0.0097      0.1158      0.0136      0.0030
        10         0.3598     -0.2950      0.0060      0.2166      0.0494
        11         0.0035      0.0043     -0.2769      0.0767      0.0176
        12        -0.0387     -0.3096      0.0893      0.1053      0.0251
        13        -0.6505      0.4574      0.1774      0.6639      0.1592
        14         0.2611     -0.0458      0.3847      0.2183      0.0525
        15        -0.1214      0.1076     -0.4185      0.2014      0.0487
 Ground to excited state transition velocity dipole moments (Au):
       state          X           Y           Z        Dip. S.      Osc.
         1         0.1709     -0.0666      0.0112      0.0338      0.1170
         2         0.0193     -0.0095     -0.1548      0.0244      0.0691
         3         0.0059      0.0086     -0.0352      0.0013      0.0037
         4         0.0088     -0.0105     -0.1230      0.0153      0.0418
         5         0.0007      0.0057      0.0122      0.0002      0.0004
         6         0.0172     -0.0052     -0.0026      0.0003      0.0008
         7        -0.0096      0.0064      0.0336      0.0013      0.0027
         8        -0.1118     -0.2056      0.0063      0.0548      0.1137
         9         0.0023     -0.0017     -0.0181      0.0003      0.0007
        10        -0.0707      0.0757      0.0094      0.0108      0.0210
        11        -0.0029     -0.0036     -0.0318      0.0010      0.0020
        12        -0.0167     -0.0050      0.0061      0.0003      0.0006
        13         0.1050     -0.0737      0.0213      0.0169      0.0313
        14        -0.0400      0.0072      0.0333      0.0028      0.0051
        15         0.0239     -0.0230     -0.0256      0.0018      0.0032
 Ground to excited state transition magnetic dipole moments (Au):
       state          X           Y           Z
         1        -0.0071      0.0254     -0.5573
         2        -0.0809      0.2017     -0.0380
         3        -0.4289     -0.7813     -0.0116
         4        -0.1231      0.1988     -0.0239
         5         0.4649      0.5283     -0.0036
         6         0.7815     -0.4629     -0.0398
         7         0.4283     -0.3177      0.0273
         8         0.0067     -0.0363     -0.0001
         9        -0.0565     -0.1903     -0.0175
        10        -0.0291     -0.0212      0.1198
        11        -0.0477     -0.3041      0.0349
        12        -0.0619     -0.1739     -0.0747
        13        -0.0317     -0.0761     -0.1475
        14        -0.0703     -0.3935      0.0815
        15        -0.1582     -0.4345     -0.0039
 Ground to excited state transition velocity quadrupole moments (Au):
       state          XX          YY          ZZ          XY          XZ          YZ
         1         0.1928     -0.1900      0.0006      0.2353      0.0110      0.0133
         2         0.0458     -0.0219     -0.0054      0.0131     -0.1946     -0.0442
         3         0.0266      0.0438      0.0046      0.0086     -0.1355      0.0322
         4        -0.0042     -0.0247     -0.0054      0.0277      0.1692     -0.1712
         5        -0.0059      0.0315     -0.0009     -0.0043     -0.4186      0.1852
         6         0.0222     -0.0155      0.0044      0.0319     -0.0190     -0.1477
         7        -0.0226      0.0190     -0.0115     -0.0121      0.2275      0.1724
         8         0.1280     -0.2220      0.0146     -0.1784      0.0295     -0.0116
         9         0.0203     -0.0070      0.0031      0.0054     -0.0734      0.0276
        10        -0.2877     -0.0489     -0.0479      0.0268      0.0187      0.0030
        11        -0.0143     -0.0325      0.0109     -0.0029      0.1637     -0.0784
        12        -0.4634     -0.2128     -0.0682      0.0880     -0.0271      0.0118
        13         0.1288     -0.1845     -0.0109      0.1706     -0.0007      0.0482
        14         0.0816      0.1219      0.0297     -0.1052     -0.0235      0.0532
        15         0.1101     -0.0174      0.0039      0.0345     -0.0899     -0.0248
 <0|del|b> * <b|rxdel|0> + <0|del|b> * <b|delr+rdel|0>
 Rotatory Strengths (R) in cgs (10**-40 erg-esu-cm/Gauss)
       state          XX          YY          ZZ    R(velocity)    E-M Angle
         1        -8.3707    -14.3379    -10.8666    -11.1918       95.11
         2         0.1409      8.2754     -1.1644      2.4173       85.98
         3        -7.8786     -2.3601    -15.3482     -8.5290      105.62
         4        -1.1190      5.4551     -4.9967     -0.2202       90.45
         5         6.5942      0.5491      1.0095      2.7176       69.95
         6         2.8320     13.4955     22.5032     12.9436       14.90
         7        -3.4300     -5.0667     -3.4649     -3.9872      106.04
         8        13.6375      1.8315     -0.6986      4.9235       39.06
         9         0.4456      0.3733      0.2684      0.3624       82.02
        10        -1.6938      2.8109      2.1394      1.0855       83.04
        11         0.6918     -0.8595      0.4309      0.0877       89.26
        12         0.8000     -0.1512      2.2024      0.9504       66.88
        13         5.9494     -4.9607     -2.6869     -0.5661       92.25
        14        -3.4003      6.7620      1.8918      1.7512       82.82
        15         6.9500     -3.3052      8.6338      4.0929       71.04
 1/2[<0|r|b>*<b|rxdel|0> + (<0|rxdel|b>*<b|r|0>)*]
 Rotatory Strengths (R) in cgs (10**-40 erg-esu-cm/Gauss)
       state          XX          YY          ZZ     R(length)
         1        -7.8913     -9.8240     16.1566     -0.5196
         2        -6.6359     -5.8682      3.0212     -3.1610
         3       -11.0350    -14.0520      0.4569     -8.2100
         4        -5.4230     -3.7610      2.4466     -2.2458
         5       -10.4248      9.8654     -0.2335     -0.2643
         6        52.7060      7.9293     -4.2319     18.8012
         7       -21.2779     -6.2266      2.6125     -8.2974
         8        -1.8415     14.7536     -0.0014      4.3036
         9        -0.4490      1.3025      1.4320      0.7618
        10         7.4005     -4.4310     -0.5079      0.8205
        11         0.1177      0.9285      6.8341      2.6268
        12        -1.6961    -38.0649      4.7184    -11.6809
        13       -14.5781     24.6228     18.5064      9.5170
        14        12.9895    -12.7571    -22.1583     -7.3087
        15       -13.5895     33.0547     -1.1583      6.1023
  1/2[<0|del|b>*<b|r|0> + (<0|r|b>*<b|del|0>)*] (Au)
       state          X           Y           Z        Dip. S.   Osc.(frdel)
         1        -0.2670     -0.0364      0.0005      0.3029      0.2019
         2        -0.0022     -0.0004     -0.0174      0.0200      0.0133
         3        -0.0002     -0.0002     -0.0020      0.0024      0.0016
         4        -0.0005     -0.0003     -0.0178      0.0186      0.0124
         5         0.0000     -0.0001     -0.0011      0.0013      0.0008
         6        -0.0016     -0.0001      0.0004      0.0014      0.0009
         7        -0.0007     -0.0002     -0.0045      0.0054      0.0036
         8        -0.0433     -0.1181     -0.0001      0.1615      0.1077
         9         0.0000      0.0000     -0.0021      0.0021      0.0014
        10        -0.0254     -0.0223      0.0001      0.0477      0.0318
        11         0.0000      0.0000      0.0088     -0.0088     -0.0059
        12         0.0006      0.0015      0.0005     -0.0027     -0.0018
        13        -0.0683     -0.0337      0.0038      0.0982      0.0655
        14        -0.0105     -0.0003      0.0128     -0.0020     -0.0013
        15        -0.0029     -0.0025      0.0107     -0.0054     -0.0036

 Excitation energies and oscillator strengths:
 
 Excited State   1:      Singlet-A      5.2366 eV  236.76 nm  f=0.3516  <S**2>=0.000
      13 -> 14         0.69600
 This state for optimization and/or second-order correction.
 Total Energy, E(CIS) =   2.72258601995    
 Copying the excited state density for this state as the 1-particle RhoCI density.
 
 Excited State   2:      Singlet-A      6.4047 eV  193.58 nm  f=0.0044  <S**2>=0.000
      11 -> 15         0.11006
      13 -> 15         0.66237
      13 -> 17        -0.16190
      13 -> 19         0.10021
 
 Excited State   3:      Singlet-A      6.6298 eV  187.01 nm  f=0.0008  <S**2>=0.000
       9 -> 14         0.10961
      12 -> 14         0.65333
      13 -> 16         0.21710
 
 Excited State   4:      Singlet-A      6.6484 eV  186.49 nm  f=0.0042  <S**2>=0.000
      12 -> 14        -0.23297
      13 -> 16         0.61913
      13 -> 18         0.16693
      13 -> 19        -0.10391
 
 Excited State   5:      Singlet-A      7.6841 eV  161.35 nm  f=0.0019  <S**2>=0.000
      13 -> 15         0.13223
      13 -> 17         0.40396
      13 -> 18         0.45782
      13 -> 20         0.18243
      13 -> 21        -0.23412
 
 Excited State   6:      Singlet-A      7.9202 eV  156.54 nm  f=0.0063  <S**2>=0.000
      10 -> 14         0.68351
 
 Excited State   7:      Singlet-A      8.4290 eV  147.09 nm  f=0.0050  <S**2>=0.000
      10 -> 14        -0.11995
      11 -> 16        -0.12562
      13 -> 16         0.13801
      13 -> 17         0.52632
      13 -> 18        -0.34971
      13 -> 19        -0.10548
      13 -> 20        -0.12669
 
 Excited State   8:      Singlet-A      8.7514 eV  141.67 nm  f=0.1029  <S**2>=0.000
      11 -> 14         0.67114
      12 -> 15         0.13448
 
 Excited State   9:      Singlet-A      8.9440 eV  138.62 nm  f=0.0030  <S**2>=0.000
      13 -> 16         0.10776
      13 -> 19         0.65914
      13 -> 20        -0.10883
 
 Excited State  10:      Singlet-A      9.3166 eV  133.08 nm  f=0.0494  <S**2>=0.000
       8 -> 15        -0.11293
      10 -> 16        -0.12004
      10 -> 17         0.15213
      11 -> 14        -0.11947
      12 -> 15         0.45388
      12 -> 16        -0.23233
      12 -> 17        -0.19004
      12 -> 18        -0.26321
 
 Excited State  11:      Singlet-A      9.3564 eV  132.51 nm  f=0.0176  <S**2>=0.000
      13 -> 18        -0.32499
      13 -> 19         0.10379
      13 -> 20         0.48885
      13 -> 21        -0.34262
 
 Excited State  12:      Singlet-A      9.7350 eV  127.36 nm  f=0.0251  <S**2>=0.000
       9 -> 14         0.18378
      10 -> 15         0.20034
      10 -> 17        -0.10624
      12 -> 15         0.37542
      12 -> 16         0.42499
      12 -> 18         0.21240
 
 Excited State  13:      Singlet-A      9.7853 eV  126.70 nm  f=0.1592  <S**2>=0.000
       9 -> 14         0.11118
       9 -> 16        -0.13299
      10 -> 15        -0.17102
      10 -> 16        -0.21752
      10 -> 17         0.15798
      11 -> 16         0.10440
      12 -> 15        -0.21665
      12 -> 16         0.31612
      12 -> 17        -0.24018
      12 -> 18        -0.15950
      12 -> 19        -0.13898
      13 -> 20        -0.16900
      13 -> 21        -0.18863
 
 Excited State  14:      Singlet-A      9.8109 eV  126.37 nm  f=0.0525  <S**2>=0.000
       9 -> 14         0.44950
      10 -> 16         0.11650
      12 -> 16        -0.25832
      12 -> 17         0.10290
      13 -> 20        -0.28651
      13 -> 21        -0.29683
 
 Excited State  15:      Singlet-A      9.8668 eV  125.66 nm  f=0.0487  <S**2>=0.000
       9 -> 14         0.46561
      13 -> 20         0.25207
      13 -> 21         0.41463
 SavETr:  write IOETrn=   770 NScale= 10 NData=  16 NLR=1 NState=   15 LETran=     280.
 The selected state is a singlet
 CISAX will form     1 AO SS matrices at one time.
 NMat=     1 NSing=     1 JSym2X= 0.
 Leave Link  914 at Tue Dec 15 17:06:26 2015, MaxMem=    33554432 cpu:         0.1
 (Enter /home/Applications/g09/g09/l1002.exe)
 Minotr:  Closed shell wavefunction.
          Computing CIS/TD-HF/TD-KS derivatives.
          Using Z-Vector for PSCF gradient.
          Skipping F1 and S1 gradient terms here.
          IDoAtm=111111111
          Direct CPHF calculation.
          Differentiating once with respect to electric field.
                with respect to dipole field.
          Differentiating once with respect to nuclear coordinates.
          Electric field/nuclear overlap derivatives assumed to be zero.
          Requested convergence is 1.0D-10 RMS, and 1.0D-09 maximum.
          NewPWx=T KeepS1=F KeepF1=F KeepIn=T MapXYZ=F SortEE=F KeepMc=T.
          MDV=      33495423 using IRadAn=       0.
 Keep J ints in memory in canonical form, NReq=871704.
 FoFCou: FMM=F IPFlag=           0 FMFlag=           0 FMFlg1=           0
         NFxFlg=           0 DoJE=F BraDBF=F KetDBF=F FulRan=T
         wScrn=  0.000000 ICntrl=     600 IOpCl=  2 I1Cent=           0 NGrid=           0
         NMat0=    1 NMatS0=     54 NMatT0=    0 NMatD0=    1 NMtDS0=    0 NMtDT0=    0
 Symmetry not used in FoFCou.
          Solving linear equations separately, MaxMat=       0.
          There are     1 degrees of freedom in the 1st order CPHF.  IDoFFX=0 NUNeed=     1.
 LinEq1:  Iter=  0 NonCon=     1 RMS=6.84D-03 Max=4.21D-02 NDo=     1
 AX will form     1 AO Fock derivatives at one time.
 LinEq1:  Iter=  1 NonCon=     1 RMS=6.80D-04 Max=2.17D-03 NDo=     1
 LinEq1:  Iter=  2 NonCon=     1 RMS=1.12D-04 Max=9.44D-04 NDo=     1
 LinEq1:  Iter=  3 NonCon=     1 RMS=1.34D-05 Max=4.22D-05 NDo=     1
 LinEq1:  Iter=  4 NonCon=     1 RMS=1.95D-06 Max=7.04D-06 NDo=     1
 LinEq1:  Iter=  5 NonCon=     1 RMS=2.16D-07 Max=7.54D-07 NDo=     1
 LinEq1:  Iter=  6 NonCon=     1 RMS=3.09D-08 Max=1.03D-07 NDo=     1
 LinEq1:  Iter=  7 NonCon=     1 RMS=3.49D-09 Max=9.91D-09 NDo=     1
 LinEq1:  Iter=  8 NonCon=     1 RMS=4.18D-10 Max=1.63D-09 NDo=     1
 LinEq1:  Iter=  9 NonCon=     0 RMS=4.90D-11 Max=2.08D-10 NDo=     1
 Linear equations converged to 1.000D-10 1.000D-09 after     9 iterations.
 End of Minotr F.D. properties file   721 does not exist.
 End of Minotr F.D. properties file   722 does not exist.
 End of Minotr F.D. properties file   788 does not exist.
 Leave Link 1002 at Tue Dec 15 17:06:26 2015, MaxMem=    33554432 cpu:         0.0
 (Enter /home/Applications/g09/g09/l601.exe)
 Copying SCF densities to generalized density rwf, IOpCl= 0 IROHF=0.

 **********************************************************************

            Population analysis using the SCF density.

 **********************************************************************

 Orbital symmetries:
       Occupied  (A) (A) (A) (A) (A) (A) (A) (A) (A) (A) (A) (A)
                 (A)
       Virtual   (A) (A) (A) (A) (A) (A) (A) (A) (A) (A) (A)
 The electronic state is 1-A.
 Alpha  occ. eigenvalues --   -1.74890  -1.15639  -0.96514  -0.81353  -0.76971
 Alpha  occ. eigenvalues --   -0.67653  -0.65128  -0.56429  -0.50038  -0.45140
 Alpha  occ. eigenvalues --   -0.44652  -0.40787  -0.29240
 Alpha virt. eigenvalues --    0.10407   0.17293   0.18861   0.25167   0.26545
 Alpha virt. eigenvalues --    0.28627   0.29862   0.31567   0.40189   0.48949
 Alpha virt. eigenvalues --    0.54356
     Molecular Orbital Coefficients:
                           1         2         3         4         5
                           O         O         O         O         O
     Eigenvalues --    -1.74890  -1.15639  -0.96514  -0.81353  -0.76971
   1 1   C  1S          0.12101   0.50289  -0.20104  -0.29182  -0.10744
   2        1PX        -0.10540  -0.15934  -0.14704  -0.24137   0.12509
   3        1PY        -0.10039  -0.04763   0.18570   0.00518  -0.35437
   4        1PZ         0.00055   0.00620  -0.00540  -0.00687   0.00670
   5 2   C  1S          0.28912   0.22874  -0.50932   0.13318   0.37396
   6        1PX        -0.28610   0.01641  -0.02479  -0.31623   0.20625
   7        1PY        -0.03206   0.34670   0.10001  -0.40304  -0.10214
   8        1PZ        -0.00385   0.00163  -0.00185  -0.00785   0.01887
   9 3   O  1S          0.75705  -0.34197  -0.03211  -0.04893  -0.24360
  10        1PX         0.02278   0.04978  -0.23557   0.26999   0.00234
  11        1PY         0.08323   0.13317   0.08931  -0.04458   0.08860
  12        1PZ         0.00355   0.00160  -0.00117  -0.00442   0.00836
  13 4   C  1S          0.29066   0.14309   0.53272  -0.08567   0.40724
  14        1PX         0.22980   0.16574  -0.01474   0.00681  -0.21870
  15        1PY        -0.18540   0.26616  -0.02391   0.51706  -0.02608
  16        1PZ        -0.01567  -0.00222  -0.03010   0.01014  -0.00794
  17 5   C  1S          0.12487   0.45057   0.26198   0.27641  -0.14629
  18        1PX         0.02681   0.14458  -0.20639  -0.21652  -0.27304
  19        1PY        -0.14570  -0.11966  -0.07674   0.04679  -0.22643
  20        1PZ        -0.00184  -0.00191  -0.00581  -0.00134   0.01048
  21 6   H  1S          0.01113   0.14055   0.11837   0.18515  -0.13385
  22 7   H  1S          0.05869   0.00681   0.26111  -0.04565   0.31988
  23 8   H  1S          0.06256   0.02744  -0.27145   0.06806   0.30322
  24 9   H  1S          0.01286   0.17850  -0.10202  -0.24014  -0.11316
                           6         7         8         9        10
                           O         O         O         O         O
     Eigenvalues --    -0.67653  -0.65128  -0.56429  -0.50038  -0.45140
   1 1   C  1S         -0.18769   0.00316  -0.12765  -0.02054   0.08416
   2        1PX        -0.18398   0.01594   0.01120   0.26148   0.32326
   3        1PY        -0.26476   0.05932   0.04202  -0.29170   0.38883
   4        1PZ         0.03142   0.38666  -0.02880   0.01163  -0.02685
   5 2   C  1S         -0.03447  -0.01666  -0.06370  -0.12004  -0.08802
   6        1PX        -0.28483   0.04619   0.52812   0.23541  -0.15180
   7        1PY         0.20832  -0.05252  -0.23700   0.41306  -0.29790
   8        1PZ         0.04513   0.58427  -0.01188  -0.02049  -0.11874
   9 3   O  1S         -0.24322   0.02258  -0.00661   0.35065  -0.04908
  10        1PX         0.03658  -0.01543  -0.15086  -0.02940   0.08572
  11        1PY         0.21666  -0.02365   0.04839  -0.14370   0.02755
  12        1PZ         0.03335   0.23855  -0.01287  -0.01408  -0.00935
  13 4   C  1S         -0.04259   0.03260   0.06320  -0.12189   0.13657
  14        1PX         0.39166   0.01653   0.58985   0.02243   0.14563
  15        1PY        -0.08209  -0.00575  -0.07470   0.50654   0.25469
  16        1PZ         0.06946   0.54374  -0.07755   0.04499   0.06569
  17 5   C  1S         -0.21967   0.04353   0.15216  -0.03164  -0.11018
  18        1PX         0.03627  -0.00156  -0.08505  -0.38267  -0.06057
  19        1PY        -0.32987   0.03170   0.00072  -0.10983  -0.40199
  20        1PZ         0.04838   0.36939  -0.04229   0.03887   0.04306
  21 6   H  1S         -0.31068   0.03147   0.10143  -0.01346  -0.34297
  22 7   H  1S         -0.25006  -0.00199  -0.32403  -0.09284  -0.02140
  23 8   H  1S         -0.22649   0.05312   0.32066  -0.12908  -0.00963
  24 9   H  1S         -0.29273   0.04217  -0.05111   0.00315   0.43104
                          11        12        13        14        15
                           O         O         O         V         V
     Eigenvalues --    -0.44652  -0.40787  -0.29240   0.10407   0.17293
   1 1   C  1S         -0.00726  -0.06774  -0.01529  -0.01419  -0.11784
   2        1PX        -0.04228   0.44073  -0.01688  -0.00955  -0.06534
   3        1PY        -0.03817  -0.05025  -0.00953  -0.01463   0.28402
   4        1PZ        -0.22894   0.00587   0.56505   0.68810   0.02036
   5 2   C  1S          0.02029   0.16035   0.01234   0.00173  -0.16212
   6        1PX         0.04755  -0.32742   0.00920   0.01415  -0.27532
   7        1PY         0.00567   0.08070  -0.00647  -0.01500   0.44865
   8        1PZ        -0.63229   0.00813  -0.38121  -0.22305  -0.03012
   9 3   O  1S         -0.00872  -0.18310  -0.00872  -0.00078   0.01592
  10        1PX        -0.01563   0.05164  -0.00303   0.00132  -0.00788
  11        1PY        -0.00088   0.18499   0.01021  -0.00603   0.09987
  12        1PZ         0.02409   0.01506  -0.19066  -0.01010  -0.01212
  13 4   C  1S          0.02530   0.09758  -0.00282  -0.00334  -0.01932
  14        1PX        -0.00018   0.22475   0.00597  -0.01424  -0.00963
  15        1PY        -0.07819  -0.19388  -0.01351  -0.01624   0.05586
  16        1PZ         0.69681  -0.01497  -0.33135   0.20191   0.01280
  17 5   C  1S          0.03246  -0.06780   0.00725   0.00716  -0.10824
  18        1PX         0.01026  -0.37868   0.02004  -0.00936  -0.09528
  19        1PY         0.07019   0.37549   0.03969  -0.04476   0.08881
  20        1PZ         0.18825  -0.01398   0.62111  -0.65646  -0.01862
  21 6   H  1S          0.06334   0.34702   0.00491   0.01637  -0.07231
  22 7   H  1S         -0.00204  -0.10675   0.00439  -0.01577   0.00845
  23 8   H  1S          0.00995  -0.14600  -0.00437  -0.02116   0.73932
  24 9   H  1S         -0.05442   0.21981  -0.00845   0.02014  -0.03703
                          16        17        18        19        20
                           V         V         V         V         V
     Eigenvalues --     0.18861   0.25167   0.26545   0.28627   0.29862
   1 1   C  1S         -0.08458  -0.05025  -0.03502  -0.02165   0.04578
   2        1PX         0.13842   0.09385   0.53087  -0.00402   0.38487
   3        1PY         0.01257  -0.30461   0.11525   0.55939  -0.09967
   4        1PZ         0.01613  -0.01415   0.01052   0.00128   0.00676
   5 2   C  1S          0.01059  -0.30871   0.02656   0.38101  -0.09109
   6        1PX         0.06999  -0.12598  -0.05324   0.15152  -0.13643
   7        1PY         0.01860  -0.09307   0.05008   0.17169  -0.03237
   8        1PZ        -0.00496  -0.00247  -0.00076   0.00221  -0.00776
   9 3   O  1S          0.02092  -0.02804   0.01711   0.00706  -0.04296
  10        1PX         0.06505   0.01922   0.01614  -0.01703  -0.02924
  11        1PY         0.09132   0.02539  -0.00437   0.01600  -0.09988
  12        1PZ         0.00853  -0.00389  -0.00572   0.00213   0.01541
  13 4   C  1S         -0.08342  -0.29621   0.27979  -0.29467  -0.27557
  14        1PX         0.46196   0.03074  -0.13302   0.03566   0.01491
  15        1PY         0.24993  -0.13106   0.14476  -0.15969  -0.26039
  16        1PZ         0.02083  -0.00089  -0.00296   0.00041  -0.00302
  17 5   C  1S         -0.15820  -0.00199   0.00939  -0.02723   0.63183
  18        1PX         0.30245   0.11330   0.47460  -0.27175  -0.11413
  19        1PY         0.27121  -0.49911  -0.11475  -0.35040   0.00687
  20        1PZ        -0.03492   0.03438  -0.00545   0.01927  -0.00474
  21 6   H  1S         -0.05629   0.53334   0.23082   0.20817  -0.40895
  22 7   H  1S          0.67984   0.22589  -0.25909   0.17431   0.14649
  23 8   H  1S         -0.05340   0.19306   0.02555  -0.17216   0.07929
  24 9   H  1S         -0.10977   0.17964  -0.46944  -0.27144  -0.21817
                          21        22        23        24
                           V         V         V         V
     Eigenvalues --     0.31567   0.40189   0.48949   0.54356
   1 1   C  1S          0.70598  -0.01345   0.06916  -0.02216
   2        1PX        -0.01860  -0.00837   0.04007  -0.01586
   3        1PY        -0.01497   0.00157   0.01406   0.03797
   4        1PZ         0.02602   0.02720   0.00280  -0.00114
   5 2   C  1S         -0.26309   0.00095  -0.14483  -0.16457
   6        1PX        -0.10498   0.00270   0.20325   0.17614
   7        1PY        -0.23427   0.01722  -0.07981   0.15006
   8        1PZ        -0.00779  -0.21309  -0.00332   0.00867
   9 3   O  1S         -0.02868   0.00150   0.15453  -0.00653
  10        1PX        -0.00715   0.00523   0.26799   0.86901
  11        1PY        -0.06949  -0.05177   0.86240  -0.26734
  12        1PZ         0.01113   0.94911   0.04835  -0.01975
  13 4   C  1S          0.02362   0.00277  -0.13671   0.17922
  14        1PX         0.09670  -0.00343  -0.22107   0.07556
  15        1PY         0.01379   0.01550   0.02836  -0.22355
  16        1PZ        -0.00332  -0.22084   0.00175  -0.01118
  17 5   C  1S         -0.28512  -0.00904   0.06577   0.01620
  18        1PX        -0.28946   0.00851  -0.03511  -0.03304
  19        1PY         0.05687  -0.00601   0.04350  -0.02026
  20        1PZ        -0.00252   0.01920   0.00205   0.00183
  21 6   H  1S          0.06685   0.00786  -0.04815   0.00485
  22 7   H  1S          0.03977  -0.00472  -0.04065   0.01197
  23 8   H  1S          0.07149   0.00535  -0.03019  -0.01204
  24 9   H  1S         -0.41199   0.00885  -0.04768  -0.00439
     Density Matrix:
                           1         2         3         4         5
   1 1   C  1S          0.93714
   2        1PX         0.03874   1.07087
   3        1PY         0.10038   0.04892   0.97634
   4        1PZ        -0.01064  -0.00121  -0.00226   1.04813
   5 2   C  1S          0.34355   0.07545  -0.53805   0.00892   1.21370
   6        1PX         0.07802   0.11676  -0.12839  -0.00692  -0.24447
   7        1PY         0.46195   0.04652  -0.53875   0.01013  -0.14875
   8        1PZ        -0.00765  -0.00288   0.00523   0.32044  -0.01527
   9 3   O  1S          0.02875   0.00286  -0.05179  -0.00031   0.00081
  10        1PX         0.02587  -0.01148  -0.04967  -0.00238   0.37460
  11        1PY         0.01650  -0.01650  -0.08641   0.00440   0.14134
  12        1PZ        -0.00156   0.00262   0.00351  -0.03862   0.00658
  13 4   C  1S         -0.02289   0.00635   0.03370  -0.00192   0.00392
  14        1PX        -0.03328   0.01851   0.00929   0.00504   0.00045
  15        1PY         0.03600  -0.00075  -0.00840   0.00696  -0.05963
  16        1PZ         0.01028   0.00109  -0.00141  -0.26683  -0.00274
  17 5   C  1S          0.28331  -0.48189   0.20711   0.00594  -0.02327
  18        1PX         0.48408  -0.54473   0.28197   0.01719   0.02039
  19        1PY        -0.09583   0.14096   0.05923   0.03540   0.02526
  20        1PZ        -0.02071  -0.00204  -0.00838   0.90548   0.00278
  21 6   H  1S          0.00283  -0.01564   0.00323  -0.00616   0.08440
  22 7   H  1S          0.06512  -0.06103   0.01062   0.00729   0.04859
  23 8   H  1S          0.07394  -0.01000  -0.09520   0.00115   0.52930
  24 9   H  1S          0.55503   0.64490   0.49154   0.01715   0.06114
                           6         7         8         9        10
   6        1PX         1.55092
   7        1PY         0.09618   1.34475
   8        1PZ        -0.01525   0.01943   1.80738
   9 3   O  1S         -0.07979  -0.01408   0.00134   1.94318
  10        1PX        -0.42634  -0.21096  -0.01067  -0.07611   0.33371
  11        1PY        -0.25449   0.08711  -0.01005  -0.28809  -0.01446
  12        1PZ        -0.02110  -0.00345   0.40037  -0.01613  -0.00133
  13 4   C  1S         -0.03223  -0.04411  -0.00997   0.00434  -0.25116
  14        1PX         0.00085  -0.01375  -0.00506   0.06287  -0.06643
  15        1PY         0.02600   0.01672   0.00572  -0.05562   0.32148
  16        1PZ         0.00065   0.00328  -0.00297  -0.00139   0.01768
  17 5   C  1S          0.05123   0.02452  -0.00311   0.02787  -0.01273
  18        1PX         0.00084   0.00184  -0.00675  -0.03170  -0.00441
  19        1PY        -0.01629  -0.01189  -0.01395  -0.04321  -0.00963
  20        1PZ         0.01205  -0.00373  -0.28619   0.00165   0.00070
  21 6   H  1S         -0.01625   0.06758   0.00210   0.00738  -0.02040
  22 7   H  1S         -0.05289  -0.00701   0.00058   0.01793  -0.07248
  23 8   H  1S          0.57184  -0.53231   0.04095   0.01112   0.04726
  24 9   H  1S         -0.05322  -0.00218   0.00077   0.00805   0.02709
                          11        12        13        14        15
  11        1PY         0.29610
  12        1PZ         0.00977   0.19146
  13 4   C  1S          0.32612   0.02604   1.22497
  14        1PX         0.35126   0.01843   0.10641   1.40444
  15        1PY        -0.26090  -0.03519  -0.26537  -0.12083   1.50301
  16        1PZ        -0.03685   0.42275   0.01089  -0.01233  -0.00427
  17 5   C  1S          0.03252  -0.00126   0.32092   0.21173   0.42017
  18        1PX        -0.04848  -0.00429  -0.35892  -0.09395  -0.39985
  19        1PY        -0.10947  -0.00216  -0.36930  -0.21395  -0.36579
  20        1PZ        -0.00210  -0.04936   0.02115   0.00965   0.01266
  21 6   H  1S          0.00725   0.00649   0.05391   0.04215  -0.03395
  22 7   H  1S         -0.03454  -0.00569   0.55866  -0.75553  -0.06840
  23 8   H  1S         -0.07028   0.00918   0.05448   0.04250  -0.03288
  24 9   H  1S          0.00312   0.00211   0.07723   0.05053   0.05417
                          16        17        18        19        20
  16        1PZ         1.81941
  17 5   C  1S          0.00461   0.95438
  18        1PX        -0.00261   0.03694   0.97642
  19        1PY         0.00037   0.10535  -0.08010   1.05175
  20        1PZ         0.27550   0.00018   0.01053   0.01054   1.13101
  21 6   H  1S          0.00146   0.53664  -0.26407   0.77859  -0.03098
  22 7   H  1S         -0.02397   0.07485  -0.06596  -0.08606   0.00390
  23 8   H  1S         -0.00437   0.07940   0.06770  -0.03333  -0.00926
  24 9   H  1S         -0.00493  -0.00095   0.02498   0.00321   0.00612
                          21        22        23        24
  21 6   H  1S          0.87231
  22 7   H  1S         -0.00511   0.72819
  23 8   H  1S          0.00796   0.01445   0.74011
  24 9   H  1S         -0.00832   0.01373  -0.00453   0.88029
    Full Mulliken population analysis:
                           1         2         3         4         5
   1 1   C  1S          0.93714
   2        1PX         0.00000   1.07087
   3        1PY         0.00000   0.00000   0.97634
   4        1PZ         0.00000   0.00000   0.00000   1.04813
   5 2   C  1S          0.00000   0.00000   0.00000   0.00000   1.21370
   6        1PX         0.00000   0.00000   0.00000   0.00000   0.00000
   7        1PY         0.00000   0.00000   0.00000   0.00000   0.00000
   8        1PZ         0.00000   0.00000   0.00000   0.00000   0.00000
   9 3   O  1S          0.00000   0.00000   0.00000   0.00000   0.00000
  10        1PX         0.00000   0.00000   0.00000   0.00000   0.00000
  11        1PY         0.00000   0.00000   0.00000   0.00000   0.00000
  12        1PZ         0.00000   0.00000   0.00000   0.00000   0.00000
  13 4   C  1S          0.00000   0.00000   0.00000   0.00000   0.00000
  14        1PX         0.00000   0.00000   0.00000   0.00000   0.00000
  15        1PY         0.00000   0.00000   0.00000   0.00000   0.00000
  16        1PZ         0.00000   0.00000   0.00000   0.00000   0.00000
  17 5   C  1S          0.00000   0.00000   0.00000   0.00000   0.00000
  18        1PX         0.00000   0.00000   0.00000   0.00000   0.00000
  19        1PY         0.00000   0.00000   0.00000   0.00000   0.00000
  20        1PZ         0.00000   0.00000   0.00000   0.00000   0.00000
  21 6   H  1S          0.00000   0.00000   0.00000   0.00000   0.00000
  22 7   H  1S          0.00000   0.00000   0.00000   0.00000   0.00000
  23 8   H  1S          0.00000   0.00000   0.00000   0.00000   0.00000
  24 9   H  1S          0.00000   0.00000   0.00000   0.00000   0.00000
                           6         7         8         9        10
   6        1PX         1.55092
   7        1PY         0.00000   1.34475
   8        1PZ         0.00000   0.00000   1.80738
   9 3   O  1S          0.00000   0.00000   0.00000   1.94318
  10        1PX         0.00000   0.00000   0.00000   0.00000   0.33371
  11        1PY         0.00000   0.00000   0.00000   0.00000   0.00000
  12        1PZ         0.00000   0.00000   0.00000   0.00000   0.00000
  13 4   C  1S          0.00000   0.00000   0.00000   0.00000   0.00000
  14        1PX         0.00000   0.00000   0.00000   0.00000   0.00000
  15        1PY         0.00000   0.00000   0.00000   0.00000   0.00000
  16        1PZ         0.00000   0.00000   0.00000   0.00000   0.00000
  17 5   C  1S          0.00000   0.00000   0.00000   0.00000   0.00000
  18        1PX         0.00000   0.00000   0.00000   0.00000   0.00000
  19        1PY         0.00000   0.00000   0.00000   0.00000   0.00000
  20        1PZ         0.00000   0.00000   0.00000   0.00000   0.00000
  21 6   H  1S          0.00000   0.00000   0.00000   0.00000   0.00000
  22 7   H  1S          0.00000   0.00000   0.00000   0.00000   0.00000
  23 8   H  1S          0.00000   0.00000   0.00000   0.00000   0.00000
  24 9   H  1S          0.00000   0.00000   0.00000   0.00000   0.00000
                          11        12        13        14        15
  11        1PY         0.29610
  12        1PZ         0.00000   0.19146
  13 4   C  1S          0.00000   0.00000   1.22497
  14        1PX         0.00000   0.00000   0.00000   1.40444
  15        1PY         0.00000   0.00000   0.00000   0.00000   1.50301
  16        1PZ         0.00000   0.00000   0.00000   0.00000   0.00000
  17 5   C  1S          0.00000   0.00000   0.00000   0.00000   0.00000
  18        1PX         0.00000   0.00000   0.00000   0.00000   0.00000
  19        1PY         0.00000   0.00000   0.00000   0.00000   0.00000
  20        1PZ         0.00000   0.00000   0.00000   0.00000   0.00000
  21 6   H  1S          0.00000   0.00000   0.00000   0.00000   0.00000
  22 7   H  1S          0.00000   0.00000   0.00000   0.00000   0.00000
  23 8   H  1S          0.00000   0.00000   0.00000   0.00000   0.00000
  24 9   H  1S          0.00000   0.00000   0.00000   0.00000   0.00000
                          16        17        18        19        20
  16        1PZ         1.81941
  17 5   C  1S          0.00000   0.95438
  18        1PX         0.00000   0.00000   0.97642
  19        1PY         0.00000   0.00000   0.00000   1.05175
  20        1PZ         0.00000   0.00000   0.00000   0.00000   1.13101
  21 6   H  1S          0.00000   0.00000   0.00000   0.00000   0.00000
  22 7   H  1S          0.00000   0.00000   0.00000   0.00000   0.00000
  23 8   H  1S          0.00000   0.00000   0.00000   0.00000   0.00000
  24 9   H  1S          0.00000   0.00000   0.00000   0.00000   0.00000
                          21        22        23        24
  21 6   H  1S          0.87231
  22 7   H  1S          0.00000   0.72819
  23 8   H  1S          0.00000   0.00000   0.74011
  24 9   H  1S          0.00000   0.00000   0.00000   0.88029
     Gross orbital populations:
                           1
   1 1   C  1S          0.93714
   2        1PX         1.07087
   3        1PY         0.97634
   4        1PZ         1.04813
   5 2   C  1S          1.21370
   6        1PX         1.55092
   7        1PY         1.34475
   8        1PZ         1.80738
   9 3   O  1S          1.94318
  10        1PX         0.33371
  11        1PY         0.29610
  12        1PZ         0.19146
  13 4   C  1S          1.22497
  14        1PX         1.40444
  15        1PY         1.50301
  16        1PZ         1.81941
  17 5   C  1S          0.95438
  18        1PX         0.97642
  19        1PY         1.05175
  20        1PZ         1.13101
  21 6   H  1S          0.87231
  22 7   H  1S          0.72819
  23 8   H  1S          0.74011
  24 9   H  1S          0.88029
          Condensed to atoms (all electrons):
               1          2          3          4          5          6
     1  C    4.032492   0.000000   0.000000   0.000000   0.000000   0.000000
     2  C    0.000000   5.916754   0.000000   0.000000   0.000000   0.000000
     3  O    0.000000   0.000000   2.764452   0.000000   0.000000   0.000000
     4  C    0.000000   0.000000   0.000000   5.951830   0.000000   0.000000
     5  C    0.000000   0.000000   0.000000   0.000000   4.113570   0.000000
     6  H    0.000000   0.000000   0.000000   0.000000   0.000000   0.872310
     7  H    0.000000   0.000000   0.000000   0.000000   0.000000   0.000000
     8  H    0.000000   0.000000   0.000000   0.000000   0.000000   0.000000
     9  H    0.000000   0.000000   0.000000   0.000000   0.000000   0.000000
               7          8          9
     1  C    0.000000   0.000000   0.000000
     2  C    0.000000   0.000000   0.000000
     3  O    0.000000   0.000000   0.000000
     4  C    0.000000   0.000000   0.000000
     5  C    0.000000   0.000000   0.000000
     6  H    0.000000   0.000000   0.000000
     7  H    0.728194   0.000000   0.000000
     8  H    0.000000   0.740112   0.000000
     9  H    0.000000   0.000000   0.880286
 Mulliken charges:
               1
     1  C   -0.032492
     2  C   -1.916754
     3  O    3.235548
     4  C   -1.951830
     5  C   -0.113570
     6  H    0.127690
     7  H    0.271806
     8  H    0.259888
     9  H    0.119714
 Sum of Mulliken charges =   0.00000
 Mulliken charges with hydrogens summed into heavy atoms:
               1
     1  C    0.087222
     2  C   -1.656866
     3  O    3.235548
     4  C   -1.680025
     5  C    0.014120
 Charge=              0.0000 electrons
 Dipole moment (field-independent basis, Debye):
    X=             -2.5864    Y=             -9.6715    Z=             -0.6093  Tot=             10.0299
 N-N= 1.039627146938D+02 E-N=-1.689204132596D+02  KE=-1.505602103986D+01
 Orbital energies and kinetic energies (alpha):
                                 1                 2
   1         O                -1.748905         -1.250453
   2         O                -1.156394         -1.005601
   3         O                -0.965139         -0.864290
   4         O                -0.813525         -0.616979
   5         O                -0.769710         -0.697650
   6         O                -0.676532         -0.574191
   7         O                -0.651282         -0.523647
   8         O                -0.564293         -0.404875
   9         O                -0.500380         -0.259475
  10         O                -0.451401         -0.429041
  11         O                -0.446520         -0.327074
  12         O                -0.407874         -0.306402
  13         O                -0.292398         -0.268333
  14         V                 0.104068         -0.175357
  15         V                 0.172935         -0.191511
  16         V                 0.188612         -0.173463
  17         V                 0.251673         -0.161984
  18         V                 0.265447         -0.140850
  19         V                 0.286266         -0.096052
  20         V                 0.298616         -0.129543
  21         V                 0.315668         -0.120424
  22         V                 0.401893          0.514233
  23         V                 0.489491          0.548609
  24         V                 0.543556          0.617417
 Total kinetic energy from orbitals=-1.505602103986D+01
 Leave Link  601 at Tue Dec 15 17:06:26 2015, MaxMem=    33554432 cpu:         0.0
 (Enter /home/Applications/g09/g09/l701.exe)
 Compute integral first derivatives.
 ... and contract with generalized density number  6.
 Leave Link  701 at Tue Dec 15 17:06:26 2015, MaxMem=    33554432 cpu:         0.0
 (Enter /home/Applications/g09/g09/l702.exe)
 L702 exits ... SP integral derivatives will be done elsewhere.
 Leave Link  702 at Tue Dec 15 17:06:26 2015, MaxMem=    33554432 cpu:         0.0
 (Enter /home/Applications/g09/g09/l703.exe)
 Compute integral first derivatives, UseDBF=F ICtDFT=           0.
 Integral derivatives from FoFJK, PRISM(SPDF).
 Calling FoFJK, ICntrl=  10005127 FMM=F ISym2X=0 I1Cent= 0 IOpClX= 0 NMat=1 NMatS=1 NMatT=0.
 FoFJK:  IHMeth= 8 ICntrl=10005127 DoSepK=F KAlg= 0 I1Cent=   0 FoldK=F
 IRaf=         0 NMat=   1 IRICut=       1 DoRegI=T DoRafI=F ISym2E= 0.
 FoFCou: FMM=F IPFlag=           0 FMFlag=      100000 FMFlg1=         800
         NFxFlg=           0 DoJE=F BraDBF=F KetDBF=F FulRan=T
         wScrn=  0.000000 ICntrl=10005127 IOpCl=  0 I1Cent=           0 NGrid=           0
         NMat0=    1 NMatS0=      1 NMatT0=    0 NMatD0=    1 NMtDS0=    0 NMtDT0=    0
 Symmetry not used in FoFCou.
 Leave Link  703 at Tue Dec 15 17:06:26 2015, MaxMem=    33554432 cpu:         0.0
 (Enter /home/Applications/g09/g09/l716.exe)
 Dipole        =-1.13284441D+00-4.15706171D+00-2.20453193D-01
 ***** Axes restored to original set *****
 -------------------------------------------------------------------
 Center     Atomic                   Forces (Hartrees/Bohr)
 Number     Number              X              Y              Z
 -------------------------------------------------------------------
      1        6           0.195189853    0.001575955    0.000809131
      2        6          -0.321305662   -0.086265376   -0.011874049
      3        8           0.093398403    0.007881421    0.009309495
      4        6          -0.203181642    0.015148378   -0.002409329
      5        6           0.169040500    0.071395741   -0.001566864
      6        1           0.018007135    0.017512169   -0.001491675
      7        1          -0.018032861    0.087917149    0.001141212
      8        1          -0.007658033   -0.062327869    0.001924814
      9        1           0.074542307   -0.052837569    0.004157266
 -------------------------------------------------------------------
 Cartesian Forces:  Max     0.321305662 RMS     0.096989630
 Z-matrix is all fixed cartesians, so copy forces.
 Force constants in Cartesian coordinates: 
                1             2             3             4             5 
      1  0.105024D+01
      2 -0.361073D-01  0.787985D+00
      3  0.163985D-01  0.140714D-02  0.228623D+00
      4 -0.591535D+00 -0.118492D+00 -0.277038D-02  0.102530D+01
      5 -0.943644D-01 -0.227182D+00 -0.391705D-03  0.343344D-01  0.896390D+00
      6  0.211818D-02  0.663500D-03 -0.124295D+00 -0.205639D-02 -0.161683D-01
      7 -0.808300D-02  0.302613D-01 -0.578627D-03 -0.291899D+00  0.168609D+00
      8 -0.600148D-02  0.224694D-01 -0.266618D-04  0.213141D+00 -0.378162D+00
      9  0.143910D-03 -0.675002D-03  0.744195D-02 -0.337928D-02  0.222077D-02
     10  0.103888D-01  0.129943D-03 -0.123897D-03  0.254682D-01  0.189690D-01
     11  0.330862D-01  0.413694D-03 -0.131425D-02 -0.170305D-01 -0.126873D-01
     12  0.155926D-02 -0.124168D-03 -0.642251D-03  0.670328D-03  0.592396D-03
     13 -0.161145D+00  0.135332D-01  0.292202D-03  0.944338D-02 -0.353364D-01
     14 -0.763518D-02 -0.382701D+00 -0.107758D-01  0.793983D-04 -0.383546D-03
     15  0.746434D-04 -0.118229D-01 -0.736528D-01  0.437881D-03 -0.528407D-03
     16  0.155946D-01  0.180175D-03 -0.221450D-03  0.138161D-05 -0.756866D-05
     17 -0.226941D-01 -0.296833D-03  0.146032D-02  0.000000D+00  0.303651D-05
     18 -0.187837D-02 -0.470832D-03  0.147859D-01  0.187201D-04 -0.102552D-03
     19  0.274262D-05 -0.790555D-05  0.260793D-03  0.503538D-04  0.271328D-04
     20  0.489637D-05 -0.141137D-04  0.465591D-03 -0.168018D-05  0.000000D+00
     21  0.604571D-04 -0.174266D-03  0.574880D-02 -0.400623D-03 -0.215873D-03
     22  0.714133D-02 -0.267453D-01  0.151719D-02 -0.172082D+00 -0.110010D+00
     23 -0.393214D-02  0.147061D-01  0.127078D-02 -0.105039D+00 -0.304150D+00
     24 -0.496169D-03  0.150522D-02  0.365947D-01  0.784510D-02  0.135514D-01
     25 -0.322603D+00  0.137248D+00 -0.147743D-01 -0.474425D-02  0.177793D-01
     26  0.137644D+00 -0.215379D+00  0.790457D-02 -0.699194D-02  0.261726D-01
     27 -0.179804D-01  0.969132D-02 -0.946037D-01 -0.365358D-03  0.104227D-02
                6             7             8             9            10 
      6  0.221793D+00
      7 -0.611290D-02  0.548980D+00
      8  0.556060D-02  0.100630D-01  0.775682D+00
      9 -0.512974D-01  0.289820D-01  0.235964D-01  0.629429D-01
     10  0.310914D-02 -0.285252D+00 -0.223124D+00 -0.278436D-01  0.870558D+00
     11 -0.209056D-02 -0.178426D+00 -0.423586D+00 -0.289356D-01 -0.100162D-01
     12 -0.145057D-02 -0.222386D-01 -0.280403D-01 -0.482371D-01  0.243254D-01
     13 -0.162048D-02 -0.935486D-02  0.621272D-02  0.259131D-03 -0.444232D+00
     14  0.212699D-03 -0.296886D-01  0.197759D-01  0.335604D-03  0.960454D-01
     15 -0.145881D-02 -0.296770D-02  0.103675D-02  0.646849D-02  0.123106D-01
     16  0.249225D-03  0.000000D+00 -0.126806D-04  0.164943D-03 -0.485527D-02
     17 -0.999879D-04  0.000000D+00 -0.138375D-04  0.179992D-03  0.709242D-02
     18  0.337687D-02 -0.220507D-04 -0.417250D-03  0.542738D-02  0.931805D-03
     19 -0.762655D-03  0.240431D-01 -0.162849D-01  0.324606D-02 -0.172061D+00
     20  0.254479D-04  0.109542D-01 -0.743883D-02  0.172190D-02  0.110917D+00
     21  0.606781D-02  0.263834D-02 -0.210598D-02  0.436417D-02 -0.124148D-01
     22  0.726568D-02  0.215663D-01  0.160074D-01 -0.140094D-02 -0.113004D-04
     23  0.120115D-01 -0.117690D-01 -0.873227D-02  0.996600D-03 -0.128749D-04
     24 -0.865561D-01  0.345221D-03  0.310780D-03  0.402175D-02 -0.331982D-03
     25 -0.218980D-02  0.000000D+00 -0.166376D-05 -0.172238D-03 -0.312751D-05
     26 -0.114895D-03 -0.288113D-05  0.540368D-05  0.559407D-03 -0.117028D-05
     27  0.338201D-01 -0.456721D-04  0.856600D-04  0.886781D-02  0.373144D-04
               11            12            13            14            15 
     11  0.985757D+00
     12  0.136271D-01  0.183837D+00
     13  0.731192D-01  0.454892D-02  0.829774D+00
     14 -0.204694D+00 -0.207892D-02  0.140382D-01  0.729774D+00
     15 -0.461467D-02 -0.907733D-01 -0.176401D-01  0.784392D-02  0.179538D+00
     16 -0.156053D-01  0.153308D-02 -0.249511D+00 -0.100075D+00  0.985013D-02
     17  0.226838D-01 -0.487839D-03 -0.999019D-01 -0.174062D+00  0.513472D-02
     18  0.154327D-02  0.224224D-01  0.118646D-01  0.605594D-02 -0.679277D-01
     19  0.114870D+00 -0.102722D-01  0.842634D-02  0.270568D-01 -0.224999D-02
     20 -0.367884D+00  0.164279D-01  0.379541D-02  0.120926D-01  0.462970D-03
     21  0.220712D-01 -0.737322D-01  0.203950D-03 -0.901415D-03  0.242998D-01
     22 -0.608912D-05  0.171154D-03  0.000000D+00  0.511556D-05 -0.168448D-03
     23 -0.693755D-05  0.195002D-03  0.306688D-05 -0.168008D-04  0.553227D-03
     24 -0.178886D-03  0.502817D-02  0.445458D-04 -0.244029D-03  0.803552D-02
     25  0.901498D-05 -0.297392D-03  0.166010D-01  0.173888D-03  0.353006D-03
     26  0.337329D-05 -0.111280D-03  0.245365D-01  0.214020D-03  0.193441D-02
     27 -0.107558D-03  0.354818D-02  0.204726D-02 -0.448006D-03  0.154705D-01
               16            17            18            19            20 
     16  0.238753D+00
     17  0.115531D+00  0.151714D+00
     18 -0.109298D-01 -0.603840D-02  0.359608D-01
     19 -0.124021D-04 -0.135336D-04 -0.408087D-03  0.139551D+00
     20 -0.221413D-04 -0.241615D-04 -0.728552D-03 -0.125648D+00  0.363269D+00
     21 -0.273386D-03 -0.298330D-03 -0.899567D-02  0.101861D-01 -0.183753D-01
     22  0.000000D+00  0.000000D+00  0.000000D+00  0.000000D+00  0.000000D+00
     23  0.000000D+00  0.000000D+00  0.000000D+00  0.000000D+00  0.000000D+00
     24  0.000000D+00  0.000000D+00  0.000000D+00  0.000000D+00  0.000000D+00
     25  0.312383D-04 -0.125327D-04  0.423263D-03  0.000000D+00  0.000000D+00
     26  0.116890D-04 -0.468957D-05  0.158380D-03  0.000000D+00  0.000000D+00
     27 -0.372704D-03  0.149527D-03 -0.504996D-02  0.000000D+00  0.000000D+00
               21            22            23            24            25 
     21  0.422473D-01
     22  0.000000D+00  0.143393D+00
     23  0.000000D+00  0.120730D+00  0.298262D+00
     24  0.000000D+00 -0.768510D-02 -0.140403D-01  0.472087D-01
     25  0.000000D+00 -0.583569D-05  0.191659D-04  0.278382D-03  0.310723D+00
     26  0.000000D+00  0.189536D-04 -0.622487D-04 -0.904151D-03 -0.155215D+00
     27  0.000000D+00  0.300456D-03 -0.986775D-03 -0.143327D-01  0.163791D-01
               26            27 
     26  0.189051D+00
     27 -0.942644D-02  0.522798D-01
 Leave Link  716 at Tue Dec 15 17:06:26 2015, MaxMem=    33554432 cpu:         0.0
 (Enter /home/Applications/g09/g09/l103.exe)

 GradGradGradGradGradGradGradGradGradGradGradGradGradGradGradGradGradGrad
 Berny optimization.
 Search for a local minimum.
 Step number   1 out of a maximum of    2
 All quantities printed in internal units (Hartrees-Bohrs-Radians)
 Second derivative matrix not updated -- first step.
 ITU=  0
     Eigenvalues ---    0.01789   0.03316   0.06940   0.07780   0.08014
     Eigenvalues ---    0.09093   0.13040   0.13967   0.16890   0.25375
     Eigenvalues ---    0.26951   0.30340   0.41222   0.44849   0.66126
     Eigenvalues ---    0.84559   1.10662   1.33016   1.46386   1.55346
     Eigenvalues ---    1.77371
 Quadratic step=1.212D+00 exceeds max=3.000D-01 adjusted using Lamda=-7.901D-01.
 Angle between NR and scaled steps=  29.49 degrees.
 Angle between quadratic step and forces=  23.04 degrees.
 Linear search not attempted -- first point.
 TrRot= -0.002752  0.001103 -0.000149 -0.944145  0.000152  0.943873
 Variable       Old X    -DE/DX   Delta X   Delta X   Delta X     New X
                                 (Linear)    (Quad)   (Total)
    X1        1.80175   0.19519   0.00000   0.08432   0.08117   1.88293
    Y1       -1.42239   0.00158   0.00000  -0.02024  -0.01964  -1.44203
    Z1       -0.05501   0.00081   0.00000   0.00120   0.00070  -0.05431
    X2       -0.60741  -0.32131   0.00000  -0.14950  -0.15283  -0.76024
    Y2       -2.06601  -0.08627   0.00000  -0.06405  -0.06274  -2.12875
    Z2       -0.06120  -0.01187   0.00000  -0.01024  -0.01058  -0.07179
    X3       -2.13977   0.09340   0.00000   0.03282   0.03006  -2.10970
    Y3       -0.00394   0.00788   0.00000   0.00191   0.00359  -0.00035
    Z3       -0.08902   0.00931   0.00000   0.00619   0.00623  -0.08279
    X4       -0.73693  -0.20318   0.00000  -0.10031  -0.10248  -0.83941
    Y4        2.10060   0.01515   0.00000   0.03135   0.03268   2.13328
    Z4        0.07848  -0.00241   0.00000  -0.00165  -0.00146   0.07702
    X5        1.77131   0.16904   0.00000   0.09311   0.09073   1.86204
    Y5        1.31528   0.07140   0.00000   0.05905   0.05965   1.37493
    Z5        0.02829  -0.00157   0.00000   0.00003  -0.00011   0.02818
    X6        3.50493   0.01801   0.00000   0.04139   0.03932   3.54425
    Y6        2.51422   0.01751   0.00000   0.03634   0.03649   2.55071
    Z6       -0.06415  -0.00149   0.00000  -0.00235  -0.00250  -0.06665
    X7       -1.53652  -0.01803   0.00000  -0.03223  -0.03390  -1.57042
    Y7        3.88158   0.08792   0.00000   0.09050   0.09204   3.97362
    Z7       -0.02949   0.00114   0.00000   0.00080   0.00128  -0.02821
    X8       -1.58128  -0.00766   0.00000  -0.03205  -0.03587  -1.61715
    Y8       -3.84761  -0.06233   0.00000  -0.08565  -0.08412  -3.93173
    Z8        0.04104   0.00192   0.00000   0.00228   0.00179   0.04283
    X9        3.41848   0.07454   0.00000   0.08724   0.08379   3.50226
    Y9       -2.52466  -0.05284   0.00000  -0.05808  -0.05794  -2.58260
    Z9        0.04592   0.00416   0.00000   0.00543   0.00465   0.05057
         Item               Value     Threshold  Converged?
 Maximum Force            0.321306     0.000450     NO 
 RMS     Force            0.096990     0.000300     NO 
 Maximum Displacement     0.152834     0.001800     NO 
 RMS     Displacement     0.057725     0.001200     NO 
 Predicted change in Energy=-1.051617D-01
 GradGradGradGradGradGradGradGradGradGradGradGradGradGradGradGradGradGrad

 Leave Link  103 at Tue Dec 15 17:06:26 2015, MaxMem=    33554432 cpu:         0.0
 (Enter /home/Applications/g09/g09/l9999.exe)
 1\1\GINC-DUSTIN-DESKTOP\Force\RAM1-FC\STO-3G\C4H4O1\DUSTIN\15-Dec-2015
 \0\\#P AM1(Input,print) CIS(Singlets,NStates=15) pop(full) force\\AM1-
 Reparam Input\\0,1\C,0.953447,-0.752695,-0.029112\C,-0.321426,-1.09328
 8,-0.032388\O,-1.132316,-0.002085,-0.047105\C,-0.389969,1.11159,0.0415
 29\C,0.937335,0.696018,0.014973\H,1.854728,1.330467,-0.033948\H,-0.813
 089,2.054046,-0.015605\H,-0.836778,-2.036069,0.021717\H,1.808981,-1.33
 5993,0.024301\\Version=ES64L-G09RevD.01\State=1-A\HF=2.5301442\RMSD=9.
 489e-09\RMSF=9.699e-02\Dipole=-4.3031439,-0.1605208,-0.2651115\PG=C01 
 [X(C4H4O1)]\\@


 A COMPUTER IS LIKE A HORSE, IT WILL SENSE WEAKNESS.
     -- GREG WETTSTEIN
 Job cpu time:       0 days  0 hours  0 minutes  0.7 seconds.
 File lengths (MBytes):  RWF=      7 Int=      0 D2E=      0 Chk=      2 Scr=      1
 Normal termination of Gaussian 09 at Tue Dec 15 17:06:26 2015.
