 Entering Gaussian System, Link 0=g09
 Input=FuranAM1_49P3.com
 Output=FuranAM1_49P3.log
 Initial command:
 /home/Applications/g09/g09/l1.exe "/home/Applications/g09/scratch/Gau-11695.inp" -scrdir="/home/Applications/g09/scratch/"
 Entering Link 1 = /home/Applications/g09/g09/l1.exe PID=     11697.
  
 Copyright (c) 1988,1990,1992,1993,1995,1998,2003,2009,2013,
            Gaussian, Inc.  All Rights Reserved.
  
 This is part of the Gaussian(R) 09 program.  It is based on
 the Gaussian(R) 03 system (copyright 2003, Gaussian, Inc.),
 the Gaussian(R) 98 system (copyright 1998, Gaussian, Inc.),
 the Gaussian(R) 94 system (copyright 1995, Gaussian, Inc.),
 the Gaussian 92(TM) system (copyright 1992, Gaussian, Inc.),
 the Gaussian 90(TM) system (copyright 1990, Gaussian, Inc.),
 the Gaussian 88(TM) system (copyright 1988, Gaussian, Inc.),
 the Gaussian 86(TM) system (copyright 1986, Carnegie Mellon
 University), and the Gaussian 82(TM) system (copyright 1983,
 Carnegie Mellon University). Gaussian is a federally registered
 trademark of Gaussian, Inc.
  
 This software contains proprietary and confidential information,
 including trade secrets, belonging to Gaussian, Inc.
  
 This software is provided under written license and may be
 used, copied, transmitted, or stored only in accord with that
 written license.
  
 The following legend is applicable only to US Government
 contracts under FAR:
  
                    RESTRICTED RIGHTS LEGEND
  
 Use, reproduction and disclosure by the US Government is
 subject to restrictions as set forth in subparagraphs (a)
 and (c) of the Commercial Computer Software - Restricted
 Rights clause in FAR 52.227-19.
  
 Gaussian, Inc.
 340 Quinnipiac St., Bldg. 40, Wallingford CT 06492
  
  
 ---------------------------------------------------------------
 Warning -- This program may not be used in any manner that
 competes with the business of Gaussian, Inc. or will provide
 assistance to any competitor of Gaussian, Inc.  The licensee
 of this program is prohibited from giving any competitor of
 Gaussian, Inc. access to this program.  By using this program,
 the user acknowledges that Gaussian, Inc. is engaged in the
 business of creating and licensing software in the field of
 computational chemistry and represents and warrants to the
 licensee that it is not a competitor of Gaussian, Inc. and that
 it will not use this program in any manner prohibited above.
 ---------------------------------------------------------------
  

 Cite this work as:
 Gaussian 09, Revision D.01,
 M. J. Frisch, G. W. Trucks, H. B. Schlegel, G. E. Scuseria, 
 M. A. Robb, J. R. Cheeseman, G. Scalmani, V. Barone, B. Mennucci, 
 G. A. Petersson, H. Nakatsuji, M. Caricato, X. Li, H. P. Hratchian, 
 A. F. Izmaylov, J. Bloino, G. Zheng, J. L. Sonnenberg, M. Hada, 
 M. Ehara, K. Toyota, R. Fukuda, J. Hasegawa, M. Ishida, T. Nakajima, 
 Y. Honda, O. Kitao, H. Nakai, T. Vreven, J. A. Montgomery, Jr., 
 J. E. Peralta, F. Ogliaro, M. Bearpark, J. J. Heyd, E. Brothers, 
 K. N. Kudin, V. N. Staroverov, T. Keith, R. Kobayashi, J. Normand, 
 K. Raghavachari, A. Rendell, J. C. Burant, S. S. Iyengar, J. Tomasi, 
 M. Cossi, N. Rega, J. M. Millam, M. Klene, J. E. Knox, J. B. Cross, 
 V. Bakken, C. Adamo, J. Jaramillo, R. Gomperts, R. E. Stratmann, 
 O. Yazyev, A. J. Austin, R. Cammi, C. Pomelli, J. W. Ochterski, 
 R. L. Martin, K. Morokuma, V. G. Zakrzewski, G. A. Voth, 
 P. Salvador, J. J. Dannenberg, S. Dapprich, A. D. Daniels, 
 O. Farkas, J. B. Foresman, J. V. Ortiz, J. Cioslowski, 
 and D. J. Fox, Gaussian, Inc., Wallingford CT, 2013.
 
 ******************************************
 Gaussian 09:  ES64L-G09RevD.01 24-Apr-2013
                15-Dec-2015 
 ******************************************
 ------------------------------------------------------------
 #P AM1(Input,print) CIS(Singlets,NStates=15) pop(full) force
 ------------------------------------------------------------
 1/10=7,30=1,38=1/1,3;
 2/12=2,17=6,18=5,40=1/2;
 3/5=2,16=1,25=1,41=700000,71=1,135=100,136=1/1,2,8,3;
 4/35=1/1;
 5/5=2,35=1,38=5/2;
 8/6=1,10=1,108=15/1;
 9/15=2,41=15,42=1,48=1,49=10/14;
 10/5=4/2;
 6/7=3,18=1/1;
 7/12=6,13=5,29=1/1,2,3,16;
 1/10=7,30=1/3;
 99//99;
 Leave Link    1 at Tue Dec 15 17:10:00 2015, MaxMem=           0 cpu:         0.0
 (Enter /home/Applications/g09/g09/l101.exe)
 -----------------
 AM1-Reparam Input
 -----------------
 Symbolic Z-matrix:
 Charge =  0 Multiplicity = 1
 6                     0.91869  -0.70304   0.02924 
 6                    -0.36125  -1.05805   0.01004 
 8                    -1.17856  -0.04738   0.03119 
 6                    -0.30894   1.13359  -0.02951 
 6                     0.91104   0.6736   -0.04594 
 1                     1.82879   1.35803   0.04245 
 1                    -0.79164   2.02636  -0.04648 
 1                    -0.88347  -2.07656  -0.00312 
 1                     1.7979   -1.41413   0.03427 
 
 NAtoms=      9 NQM=        9 NQMF=       0 NMMI=      0 NMMIF=      0
                NMic=       0 NMicF=      0.
                    Isotopes and Nuclear Properties:
 (Nuclear quadrupole moments (NQMom) in fm**2, nuclear magnetic moments (NMagM)
  in nuclear magnetons)

  Atom         1           2           3           4           5           6           7           8           9
 IAtWgt=          12          12          16          12          12           1           1           1           1
 AtmWgt=  12.0000000  12.0000000  15.9949146  12.0000000  12.0000000   1.0078250   1.0078250   1.0078250   1.0078250
 NucSpn=           0           0           0           0           0           1           1           1           1
 AtZEff=   0.0000000   0.0000000   0.0000000   0.0000000   0.0000000   0.0000000   0.0000000   0.0000000   0.0000000
 NQMom=    0.0000000   0.0000000   0.0000000   0.0000000   0.0000000   0.0000000   0.0000000   0.0000000   0.0000000
 NMagM=    0.0000000   0.0000000   0.0000000   0.0000000   0.0000000   2.7928460   2.7928460   2.7928460   2.7928460
 AtZNuc=   6.0000000   6.0000000   8.0000000   6.0000000   6.0000000   1.0000000   1.0000000   1.0000000   1.0000000
 Leave Link  101 at Tue Dec 15 17:10:00 2015, MaxMem=    33554432 cpu:         0.0
 (Enter /home/Applications/g09/g09/l103.exe)

 GradGradGradGradGradGradGradGradGradGradGradGradGradGradGradGradGradGrad
 Berny optimization.
 Initialization pass.
 Trust Radius=3.00D-01 FncErr=1.00D-07 GrdErr=1.00D-07
 Number of steps in this run=      2 maximum allowed number of steps=      2.
 GradGradGradGradGradGradGradGradGradGradGradGradGradGradGradGradGradGrad

 Leave Link  103 at Tue Dec 15 17:10:00 2015, MaxMem=    33554432 cpu:         0.0
 (Enter /home/Applications/g09/g09/l202.exe)
                          Input orientation:                          
 ---------------------------------------------------------------------
 Center     Atomic      Atomic             Coordinates (Angstroms)
 Number     Number       Type             X           Y           Z
 ---------------------------------------------------------------------
      1          6           0        0.918693   -0.703043    0.029244
      2          6           0       -0.361253   -1.058048    0.010042
      3          8           0       -1.178564   -0.047378    0.031187
      4          6           0       -0.308938    1.133591   -0.029514
      5          6           0        0.911044    0.673604   -0.045935
      6          1           0        1.828790    1.358025    0.042448
      7          1           0       -0.791642    2.026356   -0.046481
      8          1           0       -0.883466   -2.076559   -0.003117
      9          1           0        1.797901   -1.414131    0.034266
 ---------------------------------------------------------------------
                    Distance matrix (angstroms):
                    1          2          3          4          5
     1  C    0.000000
     2  C    1.328405   0.000000
     3  O    2.197359   1.299961   0.000000
     4  C    2.209922   2.192620   1.467863   0.000000
     5  C    1.378719   2.149533   2.211837   1.303922   0.000000
     6  H    2.253098   3.261096   3.319558   2.150681   1.148260
     7  H    3.221894   3.114800   2.110951   1.015047   2.174644
     8  H    2.266136   1.144659   2.050813   3.261264   3.284128
     9  H    1.130786   2.188453   3.275266   3.306618   2.269710
                    6          7          8          9
     6  H    0.000000
     7  H    2.705779   0.000000
     8  H    4.376617   4.104171   0.000000
     9  H    2.772340   4.306879   2.762234   0.000000
 Stoichiometry    C4H4O
 Framework group  C1[X(C4H4O)]
 Deg. of freedom    21
 Full point group                 C1      NOp   1
 Largest Abelian subgroup         C1      NOp   1
 Largest concise Abelian subgroup C1      NOp   1
                         Standard orientation:                         
 ---------------------------------------------------------------------
 Center     Atomic      Atomic             Coordinates (Angstroms)
 Number     Number       Type             X           Y           Z
 ---------------------------------------------------------------------
      1          6           0        0.406120    1.091959    0.018226
      2          6           0        1.107284   -0.035841   -0.014882
      3          8           0        0.368895   -1.105081    0.022608
      4          6           0       -1.010431   -0.604028   -0.009463
      5          6           0       -0.913724    0.696158   -0.028902
      6          1           0       -1.827221    1.383583    0.078202
      7          1           0       -1.730922   -1.319018   -0.010736
      8          1           0        2.231231   -0.249486   -0.051530
      9          1           0        0.840253    2.136077    0.013329
 ---------------------------------------------------------------------
 Rotational constants (GHZ):      9.7644281      9.3761527      4.7862197
 Leave Link  202 at Tue Dec 15 17:10:00 2015, MaxMem=    33554432 cpu:         0.0
 (Enter /home/Applications/g09/g09/l301.exe)

 Semi-emprical parameters in input format:
 Method=8 CoreType=1 PeptideFC=0.0111590000 RIJScale=0.5404210000
 ****
 H       
 PQN=1 NValence=1 F0ss=0.4980120000 ZetaOverlap=1.0856700000 U=-0.4186260000
 Beta=-0.2131800000 CoreKO=1.0354420000 KON=0,0,0,1.0458670000 KON=1,0,1,1.0874690000
 KON=0,1,1,1.0589200000 KON=2,1,1,1.0697690000 EISol=-0.4188110042 EHeat=0.0830298228
 Alpha=1.5760740000
 GCore=0.0085280000,1.5127750000,2.2676710000
 GCore=0.0003530000,1.4650900000,3.4779940000
 GCore=-0.0013010000,0.5600570000,3.4989800000
 ****
 C       
 PQN=2,2 NValence=4 F0ss=0.4494440000 F0sp=0.4215150000 F0pp=0.3497590000 F2pp=0.1893390000
 G1sp=0.2701540000
 ZetaOverlap=1.8086650000,1.2572800000
 U=-1.7687090000,-1.4557970000
 Beta=-0.5485840000,-0.3063130000 DDN=0,1,0.7474020000 DDN=1,1,0.7268010000
 CoreKO=1.1124280000 KON=0,0,0,1.0105550000 KON=1,0,1,0.8646190000 KON=0,1,1,1.1012040000
 KON=2,1,1,0.8516400000 EISol=-4.4398989268 EHeat=0.2723305520 Alpha=1.2756240000
 DipHyp=1.4947180026
 GCore=0.0007890000,1.3361580000,2.6678360000
 GCore=0.0029040000,1.4001430000,3.2840710000
 GCore=-0.0015090000,1.2510850000,3.8739390000
 GCore=-0.0000850000,1.4001430000,4.6744780000
 ****
 O       
 PQN=2,2 NValence=6 F0ss=0.5596260000 F0sp=0.5321300000 F0pp=0.4845010000 F2pp=0.2543430000
 G1sp=0.4559390000
 ZetaOverlap=2.6354490000,2.4967270000
 U=-3.5951870000,-2.0345890000
 Beta=-1.1573400000,-1.2994290000 DDN=0,1,0.4953610000 DDN=1,1,0.4867620000
 CoreKO=0.8822960000 KON=0,0,0,0.8822960000 KON=1,0,1,0.5019540000 KON=0,1,1,0.8682050000
 KON=2,1,1,0.5515580000 EISol=-11.6164441184 EHeat=0.0949133088 Alpha=2.4031680000
 DipHyp=0.9906650029
 GCore=0.0205230000,1.4001430000,1.6023330000
 GCore=0.0056550000,1.9602000000,2.7307880000
 ****
 
 Standard basis: VSTO-6G (5D, 7F)
 Ernie: Thresh=  0.10000D-02 Tol=  0.10000D-05 Strict=F.
  NNHCO=     0 NNPyr=     0 NCTC=     0               EPep=         0.000000000
    EC=        69.108397224  ECS=         2.473413213   EG=         0.350862477
   EHC=         0.000000000  EAt=       -31.051283842  AtH=         1.516354808
 EPDDG=         0.000000000  ECC=        71.932672914 EAtT=        32.567638650
 There are    24 symmetry adapted cartesian basis functions of A   symmetry.
 There are    24 symmetry adapted basis functions of A   symmetry.
    24 basis functions,   144 primitive gaussians,    24 cartesian basis functions
    13 alpha electrons       13 beta electrons
       nuclear repulsion energy       104.5003115644 Hartrees.
 IExCor=    0 DFT=F Ex=HF Corr=None ExCW=0 ScaHFX=  1.000000
 ScaDFX=  1.000000  1.000000  1.000000  1.000000 ScalE2=  1.000000  1.000000
 IRadAn=      0 IRanWt=     -1 IRanGd=            0 ICorTp=0 IEmpDi=  4
 Integral buffers will be    131072 words long.
 Regular integral format.
 Two-electron integral symmetry is turned off.
 Leave Link  301 at Tue Dec 15 17:10:00 2015, MaxMem=    33554432 cpu:         0.0
 (Enter /home/Applications/g09/g09/l302.exe)
 Do NDO integrals.
 NPDir=0 NMtPBC=     1 NCelOv=     1 NCel=       1 NClECP=     1 NCelD=      1
         NCelK=      1 NCelE2=     1 NClLst=     1 CellRange=     0.0.
 One-electron integrals computed using PRISM.
 NBasis=    24 RedAO= F EigKep=  0.00D+00  NBF=    24
 NBsUse=    24 1.00D-04 EigRej=  0.00D+00 NBFU=    24
 Leave Link  302 at Tue Dec 15 17:10:00 2015, MaxMem=    33554432 cpu:         0.0
 (Enter /home/Applications/g09/g09/l308.exe)
 Leave Link  308 at Tue Dec 15 17:10:00 2015, MaxMem=    33554432 cpu:         0.0
 (Enter /home/Applications/g09/g09/l303.exe)
 DipDrv:  MaxL=1.
 Leave Link  303 at Tue Dec 15 17:10:00 2015, MaxMem=    33554432 cpu:         0.0
 (Enter /home/Applications/g09/g09/l401.exe)
 Simple Huckel Guess.
 JPrj=0 DoOrth=F DoCkMO=F.
 Leave Link  401 at Tue Dec 15 17:10:00 2015, MaxMem=    33554432 cpu:         0.0
 (Enter /home/Applications/g09/g09/l502.exe)
 Closed shell SCF:
 Using DIIS extrapolation, IDIIS=  1040.
 Overlap will be assumed to be unity.
 Two-electron integral symmetry not used.
 Keep J ints in memory in canonical form, NReq=888082.
 IVT=       79475 IEndB=       79475 NGot=    33554432 MDV=    33473473
 LenX=    33473473 LenY=    33472456
 Requested convergence on RMS density matrix=1.00D-08 within 128 cycles.
 Requested convergence on MAX density matrix=1.00D-06.
 Requested convergence on             energy=1.00D-06.
 No special actions if energy rises.
 FoFCou: FMM=F IPFlag=           0 FMFlag=           0 FMFlg1=           0
         NFxFlg=           0 DoJE=F BraDBF=F KetDBF=F FulRan=T
         wScrn=  0.000000 ICntrl=     600 IOpCl=  2 I1Cent=           0 NGrid=           0
         NMat0=    1 NMatS0=     54 NMatT0=    0 NMatD0=    1 NMtDS0=    0 NMtDT0=    0
 Symmetry not used in FoFCou.

 Cycle   1  Pass 1  IDiag  1:
 E=  4.08869158762597    
 DIIS: error= 1.42D-01 at cycle   1 NSaved=   1.
 NSaved= 1 IEnMin= 1 EnMin=  4.08869158762597     IErMin= 1 ErrMin= 1.42D-01
 ErrMax= 1.42D-01  0.00D+00 EMaxC= 1.00D-01 BMatC= 4.46D-01 BMatP= 4.46D-01
 IDIUse=3 WtCom= 0.00D+00 WtEn= 1.00D+00
 Coeff-Com:  0.100D+01
 Coeff-En:   0.100D+01
 Coeff:      0.100D+01
 GapD=    2.000 DampG=2.000 DampE=0.250 DampFc=0.5000 IDamp=-1.
 Damping current iteration by 5.00D-01
 RMSDP=6.41D-02 MaxDP=6.93D-01              OVMax= 0.00D+00

 Cycle   2  Pass 1  IDiag  1:
 E=  3.15552476091001     Delta-E=       -0.933166826716 Rises=F Damp=T
 DIIS: error= 7.77D-02 at cycle   2 NSaved=   2.
 NSaved= 2 IEnMin= 2 EnMin=  3.15552476091001     IErMin= 2 ErrMin= 7.77D-02
 ErrMax= 7.77D-02  0.00D+00 EMaxC= 1.00D-01 BMatC= 1.60D-01 BMatP= 4.46D-01
 IDIUse=3 WtCom= 2.23D-01 WtEn= 7.77D-01
 Coeff-Com: -0.119D+01 0.219D+01
 Coeff-En:   0.000D+00 0.100D+01
 Coeff:     -0.265D+00 0.127D+01
 RMSDP=3.66D-02 MaxDP=3.61D-01 DE=-9.33D-01 OVMax= 0.00D+00

 Cycle   3  Pass 1  IDiag  1:
 E=  1.95991256876486     Delta-E=       -1.195612192145 Rises=F Damp=F
 DIIS: error= 1.97D-02 at cycle   3 NSaved=   3.
 NSaved= 3 IEnMin= 3 EnMin=  1.95991256876486     IErMin= 3 ErrMin= 1.97D-02
 ErrMax= 1.97D-02  0.00D+00 EMaxC= 1.00D-01 BMatC= 1.18D-02 BMatP= 1.60D-01
 IDIUse=3 WtCom= 8.03D-01 WtEn= 1.97D-01
 Coeff-Com:  0.372D+00-0.813D+00 0.144D+01
 Coeff-En:   0.000D+00 0.000D+00 0.100D+01
 Coeff:      0.298D+00-0.652D+00 0.135D+01
 RMSDP=1.01D-02 MaxDP=5.31D-02 DE=-1.20D+00 OVMax= 0.00D+00

 Cycle   4  Pass 1  IDiag  3:
 E=  1.91398142112092     Delta-E=       -0.045931147644 Rises=F Damp=F
 DIIS: error= 5.02D-03 at cycle   4 NSaved=   4.
 NSaved= 4 IEnMin= 4 EnMin=  1.91398142112092     IErMin= 4 ErrMin= 5.02D-03
 ErrMax= 5.02D-03  0.00D+00 EMaxC= 1.00D-01 BMatC= 1.05D-03 BMatP= 1.18D-02
 IDIUse=3 WtCom= 9.50D-01 WtEn= 5.02D-02
 Coeff-Com: -0.704D-01 0.133D+00-0.446D+00 0.138D+01
 Coeff-En:   0.000D+00 0.000D+00 0.000D+00 0.100D+01
 Coeff:     -0.669D-01 0.126D+00-0.424D+00 0.136D+01
 Gap=     0.423 Goal=   None    Shift=    0.000
 RMSDP=3.88D-03 MaxDP=2.06D-02 DE=-4.59D-02 OVMax= 3.26D-02

 Cycle   5  Pass 1  IDiag  3:
 E=  1.90917543807500     Delta-E=       -0.004805983046 Rises=F Damp=F
 DIIS: error= 1.05D-03 at cycle   5 NSaved=   5.
 NSaved= 5 IEnMin= 5 EnMin=  1.90917543807500     IErMin= 5 ErrMin= 1.05D-03
 ErrMax= 1.05D-03  0.00D+00 EMaxC= 1.00D-01 BMatC= 4.81D-05 BMatP= 1.05D-03
 IDIUse=3 WtCom= 9.89D-01 WtEn= 1.05D-02
 Coeff-Com:  0.224D-01-0.405D-01 0.145D+00-0.597D+00 0.147D+01
 Coeff-En:   0.000D+00 0.000D+00 0.000D+00 0.000D+00 0.100D+01
 Coeff:      0.221D-01-0.401D-01 0.144D+00-0.590D+00 0.146D+01
 Gap=     0.423 Goal=   None    Shift=    0.000
 RMSDP=9.64D-04 MaxDP=5.26D-03 DE=-4.81D-03 OVMax= 5.84D-03

 Cycle   6  Pass 1  IDiag  3:
 E=  1.90891948307505     Delta-E=       -0.000255955000 Rises=F Damp=F
 DIIS: error= 2.14D-04 at cycle   6 NSaved=   6.
 NSaved= 6 IEnMin= 6 EnMin=  1.90891948307505     IErMin= 6 ErrMin= 2.14D-04
 ErrMax= 2.14D-04  0.00D+00 EMaxC= 1.00D-01 BMatC= 1.94D-06 BMatP= 4.81D-05
 IDIUse=3 WtCom= 9.98D-01 WtEn= 2.14D-03
 Coeff-Com: -0.138D-02 0.306D-02-0.287D-01 0.140D+00-0.516D+00 0.140D+01
 Coeff-En:   0.000D+00 0.000D+00 0.000D+00 0.000D+00 0.000D+00 0.100D+01
 Coeff:     -0.138D-02 0.306D-02-0.286D-01 0.140D+00-0.515D+00 0.140D+01
 Gap=     0.423 Goal=   None    Shift=    0.000
 RMSDP=1.99D-04 MaxDP=1.23D-03 DE=-2.56D-04 OVMax= 1.05D-03

 Cycle   7  Pass 1  IDiag  3:
 E=  1.90890994287014     Delta-E=       -0.000009540205 Rises=F Damp=F
 DIIS: error= 2.84D-05 at cycle   7 NSaved=   7.
 NSaved= 7 IEnMin= 7 EnMin=  1.90890994287014     IErMin= 7 ErrMin= 2.84D-05
 ErrMax= 2.84D-05  0.00D+00 EMaxC= 1.00D-01 BMatC= 4.50D-08 BMatP= 1.94D-06
 IDIUse=1 WtCom= 1.00D+00 WtEn= 0.00D+00
 Coeff-Com:  0.109D-03-0.331D-03 0.874D-02-0.470D-01 0.195D+00-0.612D+00
 Coeff-Com:  0.146D+01
 Coeff:      0.109D-03-0.331D-03 0.874D-02-0.470D-01 0.195D+00-0.612D+00
 Coeff:      0.146D+01
 Gap=     0.423 Goal=   None    Shift=    0.000
 RMSDP=2.63D-05 MaxDP=1.69D-04 DE=-9.54D-06 OVMax= 1.65D-04

 Cycle   8  Pass 1  IDiag  3:
 E=  1.90890974567958     Delta-E=       -0.000000197191 Rises=F Damp=F
 DIIS: error= 4.60D-06 at cycle   8 NSaved=   8.
 NSaved= 8 IEnMin= 8 EnMin=  1.90890974567958     IErMin= 8 ErrMin= 4.60D-06
 ErrMax= 4.60D-06  0.00D+00 EMaxC= 1.00D-01 BMatC= 1.07D-09 BMatP= 4.50D-08
 IDIUse=1 WtCom= 1.00D+00 WtEn= 0.00D+00
 Coeff-Com: -0.163D-04 0.197D-04-0.163D-02 0.991D-02-0.467D-01 0.156D+00
 Coeff-Com: -0.443D+00 0.133D+01
 Coeff:     -0.163D-04 0.197D-04-0.163D-02 0.991D-02-0.467D-01 0.156D+00
 Coeff:     -0.443D+00 0.133D+01
 Gap=     0.423 Goal=   None    Shift=    0.000
 RMSDP=3.64D-06 MaxDP=2.47D-05 DE=-1.97D-07 OVMax= 1.83D-05

 Cycle   9  Pass 1  IDiag  3:
 E=  1.90890974129299     Delta-E=       -0.000000004387 Rises=F Damp=F
 DIIS: error= 1.11D-06 at cycle   9 NSaved=   9.
 NSaved= 9 IEnMin= 9 EnMin=  1.90890974129299     IErMin= 9 ErrMin= 1.11D-06
 ErrMax= 1.11D-06  0.00D+00 EMaxC= 1.00D-01 BMatC= 5.11D-11 BMatP= 1.07D-09
 IDIUse=1 WtCom= 1.00D+00 WtEn= 0.00D+00
 Coeff-Com:  0.445D-05-0.406D-06 0.171D-03-0.123D-02 0.690D-02-0.241D-01
 Coeff-Com:  0.728D-01-0.350D+00 0.130D+01
 Coeff:      0.445D-05-0.406D-06 0.171D-03-0.123D-02 0.690D-02-0.241D-01
 Coeff:      0.728D-01-0.350D+00 0.130D+01
 Gap=     0.423 Goal=   None    Shift=    0.000
 RMSDP=8.73D-07 MaxDP=6.33D-06 DE=-4.39D-09 OVMax= 4.77D-06

 Cycle  10  Pass 1  IDiag  3:
 E=  1.90890974102952     Delta-E=       -0.000000000263 Rises=F Damp=F
 DIIS: error= 4.05D-07 at cycle  10 NSaved=  10.
 NSaved=10 IEnMin=10 EnMin=  1.90890974102952     IErMin=10 ErrMin= 4.05D-07
 ErrMax= 4.05D-07  0.00D+00 EMaxC= 1.00D-01 BMatC= 6.13D-12 BMatP= 5.11D-11
 IDIUse=1 WtCom= 1.00D+00 WtEn= 0.00D+00
 Coeff-Com:  0.690D-06-0.344D-05-0.303D-04 0.250D-03-0.155D-02 0.528D-02
 Coeff-Com: -0.169D-01 0.103D+00-0.658D+00 0.157D+01
 Coeff:      0.690D-06-0.344D-05-0.303D-04 0.250D-03-0.155D-02 0.528D-02
 Coeff:     -0.169D-01 0.103D+00-0.658D+00 0.157D+01
 Gap=     0.423 Goal=   None    Shift=    0.000
 RMSDP=3.98D-07 MaxDP=2.86D-06 DE=-2.63D-10 OVMax= 2.46D-06

 Cycle  11  Pass 1  IDiag  3:
 E=  1.90890974099014     Delta-E=       -0.000000000039 Rises=F Damp=F
 DIIS: error= 1.56D-07 at cycle  11 NSaved=  11.
 NSaved=11 IEnMin=11 EnMin=  1.90890974099014     IErMin=11 ErrMin= 1.56D-07
 ErrMax= 1.56D-07  0.00D+00 EMaxC= 1.00D-01 BMatC= 4.71D-13 BMatP= 6.13D-12
 IDIUse=1 WtCom= 1.00D+00 WtEn= 0.00D+00
 Coeff-Com: -0.145D-05 0.273D-05-0.142D-04 0.742D-04-0.282D-03 0.100D-02
 Coeff-Com: -0.206D-02-0.729D-02 0.170D+00-0.708D+00 0.155D+01
 Coeff:     -0.145D-05 0.273D-05-0.142D-04 0.742D-04-0.282D-03 0.100D-02
 Coeff:     -0.206D-02-0.729D-02 0.170D+00-0.708D+00 0.155D+01
 Gap=     0.423 Goal=   None    Shift=    0.000
 RMSDP=1.28D-07 MaxDP=1.05D-06 DE=-3.94D-11 OVMax= 1.00D-06

 Cycle  12  Pass 1  IDiag  3:
 E=  1.90890974098670     Delta-E=       -0.000000000003 Rises=F Damp=F
 DIIS: error= 2.65D-08 at cycle  12 NSaved=  12.
 NSaved=12 IEnMin=12 EnMin=  1.90890974098670     IErMin=12 ErrMin= 2.65D-08
 ErrMax= 2.65D-08  0.00D+00 EMaxC= 1.00D-01 BMatC= 1.75D-14 BMatP= 4.71D-13
 IDIUse=1 WtCom= 1.00D+00 WtEn= 0.00D+00
 Coeff-Com: -0.500D-07 0.125D-06 0.148D-05-0.129D-04 0.660D-04-0.285D-03
 Coeff-Com:  0.655D-03 0.189D-02-0.501D-01 0.229D+00-0.636D+00 0.146D+01
 Coeff:     -0.500D-07 0.125D-06 0.148D-05-0.129D-04 0.660D-04-0.285D-03
 Coeff:      0.655D-03 0.189D-02-0.501D-01 0.229D+00-0.636D+00 0.146D+01
 Gap=     0.423 Goal=   None    Shift=    0.000
 RMSDP=2.37D-08 MaxDP=2.41D-07 DE=-3.44D-12 OVMax= 2.52D-07

 Cycle  13  Pass 1  IDiag  3:
 E=  1.90890974098687     Delta-E=        0.000000000000 Rises=F Damp=F
 DIIS: error= 4.43D-09 at cycle  13 NSaved=  13.
 NSaved=13 IEnMin=12 EnMin=  1.90890974098670     IErMin=13 ErrMin= 4.43D-09
 ErrMax= 4.43D-09  0.00D+00 EMaxC= 1.00D-01 BMatC= 6.15D-16 BMatP= 1.75D-14
 IDIUse=1 WtCom= 1.00D+00 WtEn= 0.00D+00
 Coeff-Com:  0.307D-07-0.713D-07-0.688D-06 0.565D-05-0.293D-04 0.118D-03
 Coeff-Com: -0.289D-03-0.263D-03 0.140D-01-0.693D-01 0.211D+00-0.615D+00
 Coeff-Com:  0.146D+01
 Coeff:      0.307D-07-0.713D-07-0.688D-06 0.565D-05-0.293D-04 0.118D-03
 Coeff:     -0.289D-03-0.263D-03 0.140D-01-0.693D-01 0.211D+00-0.615D+00
 Coeff:      0.146D+01
 Gap=     0.423 Goal=   None    Shift=    0.000
 RMSDP=4.34D-09 MaxDP=4.38D-08 DE= 1.71D-13 OVMax= 5.00D-08

 Cycle  14  Pass 2  IDiag  1:
 SCF Done:  E(RAM1) =   1.90890974099     A.U. after   14 cycles
            NFock= 13  Conv=0.43D-08     -V/T= 1.1217
 KE=-1.568662758383D+01 PE=-1.703301275822D+02 EE= 8.342535334269D+01
 Leave Link  502 at Tue Dec 15 17:10:00 2015, MaxMem=    33554432 cpu:         0.0
 (Enter /home/Applications/g09/g09/l801.exe)
 Range of M.O.s used for correlation:     1    24
 NBasis=    24 NAE=    13 NBE=    13 NFC=     0 NFV=     0
 NROrb=     24 NOA=    13 NOB=    13 NVA=    11 NVB=    11
 Leave Link  801 at Tue Dec 15 17:10:00 2015, MaxMem=    33554432 cpu:         0.0
 (Enter /home/Applications/g09/g09/l914.exe)
 RHF ground state
 MDV=    33554432 DFT=F DoStab=F Mixed=F DoRPA=F DoScal=F NonHer=F
 Making orbital integer symmetry assigments:
 Orbital symmetries:
       Occupied  (A) (A) (A) (A) (A) (A) (A) (A) (A) (A) (A) (A)
                 (A)
       Virtual   (A) (A) (A) (A) (A) (A) (A) (A) (A) (A) (A)
    60 initial guesses have been made.
 Convergence on wavefunction:    0.000001000000000
 Davidson Disk Diagonalization:  ConvIn= 1.00D-06 SkipCon=T Conv= 1.00D-06.
 Max sub-space:   240 roots to seek:    60 dimension of matrix:          286
 Iteration     1 Dimension    60 NMult     0 NNew     60
 CISAX will form    60 AO SS matrices at one time.
 NMat=    60 NSing=    60 JSym2X= 0.
 FoFJK:  IHMeth= 8 ICntrl=       0 DoSepK=F KAlg= 0 I1Cent=   0 FoldK=F
 IRaf=         1 NMat= 120 IRICut=       1 DoRegI=T DoRafI=F ISym2E= 0.
 FoFCou: FMM=F IPFlag=           0 FMFlag=      100000 FMFlg1=           0
         NFxFlg=           0 DoJE=F BraDBF=F KetDBF=F FulRan=T
         wScrn=  0.000000 ICntrl=       0 IOpCl=  0 I1Cent=           0 NGrid=           0
         NMat0=  120 NMatS0=     60 NMatT0=    0 NMatD0=  120 NMtDS0=    0 NMtDT0=    0
 Symmetry not used in FoFCou.
 New state      3 was old state      5
 New state      4 was old state      3
 New state      5 was old state      7
 New state      7 was old state      9
 New state      8 was old state      4
 New state      9 was old state     10
 New state     10 was old state      8
 New state     13 was old state     18
 New state     14 was old state     13
 New state     15 was old state     21
 Excitation Energies [eV] at current iteration:
 Root      1 :     5.589320406725135
 Root      2 :     5.795293330120847
 Root      3 :     6.822917275887880
 Root      4 :     7.092780057646594
 Root      5 :     7.660949705021081
 Root      6 :     7.827040374230462
 Root      7 :     8.203674083707524
 Root      8 :     8.541799479663890
 Root      9 :     8.930025319125539
 Root     10 :     8.993799809492028
 Root     11 :     9.202195826348952
 Root     12 :     9.367621148690128
 Root     13 :     9.655317847160195
 Root     14 :     9.684835357506419
 Root     15 :     9.810547470240365
 Root     16 :    10.048890581146200
 Root     17 :    10.401672964291660
 Root     18 :    10.634073399575150
 Root     19 :    10.705867092515520
 Root     20 :    10.734417640475030
 Root     21 :    10.781252035441930
 Root     22 :    11.034713240116680
 Root     23 :    11.218102529722740
 Root     24 :    11.271796646956170
 Root     25 :    11.486524278490390
 Root     26 :    11.664208164594290
 Root     27 :    11.856408080502160
 Root     28 :    12.165956343298720
 Root     29 :    12.274837133190490
 Root     30 :    12.336898971458140
 Root     31 :    12.408918673752890
 Root     32 :    12.491587795085190
 Root     33 :    12.736565263563000
 Root     34 :    12.910171697141280
 Root     35 :    13.122884216778150
 Root     36 :    13.172506133925730
 Root     37 :    13.361718072653440
 Root     38 :    13.471768460640380
 Root     39 :    13.622161429446380
 Root     40 :    13.839999980688880
 Root     41 :    14.059877227338400
 Root     42 :    14.133798935257040
 Root     43 :    14.207234771727120
 Root     44 :    14.363582736071860
 Root     45 :    14.699811082206650
 Root     46 :    14.735001950858590
 Root     47 :    14.991945904602440
 Root     48 :    15.128720257854880
 Root     49 :    15.349102909531630
 Root     50 :    15.469554674654590
 Root     51 :    15.923830678432280
 Root     52 :    15.991638328065390
 Root     53 :    16.118704618376450
 Root     54 :    16.187109519411020
 Root     55 :    16.310778408985490
 Root     56 :    16.495113669897490
 Root     57 :    16.654751411172590
 Root     58 :    16.683296706699730
 Root     59 :    16.774039501139620
 Root     60 :    17.221453918804360
 Iteration     2 Dimension   120 NMult    60 NNew     60
 CISAX will form    60 AO SS matrices at one time.
 NMat=    60 NSing=    60 JSym2X= 0.
 Root      1 not converged, maximum delta is    0.067243180481578
 Root      2 not converged, maximum delta is    0.067741957166039
 Root      3 not converged, maximum delta is    0.012592026292447
 Root      4 not converged, maximum delta is    0.027124061418071
 Root      5 not converged, maximum delta is    0.035175099962183
 Root      6 not converged, maximum delta is    0.027192798801138
 Root      7 not converged, maximum delta is    0.037236936543989
 Root      8 not converged, maximum delta is    0.062980674674016
 New state      9 was old state     10
 Root      9 not converged, maximum delta is    0.122875020956376
 New state     10 was old state      9
 Root     10 not converged, maximum delta is    0.037540480429176
 Root     11 not converged, maximum delta is    0.082642023269418
 Root     12 not converged, maximum delta is    0.067753606900637
 New state     13 was old state     14
 Root     13 not converged, maximum delta is    0.334031612867140
 New state     14 was old state     13
 Root     14 not converged, maximum delta is    0.246835243080648
 Root     15 not converged, maximum delta is    0.094446461852151
 Excitation Energies [eV] at current iteration:
 Root      1 :     5.570690040822742   Change is   -0.018630365902393
 Root      2 :     5.730217498642028   Change is   -0.065075831478819
 Root      3 :     6.797999634919863   Change is   -0.024917640968017
 Root      4 :     7.033192223927203   Change is   -0.059587833719391
 Root      5 :     7.634206493448432   Change is   -0.026743211572648
 Root      6 :     7.790861566229516   Change is   -0.036178808000946
 Root      7 :     8.143839317692411   Change is   -0.059834766015113
 Root      8 :     8.458713529430923   Change is   -0.083085950232966
 Root      9 :     8.804079891392485   Change is   -0.189719918099544
 Root     10 :     8.870960796934785   Change is   -0.059064522190754
 Root     11 :     9.076445274141069   Change is   -0.125750552207883
 Root     12 :     9.351733005201185   Change is   -0.015888143488944
 Root     13 :     9.517191044636441   Change is   -0.167644312869977
 Root     14 :     9.601944447276480   Change is   -0.053373399883715
 Root     15 :     9.715475491561143   Change is   -0.095071978679221
 Root     16 :    10.018142945345020   Change is   -0.030747635801178
 Root     17 :    10.192494065725800   Change is   -0.209178898565866
 Root     18 :    10.388560783134000   Change is   -0.245512616441151
 Root     19 :    10.582342019686740   Change is   -0.152075620788296
 Root     20 :    10.616374219924240   Change is   -0.089492872591289
 Root     21 :    10.675971702423800   Change is   -0.105280333018132
 Root     22 :    10.898417395495340   Change is   -0.136295844621341
 Root     23 :    11.019956645674760   Change is   -0.198145884047976
 Root     24 :    11.102694460429890   Change is   -0.169102186526271
 Root     25 :    11.307211204143550   Change is   -0.179313074346847
 Root     26 :    11.579489325939080   Change is   -0.084718838655201
 Root     27 :    11.816350389979470   Change is   -0.040057690522694
 Root     28 :    11.977094947692150   Change is   -0.188861395606571
 Root     29 :    12.161344138779070   Change is   -0.113492994411419
 Root     30 :    12.257829789366860   Change is   -0.079069182091274
 Root     31 :    12.278281063663030   Change is   -0.130637610089867
 Root     32 :    12.355905942461460   Change is   -0.135681852623728
 Root     33 :    12.548362565471280   Change is   -0.188202698091718
 Root     34 :    12.673263647978900   Change is   -0.236908049162377
 Root     35 :    12.701240676079070   Change is   -0.421643540699081
 Root     36 :    13.048940688004850   Change is   -0.123565445920881
 Root     37 :    13.191305806411510   Change is   -0.170412266241933
 Root     38 :    13.292989014079850   Change is   -0.178779446560524
 Root     39 :    13.496676888890910   Change is   -0.125484540555475
 Root     40 :    13.661131646416440   Change is   -0.178868334272444
 Root     41 :    13.843030428877850   Change is   -0.216846798460540
 Root     42 :    13.956160017130070   Change is   -0.177638918126977
 Root     43 :    14.031924372985010   Change is   -0.175310398742113
 Root     44 :    14.238708015837870   Change is   -0.124874720233989
 Root     45 :    14.591104616702970   Change is   -0.143897334155621
 Root     46 :    14.652017381752770   Change is   -0.047793700453884
 Root     47 :    14.740592772443980   Change is   -0.251353132158461
 Root     48 :    14.879831680965680   Change is   -0.248888576889195
 Root     49 :    15.170481873111250   Change is   -0.178621036420382
 Root     50 :    15.247673101266450   Change is   -0.221881573388148
 Root     51 :    15.696380664652820   Change is   -0.227450013779450
 Root     52 :    15.784591483826650   Change is   -0.207046844238744
 Root     53 :    15.835198428916980   Change is   -0.351911090494041
 Root     54 :    15.915412221634430   Change is   -0.395366187351058
 Root     55 :    15.928504104486840   Change is   -0.566609565410646
 Root     56 :    16.064302032849580   Change is   -0.054402585526875
 Root     57 :    16.332369548089190   Change is   -0.350927158610542
 Root     58 :    16.373727493298980   Change is   -0.281023917873611
 Root     59 :    16.413251467193100
 Root     60 :    16.452185046042410   Change is   -0.321854455097207
 Iteration     3 Dimension   135 NMult   120 NNew     15
 CISAX will form    15 AO SS matrices at one time.
 NMat=    15 NSing=    15 JSym2X= 0.
 Root      1 not converged, maximum delta is    0.000690154596087
 Root      2 not converged, maximum delta is    0.001347916092745
 Root      3 not converged, maximum delta is    0.000205658475823
 Root      4 not converged, maximum delta is    0.000066329838456
 Root      5 not converged, maximum delta is    0.000188563292061
 Root      6 not converged, maximum delta is    0.000179022116430
 Root      7 not converged, maximum delta is    0.000083875995791
 Root      8 not converged, maximum delta is    0.001252737529230
 Root      9 not converged, maximum delta is    0.002512095439008
 Root     10 not converged, maximum delta is    0.000193989004914
 Root     11 not converged, maximum delta is    0.001547505939447
 Root     12 not converged, maximum delta is    0.000459088208515
 Root     13 not converged, maximum delta is    0.002428367064697
 Root     14 not converged, maximum delta is    0.000855461601332
 Root     15 not converged, maximum delta is    0.001790697503479
 Excitation Energies [eV] at current iteration:
 Root      1 :     5.570614865816759   Change is   -0.000075175005983
 Root      2 :     5.729806998755588   Change is   -0.000410499886440
 Root      3 :     6.797991238370396   Change is   -0.000008396549467
 Root      4 :     7.033190544731651   Change is   -0.000001679195551
 Root      5 :     7.634199965397956   Change is   -0.000006528050476
 Root      6 :     7.790854971715740   Change is   -0.000006594513776
 Root      7 :     8.143838299831664   Change is   -0.000001017860747
 Root      8 :     8.458277311498509   Change is   -0.000436217932414
 Root      9 :     8.803191341100636   Change is   -0.000888550291848
 Root     10 :     8.870955790880750   Change is   -0.000005006054036
 Root     11 :     9.075581344552639   Change is   -0.000863929588430
 Root     12 :     9.351693867986270   Change is   -0.000039137214913
 Root     13 :     9.516084632205372   Change is   -0.001106412431069
 Root     14 :     9.601896733726168   Change is   -0.000047713550312
 Root     15 :     9.714966742131288   Change is   -0.000508749429855
 Iteration     4 Dimension   143 NMult   135 NNew      8
 CISAX will form     8 AO SS matrices at one time.
 NMat=     8 NSing=     8 JSym2X= 0.
 Root      1 not converged, maximum delta is    0.000019197204673
 Root      2 not converged, maximum delta is    0.000045860326334
 Root      3 not converged, maximum delta is    0.000003427837170
 Root      4 not converged, maximum delta is    0.000004752084147
 Root      5 not converged, maximum delta is    0.000004867240842
 Root      6 not converged, maximum delta is    0.000005226565583
 Root      7 not converged, maximum delta is    0.000001752986557
 Root      8 not converged, maximum delta is    0.000041891117938
 Root      9 not converged, maximum delta is    0.000063922925643
 Root     10 not converged, maximum delta is    0.000004097653678
 Root     11 not converged, maximum delta is    0.000076106652712
 Root     12 not converged, maximum delta is    0.000020624720807
 Root     13 not converged, maximum delta is    0.000079597683182
 Root     14 not converged, maximum delta is    0.000009419812611
 Root     15 not converged, maximum delta is    0.000066962448324
 Excitation Energies [eV] at current iteration:
 Root      1 :     5.570614739070188   Change is   -0.000000126746571
 Root      2 :     5.729806308870432   Change is   -0.000000689885156
 Root      3 :     6.797991234348756   Change is   -0.000000004021640
 Root      4 :     7.033190540127892   Change is   -0.000000004603759
 Root      5 :     7.634199958967434   Change is   -0.000000006430522
 Root      6 :     7.790854967278705   Change is   -0.000000004437036
 Root      7 :     8.143838299053924   Change is   -0.000000000777740
 Root      8 :     8.458276946644538   Change is   -0.000000364853970
 Root      9 :     8.803190836938544   Change is   -0.000000504162092
 Root     10 :     8.870955786758252   Change is   -0.000000004122498
 Root     11 :     9.075580184858197   Change is   -0.000001159694442
 Root     12 :     9.351693821862746   Change is   -0.000000046123525
 Root     13 :     9.516082603697148   Change is   -0.000002028508224
 Root     14 :     9.601896694042644   Change is   -0.000000039683524
 Root     15 :     9.714965073676234   Change is   -0.000001668455054
 Convergence achieved on expansion vectors.
 ***********************************************************************
 Excited states from <AA,BB:AA,BB> singles matrix:
 ***********************************************************************
 
 1PDM for each excited state written to RWF  633
 Ground to excited state transition densities written to RWF  633
 Ground to excited state transition electric dipole moments (Au):
       state          X           Y           Z        Dip. S.      Osc.
         1        -0.5383     -0.2352      0.0091      0.3452      0.0471
         2         1.2086      0.5372      0.1001      1.7593      0.2470
         3        -0.0720     -0.0154      0.0614      0.0092      0.0015
         4         0.0416      0.0113      0.1244      0.0173      0.0030
         5         0.0091      0.0250     -0.2009      0.0411      0.0077
         6        -0.0411     -0.0195     -0.1337      0.0199      0.0038
         7         0.0120      0.0118     -0.0447      0.0023      0.0005
         8        -0.3395      0.0425      0.0046      0.1171      0.0243
         9         0.5737      0.0788     -0.0453      0.3375      0.0728
        10         0.0148      0.0232     -0.1055      0.0119      0.0026
        11         0.1432      0.1086     -0.0435      0.0342      0.0076
        12        -0.0918     -0.0059     -0.0692      0.0133      0.0030
        13         1.0395     -0.1839      0.0203      1.1148      0.2599
        14        -0.1390      0.0892      0.3849      0.1755      0.0413
        15         0.1077      0.4189     -0.0041      0.1871      0.0445
 Ground to excited state transition velocity dipole moments (Au):
       state          X           Y           Z        Dip. S.      Osc.
         1         0.0620      0.0344     -0.0765      0.0109      0.0354
         2        -0.1497     -0.0730     -0.0431      0.0296      0.0937
         3         0.0172     -0.0008     -0.0077      0.0004      0.0009
         4        -0.0079     -0.0055     -0.1598      0.0256      0.0661
         5         0.0006     -0.0088     -0.0058      0.0001      0.0003
         6         0.0076      0.0016      0.0258      0.0007      0.0017
         7        -0.0035     -0.0048      0.0135      0.0002      0.0005
         8         0.0592      0.0152      0.0106      0.0038      0.0083
         9        -0.0122     -0.0906     -0.0052      0.0084      0.0173
        10        -0.0066     -0.0073     -0.0075      0.0002      0.0003
        11        -0.0177     -0.0311     -0.0038      0.0013      0.0026
        12         0.0047      0.0003     -0.1078      0.0116      0.0226
        13        -0.1705      0.1270     -0.0024      0.0452      0.0862
        14         0.0206     -0.0238      0.0266      0.0017      0.0032
        15        -0.0206     -0.0844      0.0133      0.0077      0.0144
 Ground to excited state transition magnetic dipole moments (Au):
       state          X           Y           Z
         1        -0.0599      0.2434     -0.2324
         2        -0.0537      0.0880      0.5173
         3        -0.0302     -0.8317     -0.0433
         4        -0.1861     -0.2236      0.0339
         5         0.9330     -0.0430     -0.0162
         6         0.0504      0.2718      0.0009
         7         0.4045     -0.4569      0.0135
         8         0.0041     -0.0509     -0.0656
         9        -0.0545      0.0281      0.0331
        10        -0.2399      0.1588      0.0111
        11        -0.0127      0.0291      0.1209
        12         0.0587      0.3573     -0.0282
        13         0.0046      0.0643      0.0454
        14        -0.0412      0.0621     -0.0023
        15        -0.0276     -0.0350     -0.0881
 Ground to excited state transition velocity quadrupole moments (Au):
       state          XX          YY          ZZ          XY          XZ          YZ
         1        -0.0809      0.0934      0.0027      0.0833     -0.1303     -0.1000
         2         0.1588     -0.1824      0.0078     -0.1949     -0.0765     -0.0707
         3        -0.0513     -0.0186     -0.0114      0.0307     -0.1746     -0.0113
         4         0.0177      0.0035     -0.0019      0.0018      0.2420     -0.0218
         5         0.0245     -0.0075     -0.0017      0.0045     -0.0384     -0.1196
         6        -0.0240     -0.0091      0.0054      0.0176     -0.0942      0.1502
         7         0.0023     -0.0097      0.0126     -0.0133      0.4286      0.2561
         8         0.1351      0.2125      0.0262      0.0321      0.0067     -0.0009
         9         0.1797     -0.1575      0.0255     -0.0863     -0.0404      0.0279
        10         0.0505     -0.0142     -0.0049     -0.0183      0.0341     -0.0760
        11        -0.0029     -0.0119      0.0523      0.2283     -0.0472      0.0210
        12        -0.0382      0.0327      0.0013      0.0200     -0.2543      0.0921
        13         0.1855      0.1389      0.0337     -0.3349     -0.0202     -0.0163
        14         0.0213     -0.0434     -0.0188      0.0612     -0.0144      0.0153
        15         0.5320      0.0365      0.0718      0.0730     -0.0061     -0.0076
 <0|del|b> * <b|rxdel|0> + <0|del|b> * <b|delr+rdel|0>
 Rotatory Strengths (R) in cgs (10**-40 erg-esu-cm/Gauss)
       state          XX          YY          ZZ    R(velocity)    E-M Angle
         1        41.9092     24.5840     11.0174     25.8368       51.01
         2       -43.4970    -20.2803     -5.6759    -23.1511      103.17
         3         0.8935     -0.2045      0.6976      0.4622       88.21
         4        -4.3366     -4.7620      1.6457     -2.4843       93.33
         5         0.1375      0.7890      1.7313      0.8859       83.88
         6         1.2994      1.3442     -0.5894      0.6847       83.58
         7         5.0424     -2.3188     -0.4561      0.7559       83.89
         8        -1.4013     -0.9636     -0.4279     -0.9309      103.77
         9        -6.4786     -0.3261      2.3140     -1.4969      108.78
        10        -0.9279      2.0298     -0.3490      0.2510       84.40
        11        -3.9342      0.2808      1.2317     -0.8072      104.69
        12         1.1257      6.0775     -0.1272      2.3587       84.96
        13        11.5495      1.0951      2.0603      4.9016       64.28
        14        -0.2508     -2.2280     -2.3023     -1.5937      140.90
        15         2.2163     -1.4076      3.8494      1.5527       74.28
 1/2[<0|r|b>*<b|rxdel|0> + (<0|rxdel|b>*<b|r|0>)*]
 Rotatory Strengths (R) in cgs (10**-40 erg-esu-cm/Gauss)
       state          XX          YY          ZZ     R(length)
         1       -22.8024     40.4991      1.4887      6.3951
         2        45.9149    -33.4362    -36.6097     -8.0437
         3        -1.5406     -9.0352      1.8789     -2.8990
         4         5.4729      1.7823     -2.9822      1.4243
         5        -6.0353      0.7618     -2.2991     -2.5242
         6         1.4635      3.7529      0.0811      1.7658
         7        -3.4451      3.8278      0.4258      0.2695
         8         0.9850      1.5292      0.2137      0.9093
         9        22.0923     -1.5670      1.0610      7.1954
        10         2.5114     -2.6082      0.8272      0.2435
        11         1.2892     -2.2318      3.7219      0.9264
        12         3.8123      1.4874     -1.3827      1.3057
        13        -3.3819      8.3568     -0.6515      1.4411
        14        -4.0523     -3.9194      0.6202     -2.4505
        15         2.1061     10.3826     -0.2577      4.0770
  1/2[<0|del|b>*<b|r|0> + (<0|r|b>*<b|del|0>)*] (Au)
       state          X           Y           Z        Dip. S.   Osc.(frdel)
         1        -0.0334     -0.0081     -0.0007      0.0422      0.0281
         2        -0.1810     -0.0392     -0.0043      0.2245      0.1496
         3        -0.0012      0.0000     -0.0005      0.0017      0.0011
         4        -0.0003     -0.0001     -0.0199      0.0203      0.0135
         5         0.0000     -0.0002      0.0012     -0.0010     -0.0006
         6        -0.0003      0.0000     -0.0034      0.0038      0.0025
         7         0.0000     -0.0001     -0.0006      0.0007      0.0005
         8        -0.0201      0.0006      0.0000      0.0194      0.0129
         9        -0.0070     -0.0071      0.0002      0.0139      0.0093
        10        -0.0001     -0.0002      0.0008     -0.0005     -0.0003
        11        -0.0025     -0.0034      0.0002      0.0057      0.0038
        12        -0.0004      0.0000      0.0075     -0.0070     -0.0047
        13        -0.1772     -0.0234      0.0000      0.2006      0.1337
        14        -0.0029     -0.0021      0.0103     -0.0053     -0.0035
        15        -0.0022     -0.0353     -0.0001      0.0376      0.0251

 Excitation energies and oscillator strengths:
 
 Excited State   1:      Singlet-A      5.5706 eV  222.57 nm  f=0.0471  <S**2>=0.000
      13 -> 14         0.64347
      13 -> 15         0.22964
 This state for optimization and/or second-order correction.
 Total Energy, E(CIS) =   2.11362607470    
 Copying the excited state density for this state as the 1-particle RhoCI density.
 
 Excited State   2:      Singlet-A      5.7298 eV  216.38 nm  f=0.2470  <S**2>=0.000
      13 -> 14        -0.23178
      13 -> 15         0.64541
 
 Excited State   3:      Singlet-A      6.7980 eV  182.38 nm  f=0.0015  <S**2>=0.000
      12 -> 14        -0.48695
      12 -> 15         0.49730
 
 Excited State   4:      Singlet-A      7.0332 eV  176.28 nm  f=0.0030  <S**2>=0.000
      10 -> 16        -0.10554
      13 -> 16         0.65350
      13 -> 17        -0.15361
      13 -> 20         0.10026
 
 Excited State   5:      Singlet-A      7.6342 eV  162.41 nm  f=0.0077  <S**2>=0.000
      11 -> 14         0.44901
      11 -> 15        -0.43851
      13 -> 16         0.10782
      13 -> 17         0.27151
 
 Excited State   6:      Singlet-A      7.7909 eV  159.14 nm  f=0.0038  <S**2>=0.000
      11 -> 14        -0.20540
      11 -> 15         0.21875
      13 -> 17         0.57892
      13 -> 18        -0.11738
      13 -> 19         0.16163
 
 Excited State   7:      Singlet-A      8.1438 eV  152.24 nm  f=0.0005  <S**2>=0.000
      13 -> 16         0.10757
      13 -> 17         0.12835
      13 -> 18         0.63931
      13 -> 22        -0.22188
 
 Excited State   8:      Singlet-A      8.4583 eV  146.58 nm  f=0.0243  <S**2>=0.000
      11 -> 14        -0.14960
      11 -> 15        -0.14499
      12 -> 14         0.41980
      12 -> 15         0.41794
      12 -> 17        -0.10902
 
 Excited State   9:      Singlet-A      8.8032 eV  140.84 nm  f=0.0728  <S**2>=0.000
      10 -> 14         0.19773
      10 -> 15        -0.20289
      11 -> 14         0.29400
      11 -> 15         0.29394
      11 -> 16         0.18896
      11 -> 17        -0.21403
      12 -> 17        -0.20759
      12 -> 18         0.21870
 
 Excited State  10:      Singlet-A      8.8710 eV  139.76 nm  f=0.0026  <S**2>=0.000
      13 -> 17        -0.16885
      13 -> 19         0.64195
      13 -> 20         0.12057
 
 Excited State  11:      Singlet-A      9.0756 eV  136.61 nm  f=0.0076  <S**2>=0.000
       9 -> 14        -0.18116
       9 -> 15        -0.16059
      10 -> 14         0.33360
      10 -> 15        -0.16082
      11 -> 14        -0.26545
      11 -> 15        -0.28780
      11 -> 19         0.13354
      12 -> 17        -0.22999
      12 -> 18         0.11411
      13 -> 21         0.10719
 
 Excited State  12:      Singlet-A      9.3517 eV  132.58 nm  f=0.0030  <S**2>=0.000
      10 -> 14         0.45063
      10 -> 15         0.45304
 
 Excited State  13:      Singlet-A      9.5161 eV  130.29 nm  f=0.2599  <S**2>=0.000
      10 -> 14        -0.22147
      10 -> 15         0.30802
      11 -> 16         0.17641
      11 -> 19         0.11968
      12 -> 16         0.37509
      12 -> 17        -0.17241
      12 -> 18         0.21751
      13 -> 21        -0.10086
 
 Excited State  14:      Singlet-A      9.6019 eV  129.12 nm  f=0.0413  <S**2>=0.000
      10 -> 15        -0.12313
      13 -> 18         0.20419
      13 -> 19        -0.17003
      13 -> 20         0.38389
      13 -> 22         0.49313
 
 Excited State  15:      Singlet-A      9.7150 eV  127.62 nm  f=0.0445  <S**2>=0.000
      10 -> 14         0.16222
      10 -> 15        -0.24188
      12 -> 14         0.11694
      12 -> 16         0.52583
      12 -> 18        -0.19921
      12 -> 20         0.14604
 SavETr:  write IOETrn=   770 NScale= 10 NData=  16 NLR=1 NState=   15 LETran=     280.
 The selected state is a singlet
 CISAX will form     1 AO SS matrices at one time.
 NMat=     1 NSing=     1 JSym2X= 0.
 Leave Link  914 at Tue Dec 15 17:10:00 2015, MaxMem=    33554432 cpu:         0.1
 (Enter /home/Applications/g09/g09/l1002.exe)
 Minotr:  Closed shell wavefunction.
          Computing CIS/TD-HF/TD-KS derivatives.
          Using Z-Vector for PSCF gradient.
          Skipping F1 and S1 gradient terms here.
          IDoAtm=111111111
          Direct CPHF calculation.
          Differentiating once with respect to electric field.
                with respect to dipole field.
          Differentiating once with respect to nuclear coordinates.
          Electric field/nuclear overlap derivatives assumed to be zero.
          Requested convergence is 1.0D-10 RMS, and 1.0D-09 maximum.
          NewPWx=T KeepS1=F KeepF1=F KeepIn=T MapXYZ=F SortEE=F KeepMc=T.
          MDV=      33495423 using IRadAn=       0.
 Keep J ints in memory in canonical form, NReq=871704.
 FoFCou: FMM=F IPFlag=           0 FMFlag=           0 FMFlg1=           0
         NFxFlg=           0 DoJE=F BraDBF=F KetDBF=F FulRan=T
         wScrn=  0.000000 ICntrl=     600 IOpCl=  2 I1Cent=           0 NGrid=           0
         NMat0=    1 NMatS0=     54 NMatT0=    0 NMatD0=    1 NMtDS0=    0 NMtDT0=    0
 Symmetry not used in FoFCou.
          Solving linear equations separately, MaxMat=       0.
          There are     1 degrees of freedom in the 1st order CPHF.  IDoFFX=0 NUNeed=     1.
 LinEq1:  Iter=  0 NonCon=     1 RMS=2.12D-02 Max=1.11D-01 NDo=     1
 AX will form     1 AO Fock derivatives at one time.
 LinEq1:  Iter=  1 NonCon=     1 RMS=3.34D-03 Max=2.55D-02 NDo=     1
 LinEq1:  Iter=  2 NonCon=     1 RMS=3.93D-04 Max=1.29D-03 NDo=     1
 LinEq1:  Iter=  3 NonCon=     1 RMS=4.48D-05 Max=1.56D-04 NDo=     1
 LinEq1:  Iter=  4 NonCon=     1 RMS=5.75D-06 Max=2.04D-05 NDo=     1
 LinEq1:  Iter=  5 NonCon=     1 RMS=7.34D-07 Max=2.33D-06 NDo=     1
 LinEq1:  Iter=  6 NonCon=     1 RMS=1.04D-07 Max=3.74D-07 NDo=     1
 LinEq1:  Iter=  7 NonCon=     1 RMS=1.48D-08 Max=6.55D-08 NDo=     1
 LinEq1:  Iter=  8 NonCon=     1 RMS=2.47D-09 Max=1.14D-08 NDo=     1
 LinEq1:  Iter=  9 NonCon=     1 RMS=3.58D-10 Max=1.78D-09 NDo=     1
 LinEq1:  Iter= 10 NonCon=     0 RMS=4.19D-11 Max=1.36D-10 NDo=     1
 Linear equations converged to 1.000D-10 1.000D-09 after    10 iterations.
 End of Minotr F.D. properties file   721 does not exist.
 End of Minotr F.D. properties file   722 does not exist.
 End of Minotr F.D. properties file   788 does not exist.
 Leave Link 1002 at Tue Dec 15 17:10:00 2015, MaxMem=    33554432 cpu:         0.0
 (Enter /home/Applications/g09/g09/l601.exe)
 Copying SCF densities to generalized density rwf, IOpCl= 0 IROHF=0.

 **********************************************************************

            Population analysis using the SCF density.

 **********************************************************************

 Orbital symmetries:
       Occupied  (A) (A) (A) (A) (A) (A) (A) (A) (A) (A) (A) (A)
                 (A)
       Virtual   (A) (A) (A) (A) (A) (A) (A) (A) (A) (A) (A)
 The electronic state is 1-A.
 Alpha  occ. eigenvalues --   -1.94914  -1.23540  -0.98497  -0.81519  -0.79315
 Alpha  occ. eigenvalues --   -0.69711  -0.66412  -0.51829  -0.48444  -0.42152
 Alpha  occ. eigenvalues --   -0.38975  -0.36334  -0.26661
 Alpha virt. eigenvalues --    0.15638   0.15932   0.23224   0.26403   0.28459
 Alpha virt. eigenvalues --    0.31091   0.34126   0.34960   0.36759   0.44089
 Alpha virt. eigenvalues --    0.47995
     Molecular Orbital Coefficients:
                           1         2         3         4         5
                           O         O         O         O         O
     Eigenvalues --    -1.94914  -1.23540  -0.98497  -0.81519  -0.79315
   1 1   C  1S          0.09047   0.46228   0.26599  -0.28542  -0.07714
   2        1PX        -0.02250  -0.14006   0.26258   0.08924  -0.31560
   3        1PY        -0.13790  -0.14952  -0.05926  -0.27398   0.08778
   4        1PZ        -0.00069  -0.00833  -0.00501  -0.00718   0.01233
   5 2   C  1S          0.27205   0.21856   0.51465   0.41720  -0.05866
   6        1PX        -0.19704  -0.22893   0.11227   0.12823  -0.02641
   7        1PY        -0.20308   0.26228   0.04000  -0.38184  -0.36070
   8        1PZ         0.00818   0.00102   0.00745  -0.01197   0.01791
   9 3   O  1S          0.82792  -0.30975  -0.04373  -0.26756   0.11623
  10        1PX        -0.00298  -0.06470   0.19613   0.14340   0.25581
  11        1PY         0.06467   0.15694   0.08183   0.18150  -0.00797
  12        1PZ        -0.00211  -0.00266  -0.00088  -0.01460   0.00805
  13 4   C  1S          0.20525   0.25502  -0.48333   0.24546  -0.34965
  14        1PX         0.23169   0.07733   0.06915  -0.19223  -0.16782
  15        1PY        -0.03368   0.29283   0.01632   0.10335   0.45092
  16        1PZ         0.00442  -0.00069  -0.00412  -0.02020   0.00755
  17 5   C  1S          0.09255   0.47185  -0.24311   0.00711   0.32178
  18        1PX         0.09102   0.18710   0.20323  -0.19423  -0.14967
  19        1PY        -0.09961  -0.05632   0.18627  -0.29916   0.24374
  20        1PZ         0.00338   0.01010  -0.00681  -0.01332   0.02013
  21 6   H  1S          0.00317   0.12796  -0.12374  -0.00592   0.26891
  22 7   H  1S          0.04545   0.03249  -0.24593   0.15656  -0.23897
  23 8   H  1S          0.05163   0.00646   0.25141   0.24938  -0.03135
  24 9   H  1S          0.00192   0.12393   0.13321  -0.22634  -0.05469
                           6         7         8         9        10
                           O         O         O         O         O
     Eigenvalues --    -0.69711  -0.66412  -0.51829  -0.48444  -0.42152
   1 1   C  1S          0.01741   0.19412  -0.16814   0.01962  -0.01123
   2        1PX         0.02827   0.12543   0.05914  -0.35021   0.01674
   3        1PY        -0.00226   0.23706  -0.14013   0.22817  -0.07824
   4        1PZ         0.41748  -0.03484   0.00233   0.00458  -0.10493
   5 2   C  1S          0.01964   0.08400  -0.13762   0.02180   0.02360
   6        1PX         0.03640   0.45522   0.47942   0.28870  -0.05640
   7        1PY         0.01934   0.17517   0.29402  -0.40631   0.05844
   8        1PZ         0.60660  -0.05615  -0.01740  -0.05499  -0.64635
   9 3   O  1S          0.00169   0.20835   0.10018  -0.20998   0.01628
  10        1PX         0.00248   0.05544  -0.14730  -0.10129  -0.00177
  11        1PY        -0.00118  -0.21687  -0.10287   0.05633  -0.00545
  12        1PZ         0.25051  -0.01298   0.00989  -0.01305  -0.04828
  13 4   C  1S          0.02507   0.15458   0.02749   0.15451  -0.03590
  14        1PX        -0.04103  -0.37187   0.42020   0.43839  -0.05498
  15        1PY        -0.01624  -0.06807   0.37483  -0.32920  -0.01651
  16        1PZ         0.47806  -0.03463   0.02811   0.07036   0.66164
  17 5   C  1S         -0.00836   0.18874   0.09543   0.09500  -0.01665
  18        1PX        -0.02982  -0.21629  -0.05951   0.21383  -0.03129
  19        1PY        -0.00338   0.11840  -0.21763   0.25560   0.02924
  20        1PZ         0.39679  -0.02230   0.01198   0.04804   0.32422
  21 6   H  1S          0.02500   0.23757  -0.01081   0.04365   0.04160
  22 7   H  1S          0.03381   0.26877  -0.33447   0.00749   0.01277
  23 8   H  1S          0.01764   0.29811   0.23579   0.23868  -0.01646
  24 9   H  1S          0.01384   0.25473  -0.15584   0.06750  -0.05630
                          11        12        13        14        15
                           O         O         O         V         V
     Eigenvalues --    -0.38975  -0.36334  -0.26661   0.15638   0.15932
   1 1   C  1S          0.05516   0.10200   0.01853  -0.05963  -0.07585
   2        1PX         0.19409  -0.36567  -0.00933  -0.09647  -0.08775
   3        1PY         0.50880  -0.12002  -0.01705   0.09901   0.10908
   4        1PZ         0.00596  -0.01089   0.64002   0.43492  -0.45899
   5 2   C  1S         -0.07873  -0.14749  -0.00777  -0.13792  -0.13696
   6        1PX        -0.02473   0.22229  -0.00048  -0.35250  -0.32665
   7        1PY        -0.28065  -0.01052   0.00676   0.10177   0.09666
   8        1PZ        -0.07484  -0.00355  -0.30123  -0.11606   0.14243
   9 3   O  1S         -0.03108   0.09606   0.00623   0.00737   0.00713
  10        1PX         0.06043   0.11594   0.00317  -0.06570  -0.05703
  11        1PY         0.07291  -0.14775  -0.01224   0.06463   0.06542
  12        1PZ        -0.00933   0.01772  -0.24435   0.00574   0.00620
  13 4   C  1S          0.14052  -0.06763  -0.01210  -0.03111  -0.03323
  14        1PX         0.03370  -0.36543  -0.00947  -0.04857  -0.05166
  15        1PY         0.34691   0.08133  -0.00244   0.01365   0.00605
  16        1PZ         0.08408   0.03300  -0.45085   0.17811  -0.19460
  17 5   C  1S         -0.09234   0.02235  -0.01556  -0.04565  -0.07475
  18        1PX         0.03516   0.54143   0.01204  -0.08494  -0.04403
  19        1PY        -0.38096  -0.18123  -0.02184   0.01567  -0.02997
  20        1PZ         0.03609  -0.00099   0.48420  -0.48356   0.50934
  21 6   H  1S         -0.25855  -0.44871   0.00273  -0.05851  -0.01299
  22 7   H  1S         -0.09361   0.14029   0.00012  -0.01317  -0.02308
  23 8   H  1S         -0.05791   0.10230   0.00588   0.57457   0.53945
  24 9   H  1S          0.46445  -0.14650  -0.00610  -0.01230  -0.00524
                          16        17        18        19        20
                           V         V         V         V         V
     Eigenvalues --     0.23224   0.26403   0.28459   0.31091   0.34126
   1 1   C  1S         -0.10690  -0.01128  -0.13106   0.22114  -0.40819
   2        1PX         0.10054   0.20037  -0.26965   0.51432   0.01760
   3        1PY         0.15515  -0.36665  -0.43892  -0.23917  -0.08687
   4        1PZ        -0.00116   0.00622  -0.01492  -0.01571   0.02224
   5 2   C  1S          0.02338  -0.34925  -0.01048  -0.35519   0.04265
   6        1PX         0.01402   0.01740   0.04209  -0.06103   0.03128
   7        1PY         0.07567  -0.19889   0.02250  -0.29243   0.13021
   8        1PZ        -0.00059  -0.00322  -0.00216   0.01163  -0.03705
   9 3   O  1S          0.02132  -0.02786  -0.00180  -0.04061   0.05936
  10        1PX        -0.00670   0.01717  -0.03501   0.10610  -0.03684
  11        1PY         0.12448   0.02444   0.01655  -0.14212   0.21025
  12        1PZ        -0.00165   0.00751   0.01001  -0.03766   0.10977
  13 4   C  1S         -0.11814  -0.24556  -0.10635   0.22975   0.40577
  14        1PX         0.27547   0.07968   0.08022  -0.00563  -0.23298
  15        1PY         0.43298   0.00503  -0.01154   0.02804   0.19701
  16        1PZ        -0.00931   0.00934  -0.00875   0.00271  -0.03464
  17 5   C  1S         -0.08829  -0.06338   0.07003   0.22171  -0.21823
  18        1PX         0.03966   0.31508  -0.37829  -0.01549   0.37024
  19        1PY         0.31600  -0.23717   0.12159   0.37692   0.41852
  20        1PZ         0.01913  -0.03389   0.02580   0.02802  -0.00076
  21 6   H  1S         -0.13012   0.50355  -0.40140  -0.29827   0.12764
  22 7   H  1S          0.70683   0.25646   0.10920  -0.11382  -0.21686
  23 8   H  1S         -0.01921   0.12566  -0.01252   0.12632  -0.02516
  24 9   H  1S         -0.16739   0.31481   0.59886  -0.12379   0.24497
                          21        22        23        24
                           V         V         V         V
     Eigenvalues --     0.34960   0.36759   0.44089   0.47995
   1 1   C  1S          0.06360  -0.50801   0.15359  -0.01079
   2        1PX         0.02410   0.27349   0.08216  -0.04469
   3        1PY         0.01021   0.15961   0.01871   0.03495
   4        1PZ         0.04713   0.01758  -0.00455   0.00145
   5 2   C  1S         -0.01403   0.13691  -0.16746  -0.21225
   6        1PX        -0.00570  -0.09070   0.22875   0.07454
   7        1PY        -0.03769   0.11194  -0.05330   0.25057
   8        1PZ        -0.27477   0.00130  -0.00046  -0.00865
   9 3   O  1S         -0.00979  -0.00563   0.12426   0.03835
  10        1PX         0.00518  -0.01657  -0.40472   0.79583
  11        1PY        -0.00124  -0.02915   0.76483   0.41027
  12        1PZ         0.92708  -0.00259  -0.02826  -0.00985
  13 4   C  1S         -0.03755  -0.22962  -0.17344   0.11192
  14        1PX         0.03079  -0.00151  -0.21980   0.16327
  15        1PY        -0.03252  -0.22578  -0.07323  -0.18161
  16        1PZ        -0.20903   0.00394  -0.00117   0.00832
  17 5   C  1S          0.03873   0.63499   0.12198   0.04425
  18        1PX        -0.04471   0.25025  -0.07407  -0.04797
  19        1PY        -0.03695  -0.05878  -0.00206  -0.05645
  20        1PZ         0.03849   0.01681   0.00181  -0.00086
  21 6   H  1S         -0.02569  -0.13874  -0.08085  -0.00599
  22 7   H  1S          0.01800   0.02606  -0.04281   0.00521
  23 8   H  1S          0.00201  -0.00538  -0.03080  -0.00459
  24 9   H  1S         -0.04304   0.08614  -0.08728  -0.01417
     Density Matrix:
                           1         2         3         4         5
   1 1   C  1S          0.92122
   2        1PX        -0.03398   1.02213
   3        1PY         0.12895   0.07860   1.07051
   4        1PZ         0.01662  -0.00257  -0.00432   1.19323
   5 2   C  1S          0.33681   0.37716  -0.40018  -0.01913   1.23914
   6        1PX        -0.18473  -0.03179   0.17796   0.01011  -0.08742
   7        1PY         0.42034   0.38118  -0.35855  -0.01304  -0.24948
   8        1PZ         0.00784   0.00402  -0.00723   0.25956   0.00426
   9 3   O  1S          0.03002   0.03482  -0.04609  -0.00130   0.00874
  10        1PX         0.02030  -0.00850   0.01843   0.00259   0.26330
  11        1PY         0.02809   0.06383  -0.11267  -0.00260   0.36672
  12        1PZ        -0.00176   0.00027  -0.00298  -0.09268  -0.01422
  13 4   C  1S         -0.01061  -0.03173   0.02977  -0.00495  -0.00607
  14        1PX        -0.05403   0.00156   0.01775   0.00173   0.02975
  15        1PY         0.03396  -0.00652  -0.00900  -0.00274  -0.04915
  16        1PZ        -0.01070   0.00091   0.00700  -0.31281   0.00367
  17 5   C  1S          0.30876  -0.52668  -0.07528  -0.03455  -0.00878
  18        1PX         0.49039  -0.48632  -0.10285  -0.00372   0.01727
  19        1PY         0.21077  -0.27838   0.11474  -0.03491   0.04068
  20        1PZ         0.02828  -0.02048  -0.01639   0.88614  -0.00120
  21 6   H  1S         -0.00748  -0.01347  -0.00055   0.01195   0.11458
  22 7   H  1S          0.09122  -0.07550  -0.02734  -0.00497   0.05729
  23 8   H  1S          0.07304   0.03073  -0.08514  -0.00175   0.47581
  24 9   H  1S          0.50026   0.31391   0.77305   0.00494   0.06658
                           6         7         8         9        10
   6        1PX         1.39185
   7        1PY         0.10087   1.50493
   8        1PZ         0.01388  -0.00528   1.77829
   9 3   O  1S         -0.06199  -0.06176   0.00027   1.95290
  10        1PX        -0.00221  -0.33240   0.01203   0.05536   0.36162
  11        1PY        -0.36432  -0.29117   0.02283  -0.26417   0.02871
  12        1PZ         0.02007   0.02221   0.51794   0.01017   0.00108
  13 4   C  1S          0.00042  -0.05955   0.00652  -0.00640  -0.35309
  14        1PX         0.00494  -0.03895   0.00704   0.06433  -0.45982
  15        1PY         0.01258   0.02944  -0.00461  -0.01068   0.23851
  16        1PZ        -0.00077  -0.00344  -0.02058   0.00097  -0.01488
  17 5   C  1S          0.01171   0.04683   0.00966   0.02034  -0.02280
  18        1PX        -0.00801   0.01342  -0.00506  -0.00480   0.00276
  19        1PY        -0.00127   0.00486   0.01266  -0.04167   0.05699
  20        1PZ        -0.00343  -0.00124  -0.23703   0.00018  -0.00522
  21 6   H  1S         -0.06179   0.06829  -0.00606   0.01231  -0.04386
  22 7   H  1S         -0.03889  -0.02448   0.00293   0.01245  -0.03014
  23 8   H  1S          0.78553  -0.08697  -0.02336   0.01285   0.08510
  24 9   H  1S         -0.04203  -0.03381  -0.00011   0.01086   0.02619
                          11        12        13        14        15
  11        1PY         0.31326
  12        1PZ        -0.00523   0.25184
  13 4   C  1S          0.10797  -0.00475   1.19636
  14        1PX         0.23652  -0.01627   0.19531   1.55215
  15        1PY         0.06270   0.01164  -0.16007  -0.11500   1.36433
  16        1PZ         0.01460   0.39588   0.00938  -0.00422   0.00979
  17 5   C  1S          0.00745   0.00455   0.35726  -0.02513   0.47760
  18        1PX         0.01104   0.00110  -0.12130   0.13479  -0.10658
  19        1PY        -0.09210   0.00585  -0.54766   0.06150  -0.50431
  20        1PZ        -0.00080  -0.06963  -0.00371  -0.00490   0.00017
  21 6   H  1S          0.01231  -0.00739   0.06780   0.07251  -0.01179
  22 7   H  1S         -0.06578   0.00022   0.53944  -0.57535  -0.51113
  23 8   H  1S         -0.04873  -0.00553   0.07651   0.08163  -0.01277
  24 9   H  1S          0.02059  -0.00514   0.10863   0.02616   0.08459
                          16        17        18        19        20
  16        1PZ         1.77034
  17 5   C  1S         -0.01764   0.91455
  18        1PX         0.00705  -0.03799   1.07432
  19        1PY         0.00810   0.10420  -0.06144   1.00546
  20        1PZ         0.38770  -0.00998  -0.00130  -0.00451   1.00401
  21 6   H  1S         -0.00235   0.47620  -0.67093   0.51855   0.04031
  22 7   H  1S         -0.00129   0.06868   0.00044  -0.08046  -0.00057
  23 8   H  1S          0.00081   0.09500   0.07840   0.01383   0.00907
  24 9   H  1S          0.00283   0.00287   0.01895   0.00282  -0.00170
                          21        22        23        24
  21 6   H  1S          0.86611
  22 7   H  1S         -0.00006   0.71826
  23 8   H  1S          0.01501   0.02094   0.68990
  24 9   H  1S         -0.01040   0.01160  -0.01157   0.84327
    Full Mulliken population analysis:
                           1         2         3         4         5
   1 1   C  1S          0.92122
   2        1PX         0.00000   1.02213
   3        1PY         0.00000   0.00000   1.07051
   4        1PZ         0.00000   0.00000   0.00000   1.19323
   5 2   C  1S          0.00000   0.00000   0.00000   0.00000   1.23914
   6        1PX         0.00000   0.00000   0.00000   0.00000   0.00000
   7        1PY         0.00000   0.00000   0.00000   0.00000   0.00000
   8        1PZ         0.00000   0.00000   0.00000   0.00000   0.00000
   9 3   O  1S          0.00000   0.00000   0.00000   0.00000   0.00000
  10        1PX         0.00000   0.00000   0.00000   0.00000   0.00000
  11        1PY         0.00000   0.00000   0.00000   0.00000   0.00000
  12        1PZ         0.00000   0.00000   0.00000   0.00000   0.00000
  13 4   C  1S          0.00000   0.00000   0.00000   0.00000   0.00000
  14        1PX         0.00000   0.00000   0.00000   0.00000   0.00000
  15        1PY         0.00000   0.00000   0.00000   0.00000   0.00000
  16        1PZ         0.00000   0.00000   0.00000   0.00000   0.00000
  17 5   C  1S          0.00000   0.00000   0.00000   0.00000   0.00000
  18        1PX         0.00000   0.00000   0.00000   0.00000   0.00000
  19        1PY         0.00000   0.00000   0.00000   0.00000   0.00000
  20        1PZ         0.00000   0.00000   0.00000   0.00000   0.00000
  21 6   H  1S          0.00000   0.00000   0.00000   0.00000   0.00000
  22 7   H  1S          0.00000   0.00000   0.00000   0.00000   0.00000
  23 8   H  1S          0.00000   0.00000   0.00000   0.00000   0.00000
  24 9   H  1S          0.00000   0.00000   0.00000   0.00000   0.00000
                           6         7         8         9        10
   6        1PX         1.39185
   7        1PY         0.00000   1.50493
   8        1PZ         0.00000   0.00000   1.77829
   9 3   O  1S          0.00000   0.00000   0.00000   1.95290
  10        1PX         0.00000   0.00000   0.00000   0.00000   0.36162
  11        1PY         0.00000   0.00000   0.00000   0.00000   0.00000
  12        1PZ         0.00000   0.00000   0.00000   0.00000   0.00000
  13 4   C  1S          0.00000   0.00000   0.00000   0.00000   0.00000
  14        1PX         0.00000   0.00000   0.00000   0.00000   0.00000
  15        1PY         0.00000   0.00000   0.00000   0.00000   0.00000
  16        1PZ         0.00000   0.00000   0.00000   0.00000   0.00000
  17 5   C  1S          0.00000   0.00000   0.00000   0.00000   0.00000
  18        1PX         0.00000   0.00000   0.00000   0.00000   0.00000
  19        1PY         0.00000   0.00000   0.00000   0.00000   0.00000
  20        1PZ         0.00000   0.00000   0.00000   0.00000   0.00000
  21 6   H  1S          0.00000   0.00000   0.00000   0.00000   0.00000
  22 7   H  1S          0.00000   0.00000   0.00000   0.00000   0.00000
  23 8   H  1S          0.00000   0.00000   0.00000   0.00000   0.00000
  24 9   H  1S          0.00000   0.00000   0.00000   0.00000   0.00000
                          11        12        13        14        15
  11        1PY         0.31326
  12        1PZ         0.00000   0.25184
  13 4   C  1S          0.00000   0.00000   1.19636
  14        1PX         0.00000   0.00000   0.00000   1.55215
  15        1PY         0.00000   0.00000   0.00000   0.00000   1.36433
  16        1PZ         0.00000   0.00000   0.00000   0.00000   0.00000
  17 5   C  1S          0.00000   0.00000   0.00000   0.00000   0.00000
  18        1PX         0.00000   0.00000   0.00000   0.00000   0.00000
  19        1PY         0.00000   0.00000   0.00000   0.00000   0.00000
  20        1PZ         0.00000   0.00000   0.00000   0.00000   0.00000
  21 6   H  1S          0.00000   0.00000   0.00000   0.00000   0.00000
  22 7   H  1S          0.00000   0.00000   0.00000   0.00000   0.00000
  23 8   H  1S          0.00000   0.00000   0.00000   0.00000   0.00000
  24 9   H  1S          0.00000   0.00000   0.00000   0.00000   0.00000
                          16        17        18        19        20
  16        1PZ         1.77034
  17 5   C  1S          0.00000   0.91455
  18        1PX         0.00000   0.00000   1.07432
  19        1PY         0.00000   0.00000   0.00000   1.00546
  20        1PZ         0.00000   0.00000   0.00000   0.00000   1.00401
  21 6   H  1S          0.00000   0.00000   0.00000   0.00000   0.00000
  22 7   H  1S          0.00000   0.00000   0.00000   0.00000   0.00000
  23 8   H  1S          0.00000   0.00000   0.00000   0.00000   0.00000
  24 9   H  1S          0.00000   0.00000   0.00000   0.00000   0.00000
                          21        22        23        24
  21 6   H  1S          0.86611
  22 7   H  1S          0.00000   0.71826
  23 8   H  1S          0.00000   0.00000   0.68990
  24 9   H  1S          0.00000   0.00000   0.00000   0.84327
     Gross orbital populations:
                           1
   1 1   C  1S          0.92122
   2        1PX         1.02213
   3        1PY         1.07051
   4        1PZ         1.19323
   5 2   C  1S          1.23914
   6        1PX         1.39185
   7        1PY         1.50493
   8        1PZ         1.77829
   9 3   O  1S          1.95290
  10        1PX         0.36162
  11        1PY         0.31326
  12        1PZ         0.25184
  13 4   C  1S          1.19636
  14        1PX         1.55215
  15        1PY         1.36433
  16        1PZ         1.77034
  17 5   C  1S          0.91455
  18        1PX         1.07432
  19        1PY         1.00546
  20        1PZ         1.00401
  21 6   H  1S          0.86611
  22 7   H  1S          0.71826
  23 8   H  1S          0.68990
  24 9   H  1S          0.84327
          Condensed to atoms (all electrons):
               1          2          3          4          5          6
     1  C    4.207090   0.000000   0.000000   0.000000   0.000000   0.000000
     2  C    0.000000   5.914209   0.000000   0.000000   0.000000   0.000000
     3  O    0.000000   0.000000   2.879616   0.000000   0.000000   0.000000
     4  C    0.000000   0.000000   0.000000   5.883191   0.000000   0.000000
     5  C    0.000000   0.000000   0.000000   0.000000   3.998344   0.000000
     6  H    0.000000   0.000000   0.000000   0.000000   0.000000   0.866107
     7  H    0.000000   0.000000   0.000000   0.000000   0.000000   0.000000
     8  H    0.000000   0.000000   0.000000   0.000000   0.000000   0.000000
     9  H    0.000000   0.000000   0.000000   0.000000   0.000000   0.000000
               7          8          9
     1  C    0.000000   0.000000   0.000000
     2  C    0.000000   0.000000   0.000000
     3  O    0.000000   0.000000   0.000000
     4  C    0.000000   0.000000   0.000000
     5  C    0.000000   0.000000   0.000000
     6  H    0.000000   0.000000   0.000000
     7  H    0.718264   0.000000   0.000000
     8  H    0.000000   0.689904   0.000000
     9  H    0.000000   0.000000   0.843275
 Mulliken charges:
               1
     1  C   -0.207090
     2  C   -1.914209
     3  O    3.120384
     4  C   -1.883191
     5  C    0.001656
     6  H    0.133893
     7  H    0.281736
     8  H    0.310096
     9  H    0.156725
 Sum of Mulliken charges =   0.00000
 Mulliken charges with hydrogens summed into heavy atoms:
               1
     1  C   -0.050365
     2  C   -1.604114
     3  O    3.120384
     4  C   -1.601455
     5  C    0.135550
 Charge=              0.0000 electrons
 Dipole moment (field-independent basis, Debye):
    X=              4.2392    Y=            -10.1735    Z=              0.4093  Tot=             11.0290
 N-N= 1.045003115644D+02 E-N=-1.703301275766D+02  KE=-1.568662758383D+01
 Orbital energies and kinetic energies (alpha):
                                 1                 2
   1         O                -1.949140         -1.413858
   2         O                -1.235405         -1.096744
   3         O                -0.984968         -0.918511
   4         O                -0.815188         -0.649637
   5         O                -0.793149         -0.651779
   6         O                -0.697111         -0.583330
   7         O                -0.664118         -0.570748
   8         O                -0.518291         -0.366397
   9         O                -0.484437         -0.313677
  10         O                -0.421515         -0.322504
  11         O                -0.389751         -0.387650
  12         O                -0.363342         -0.325244
  13         O                -0.266608         -0.243236
  14         V                 0.156380         -0.181902
  15         V                 0.159317         -0.174639
  16         V                 0.232244         -0.177164
  17         V                 0.264031         -0.168252
  18         V                 0.284588         -0.184221
  19         V                 0.310908         -0.069502
  20         V                 0.341265         -0.052252
  21         V                 0.349605          0.451693
  22         V                 0.367593         -0.083858
  23         V                 0.440889          0.458104
  24         V                 0.479946          0.552120
 Total kinetic energy from orbitals=-1.568662758383D+01
 Leave Link  601 at Tue Dec 15 17:10:00 2015, MaxMem=    33554432 cpu:         0.0
 (Enter /home/Applications/g09/g09/l701.exe)
 Compute integral first derivatives.
 ... and contract with generalized density number  6.
 Leave Link  701 at Tue Dec 15 17:10:00 2015, MaxMem=    33554432 cpu:         0.0
 (Enter /home/Applications/g09/g09/l702.exe)
 L702 exits ... SP integral derivatives will be done elsewhere.
 Leave Link  702 at Tue Dec 15 17:10:00 2015, MaxMem=    33554432 cpu:         0.0
 (Enter /home/Applications/g09/g09/l703.exe)
 Compute integral first derivatives, UseDBF=F ICtDFT=           0.
 Integral derivatives from FoFJK, PRISM(SPDF).
 Calling FoFJK, ICntrl=  10005127 FMM=F ISym2X=0 I1Cent= 0 IOpClX= 0 NMat=1 NMatS=1 NMatT=0.
 FoFJK:  IHMeth= 8 ICntrl=10005127 DoSepK=F KAlg= 0 I1Cent=   0 FoldK=F
 IRaf=         0 NMat=   1 IRICut=       1 DoRegI=T DoRafI=F ISym2E= 0.
 FoFCou: FMM=F IPFlag=           0 FMFlag=      100000 FMFlg1=         800
         NFxFlg=           0 DoJE=F BraDBF=F KetDBF=F FulRan=T
         wScrn=  0.000000 ICntrl=10005127 IOpCl=  0 I1Cent=           0 NGrid=           0
         NMat0=    1 NMatS0=      1 NMatT0=    0 NMatD0=    1 NMtDS0=    0 NMtDT0=    0
 Symmetry not used in FoFCou.
 Leave Link  703 at Tue Dec 15 17:10:00 2015, MaxMem=    33554432 cpu:         0.0
 (Enter /home/Applications/g09/g09/l716.exe)
 Dipole        =-3.25689031D-01-3.45811417D+00 1.94581325D-01
 ***** Axes restored to original set *****
 -------------------------------------------------------------------
 Center     Atomic                   Forces (Hartrees/Bohr)
 Number     Number              X              Y              Z
 -------------------------------------------------------------------
      1        6           0.243784561   -0.151861665    0.005905910
      2        6          -0.263340585   -0.062198434    0.013829330
      3        8           0.065584448    0.011344696   -0.005520579
      4        6          -0.312317252    0.055354626    0.002164250
      5        6           0.284473970    0.119804915   -0.008278119
      6        1           0.023722555    0.011572942    0.000163352
      7        1          -0.035811404    0.109380608   -0.003076818
      8        1          -0.029402724   -0.075026398   -0.005261626
      9        1           0.023306431   -0.018371291    0.000074300
 -------------------------------------------------------------------
 Cartesian Forces:  Max     0.312317252 RMS     0.118276060
 Z-matrix is all fixed cartesians, so copy forces.
 Force constants in Cartesian coordinates: 
                1             2             3             4             5 
      1  0.943924D+00
      2  0.140849D-02  0.862877D+00
      3  0.977780D-02 -0.228870D-01  0.236338D+00
      4 -0.568951D+00 -0.119695D+00 -0.795507D-02  0.105067D+01
      5 -0.916567D-01 -0.223092D+00 -0.145976D-02 -0.627434D-01  0.916010D+00
      6 -0.100154D-01 -0.178898D-02 -0.115301D+00  0.123898D-02  0.109412D-01
      7 -0.843921D-02  0.303480D-01  0.892303D-03 -0.367006D+00  0.236835D+00
      8 -0.681674D-02  0.245205D-01  0.332032D-03  0.281943D+00 -0.451656D+00
      9 -0.651640D-03  0.581449D-03  0.105861D-01  0.847664D-02 -0.727856D-02
     10  0.136545D-01  0.508443D-04 -0.798658D-03  0.229093D-01  0.185422D-01
     11  0.363294D-01  0.123086D-03 -0.156553D-02 -0.168994D-01 -0.137062D-01
     12 -0.328906D-02  0.661604D-04 -0.572682D-02 -0.650680D-03 -0.890176D-03
     13 -0.178655D+00  0.163309D-01 -0.149129D-02  0.101214D-01 -0.366922D-01
     14 -0.120235D-01 -0.491770D+00  0.267618D-01  0.640733D-04 -0.253497D-03
     15 -0.123772D-02  0.238239D-01 -0.987942D-01  0.116656D-03 -0.918433D-03
     16  0.164866D-01  0.870621D-04 -0.831663D-04  0.225748D-04 -0.408285D-04
     17 -0.224776D-01 -0.263801D-03 -0.254365D-02 -0.890848D-05  0.161118D-04
     18  0.286929D-02  0.113879D-02  0.205612D-01 -0.165425D-03  0.299186D-03
     19  0.967263D-05  0.155342D-04  0.283472D-03  0.228155D-05  0.000000D+00
     20  0.123255D-04  0.197947D-04  0.361218D-03  0.294297D-05  0.106452D-05
     21  0.373356D-03  0.599609D-03  0.109418D-01  0.899434D-04  0.325339D-04
     22  0.700952D-02 -0.252533D-01 -0.351612D-03 -0.142753D+00 -0.823169D-01
     23 -0.359247D-02  0.129630D-01 -0.195137D-03 -0.764616D-01 -0.249670D+00
     24 -0.113093D-03 -0.116395D-02  0.290574D-01 -0.562875D-03 -0.150276D-02
     25 -0.225039D+00  0.967079D-01 -0.273783D-03 -0.501229D-02  0.180724D-01
     26  0.988167D-01 -0.185377D+00  0.119604D-02 -0.620148D-02  0.223507D-01
     27  0.228650D-02 -0.369998D-03 -0.876629D-01 -0.588175D-03  0.776765D-03
                6             7             8             9            10 
      6  0.209323D+00
      7  0.836041D-02  0.559457D+00
      8 -0.839287D-02 -0.142779D+00  0.685270D+00
      9 -0.498949D-01 -0.182211D-01 -0.281665D-02  0.552047D-01
     10 -0.144783D-02 -0.215787D+00 -0.141173D+00  0.945033D-02  0.989686D+00
     11  0.803037D-03 -0.977188D-01 -0.261376D+00  0.863426D-02 -0.186125D+00
     12 -0.277006D-02  0.881710D-02  0.109812D-01 -0.444532D-01 -0.133163D-01
     13  0.354278D-02 -0.103492D-01  0.765629D-02  0.952992D-03 -0.602979D+00
     14  0.213370D-03 -0.274934D-01  0.203470D-01  0.150529D-02  0.165051D+00
     15  0.297325D-02  0.145592D-02 -0.459375D-03  0.319667D-02  0.631103D-02
     16 -0.749932D-03 -0.410872D-05 -0.519071D-05 -0.159851D-03 -0.633986D-02
     17  0.295939D-03 -0.171656D-04 -0.216859D-04 -0.667832D-03  0.838458D-02
     18  0.549541D-02  0.175591D-03  0.221831D-03  0.683141D-02  0.902869D-03
     19  0.487425D-04  0.212949D-01 -0.156732D-01  0.148774D-03 -0.201154D+00
     20  0.628729D-04  0.114988D-01 -0.845649D-02  0.211006D-03  0.135262D+00
     21  0.192153D-02 -0.790700D-03  0.935364D-03  0.687011D-02 -0.157831D-02
     22 -0.960777D-03  0.208330D-01  0.168452D-01  0.101674D-03  0.160784D-05
     23 -0.228908D-02 -0.106734D-01 -0.862923D-02 -0.102741D-03 -0.425476D-05
     24 -0.765920D-01 -0.631309D-03 -0.592485D-03  0.391731D-02  0.265513D-03
     25 -0.169513D-04  0.000000D+00  0.263981D-05 -0.977773D-04  0.816438D-05
     26  0.154508D-03  0.000000D+00  0.178779D-05 -0.662187D-04  0.115873D-04
     27  0.248452D-01 -0.581716D-04 -0.209014D-03  0.774178D-02  0.211351D-03
               11            12            13            14            15 
     11  0.885983D+00
     12 -0.150450D-01  0.240953D+00
     13  0.140838D+00  0.132292D-01  0.972268D+00
     14 -0.257868D+00 -0.713439D-03 -0.648292D-01  0.882632D+00
     15 -0.868346D-03 -0.127911D+00  0.689233D-02 -0.140026D-01  0.239510D+00
     16 -0.167093D-01 -0.294971D-02 -0.218849D+00 -0.886463D-01 -0.131833D-01
     17  0.222418D-01 -0.115980D-03 -0.911442D-01 -0.168176D+00 -0.823240D-02
     18  0.126912D-02  0.315271D-01 -0.187849D-01 -0.122886D-01 -0.879873D-01
     19  0.140272D+00 -0.211421D-02  0.104758D-01  0.277891D-01 -0.139144D-03
     20 -0.375415D+00  0.546857D-02  0.565307D-02  0.149682D-01  0.699404D-03
     21  0.633698D-02 -0.103486D+00 -0.581678D-03 -0.299780D-02  0.407597D-01
     22  0.000000D+00  0.343496D-04  0.303379D-05 -0.548688D-05 -0.100782D-03
     23 -0.153901D-05 -0.908975D-04  0.138897D-05 -0.251208D-05 -0.461414D-04
     24  0.960399D-04  0.567234D-02 -0.227902D-03  0.412182D-03  0.757089D-02
     25  0.131120D-04  0.239270D-03  0.179637D-01  0.935339D-04 -0.114938D-03
     26  0.186092D-04  0.339585D-03  0.221858D-01  0.123486D-03  0.395346D-05
     27  0.339430D-03  0.619399D-02 -0.353156D-02  0.110983D-02  0.206821D-01
               16            17            18            19            20 
     16  0.208632D+00
     17  0.105243D+00  0.146181D+00
     18  0.156890D-01  0.102794D-01  0.461173D-01
     19  0.879102D-05  0.367275D-04 -0.375694D-03  0.169362D+00
     20  0.112021D-04  0.468004D-04 -0.478733D-03 -0.152441D+00  0.368835D+00
     21  0.339326D-03  0.141765D-02 -0.145015D-01  0.214806D-02 -0.632434D-02
     22  0.000000D+00  0.000000D+00  0.000000D+00  0.000000D+00  0.000000D+00
     23  0.000000D+00  0.000000D+00  0.000000D+00  0.000000D+00  0.000000D+00
     24  0.000000D+00  0.000000D+00  0.000000D+00  0.000000D+00  0.000000D+00
     25  0.424027D-04 -0.167330D-04 -0.310722D-03  0.000000D+00  0.000000D+00
     26  0.601801D-04 -0.237483D-04 -0.440992D-03  0.000000D+00  0.000000D+00
     27  0.109768D-02 -0.433167D-03 -0.804365D-02  0.000000D+00  0.000000D+00
               21            22            23            24            25 
     21  0.574940D-01
     22  0.000000D+00  0.114907D+00
     23  0.000000D+00  0.907312D-01  0.245341D+00
     24  0.000000D+00  0.113111D-02  0.265713D-02  0.413449D-01
     25  0.000000D+00 -0.184447D-05  0.000000D+00  0.138559D-03  0.212038D+00
     26  0.000000D+00 -0.124915D-05  0.000000D+00  0.938376D-04 -0.114872D+00
     27  0.000000D+00  0.146041D-03  0.668622D-04 -0.109708D-01  0.436342D-03
               26            27 
     26  0.162907D+00
     27 -0.128071D-02  0.472142D-01
 Leave Link  716 at Tue Dec 15 17:10:00 2015, MaxMem=    33554432 cpu:         0.0
 (Enter /home/Applications/g09/g09/l103.exe)

 GradGradGradGradGradGradGradGradGradGradGradGradGradGradGradGradGradGrad
 Berny optimization.
 Search for a local minimum.
 Step number   1 out of a maximum of    2
 All quantities printed in internal units (Hartrees-Bohrs-Radians)
 Second derivative matrix not updated -- first step.
 ITU=  0
     Eigenvalues ---    0.02321   0.03171   0.06559   0.06982   0.07959
     Eigenvalues ---    0.08876   0.12968   0.16104   0.16847   0.23486
     Eigenvalues ---    0.24919   0.35630   0.41773   0.45807   0.63118
     Eigenvalues ---    0.72209   1.08937   1.30230   1.49388   1.78709
     Eigenvalues ---    1.83860
 Quadratic step=1.380D+00 exceeds max=3.000D-01 adjusted using Lamda=-1.043D+00.
 Angle between NR and scaled steps=  33.64 degrees.
 Angle between quadratic step and forces=  18.52 degrees.
 Linear search not attempted -- first point.
 TrRot=  0.000690 -0.000806  0.000267  0.512635  0.000196 -0.512508
 MatCor failed.
 Variable       Old X    -DE/DX   Delta X   Delta X   Delta X     New X
                                 (Linear)    (Quad)   (Total)
    X1        1.73608   0.24378   0.00000   0.10695   0.10782   1.84390
    Y1       -1.32856  -0.15186   0.00000  -0.08071  -0.08128  -1.40983
    Z1        0.05526   0.00591   0.00000   0.00057   0.00066   0.05592
    X2       -0.68267  -0.26334   0.00000  -0.10652  -0.10556  -0.78823
    Y2       -1.99942  -0.06220   0.00000  -0.04473  -0.04564  -2.04506
    Z2        0.01898   0.01383   0.00000   0.01030   0.01089   0.02987
    X3       -2.22716   0.06558   0.00000   0.01214   0.01285  -2.21432
    Y3       -0.08953   0.01134   0.00000   0.00979   0.00871  -0.08082
    Z3        0.05893  -0.00552   0.00000  -0.00355  -0.00289   0.05604
    X4       -0.58381  -0.31232   0.00000  -0.12900  -0.12860  -0.71241
    Y4        2.14218   0.05535   0.00000   0.03761   0.03670   2.17888
    Z4       -0.05577   0.00216   0.00000  -0.00082  -0.00064  -0.05641
    X5        1.72162   0.28447   0.00000   0.11721   0.11772   1.83934
    Y5        1.27293   0.11980   0.00000   0.06686   0.06628   1.33920
    Z5       -0.08680  -0.00828   0.00000  -0.00311  -0.00329  -0.09009
    X6        3.45591   0.02372   0.00000   0.04013   0.04050   3.49641
    Y6        2.56630   0.01157   0.00000   0.02692   0.02656   2.59286
    Z6        0.08022   0.00016   0.00000   0.00215   0.00157   0.08179
    X7       -1.49599  -0.03581   0.00000  -0.04615  -0.04598  -1.54196
    Y7        3.82926   0.10938   0.00000   0.09407   0.09306   3.92232
    Z7       -0.08784  -0.00308   0.00000  -0.00169  -0.00154  -0.08937
    X8       -1.66951  -0.02940   0.00000  -0.03977  -0.03858  -1.70809
    Y8       -3.92413  -0.07503   0.00000  -0.06858  -0.06960  -3.99373
    Z8       -0.00589  -0.00526   0.00000  -0.00500  -0.00405  -0.00994
    X9        3.39754   0.02331   0.00000   0.03878   0.03982   3.43736
    Y9       -2.67232  -0.01837   0.00000  -0.03443  -0.03480  -2.70712
    Z9        0.06475   0.00007   0.00000  -0.00066  -0.00072   0.06404
         Item               Value     Threshold  Converged?
 Maximum Force            0.312317     0.000450     NO 
 RMS     Force            0.118276     0.000300     NO 
 Maximum Displacement     0.128598     0.001800     NO 
 RMS     Displacement     0.057813     0.001200     NO 
 Predicted change in Energy=-1.346255D-01
 GradGradGradGradGradGradGradGradGradGradGradGradGradGradGradGradGradGrad

 Leave Link  103 at Tue Dec 15 17:10:00 2015, MaxMem=    33554432 cpu:         0.0
 (Enter /home/Applications/g09/g09/l9999.exe)
 1\1\GINC-DUSTIN-DESKTOP\Force\RAM1-FC\STO-3G\C4H4O1\DUSTIN\15-Dec-2015
 \0\\#P AM1(Input,print) CIS(Singlets,NStates=15) pop(full) force\\AM1-
 Reparam Input\\0,1\C,0.918693,-0.703043,0.029244\C,-0.361253,-1.058048
 ,0.010042\O,-1.178564,-0.047378,0.031187\C,-0.308938,1.133591,-0.02951
 4\C,0.911044,0.673604,-0.045935\H,1.82879,1.358025,0.042448\H,-0.79164
 2,2.026356,-0.046481\H,-0.883466,-2.076559,-0.003117\H,1.797901,-1.414
 131,0.034266\\Version=ES64L-G09RevD.01\State=1-A\HF=1.9089097\RMSD=4.3
 38e-09\RMSF=1.183e-01\Dipole=-3.2247335,1.2920246,0.185082\PG=C01 [X(C
 4H4O1)]\\@


 KEEP CLOSE TO NATURES HEART, YOURSELF;
 AND BREAK CLEAR AWAY, ONCE IN A WHILE, AND
 CLIMB A MOUNTAIN OR SPEND A WEEK IN THE
 WOODS.  WASH YOUR SPIRIT CLEAN...
                                         -- JOHN MUIR
 Job cpu time:       0 days  0 hours  0 minutes  0.7 seconds.
 File lengths (MBytes):  RWF=      7 Int=      0 D2E=      0 Chk=      2 Scr=      1
 Normal termination of Gaussian 09 at Tue Dec 15 17:10:00 2015.
