 Entering Gaussian System, Link 0=g09
 Input=FuranAM1_92P2.com
 Output=FuranAM1_92P2.log
 Initial command:
 /home/Applications/g09/g09/l1.exe "/home/Applications/g09/scratch/Gau-11520.inp" -scrdir="/home/Applications/g09/scratch/"
 Entering Link 1 = /home/Applications/g09/g09/l1.exe PID=     11522.
  
 Copyright (c) 1988,1990,1992,1993,1995,1998,2003,2009,2013,
            Gaussian, Inc.  All Rights Reserved.
  
 This is part of the Gaussian(R) 09 program.  It is based on
 the Gaussian(R) 03 system (copyright 2003, Gaussian, Inc.),
 the Gaussian(R) 98 system (copyright 1998, Gaussian, Inc.),
 the Gaussian(R) 94 system (copyright 1995, Gaussian, Inc.),
 the Gaussian 92(TM) system (copyright 1992, Gaussian, Inc.),
 the Gaussian 90(TM) system (copyright 1990, Gaussian, Inc.),
 the Gaussian 88(TM) system (copyright 1988, Gaussian, Inc.),
 the Gaussian 86(TM) system (copyright 1986, Carnegie Mellon
 University), and the Gaussian 82(TM) system (copyright 1983,
 Carnegie Mellon University). Gaussian is a federally registered
 trademark of Gaussian, Inc.
  
 This software contains proprietary and confidential information,
 including trade secrets, belonging to Gaussian, Inc.
  
 This software is provided under written license and may be
 used, copied, transmitted, or stored only in accord with that
 written license.
  
 The following legend is applicable only to US Government
 contracts under FAR:
  
                    RESTRICTED RIGHTS LEGEND
  
 Use, reproduction and disclosure by the US Government is
 subject to restrictions as set forth in subparagraphs (a)
 and (c) of the Commercial Computer Software - Restricted
 Rights clause in FAR 52.227-19.
  
 Gaussian, Inc.
 340 Quinnipiac St., Bldg. 40, Wallingford CT 06492
  
  
 ---------------------------------------------------------------
 Warning -- This program may not be used in any manner that
 competes with the business of Gaussian, Inc. or will provide
 assistance to any competitor of Gaussian, Inc.  The licensee
 of this program is prohibited from giving any competitor of
 Gaussian, Inc. access to this program.  By using this program,
 the user acknowledges that Gaussian, Inc. is engaged in the
 business of creating and licensing software in the field of
 computational chemistry and represents and warrants to the
 licensee that it is not a competitor of Gaussian, Inc. and that
 it will not use this program in any manner prohibited above.
 ---------------------------------------------------------------
  

 Cite this work as:
 Gaussian 09, Revision D.01,
 M. J. Frisch, G. W. Trucks, H. B. Schlegel, G. E. Scuseria, 
 M. A. Robb, J. R. Cheeseman, G. Scalmani, V. Barone, B. Mennucci, 
 G. A. Petersson, H. Nakatsuji, M. Caricato, X. Li, H. P. Hratchian, 
 A. F. Izmaylov, J. Bloino, G. Zheng, J. L. Sonnenberg, M. Hada, 
 M. Ehara, K. Toyota, R. Fukuda, J. Hasegawa, M. Ishida, T. Nakajima, 
 Y. Honda, O. Kitao, H. Nakai, T. Vreven, J. A. Montgomery, Jr., 
 J. E. Peralta, F. Ogliaro, M. Bearpark, J. J. Heyd, E. Brothers, 
 K. N. Kudin, V. N. Staroverov, T. Keith, R. Kobayashi, J. Normand, 
 K. Raghavachari, A. Rendell, J. C. Burant, S. S. Iyengar, J. Tomasi, 
 M. Cossi, N. Rega, J. M. Millam, M. Klene, J. E. Knox, J. B. Cross, 
 V. Bakken, C. Adamo, J. Jaramillo, R. Gomperts, R. E. Stratmann, 
 O. Yazyev, A. J. Austin, R. Cammi, C. Pomelli, J. W. Ochterski, 
 R. L. Martin, K. Morokuma, V. G. Zakrzewski, G. A. Voth, 
 P. Salvador, J. J. Dannenberg, S. Dapprich, A. D. Daniels, 
 O. Farkas, J. B. Foresman, J. V. Ortiz, J. Cioslowski, 
 and D. J. Fox, Gaussian, Inc., Wallingford CT, 2013.
 
 ******************************************
 Gaussian 09:  ES64L-G09RevD.01 24-Apr-2013
                15-Dec-2015 
 ******************************************
 ------------------------------------------------------------
 #P AM1(Input,print) CIS(Singlets,NStates=15) pop(full) force
 ------------------------------------------------------------
 1/10=7,30=1,38=1/1,3;
 2/12=2,17=6,18=5,40=1/2;
 3/5=2,16=1,25=1,41=700000,71=1,135=100,136=1/1,2,8,3;
 4/35=1/1;
 5/5=2,35=1,38=5/2;
 8/6=1,10=1,108=15/1;
 9/15=2,41=15,42=1,48=1,49=10/14;
 10/5=4/2;
 6/7=3,18=1/1;
 7/12=6,13=5,29=1/1,2,3,16;
 1/10=7,30=1/3;
 99//99;
 Leave Link    1 at Tue Dec 15 17:09:48 2015, MaxMem=           0 cpu:         0.0
 (Enter /home/Applications/g09/g09/l101.exe)
 -----------------
 AM1-Reparam Input
 -----------------
 Symbolic Z-matrix:
 Charge =  0 Multiplicity = 1
 6                     0.93625  -0.76012   0.02058 
 6                    -0.33667  -1.09574   0.03102 
 8                    -1.16824   0.01502  -0.03689 
 6                    -0.31699   1.09328  -0.03885 
 6                     0.95318   0.68447  -0.04035 
 1                     1.8306    1.41662   0.04143 
 1                    -0.84773   2.03666   0.02685 
 1                    -0.82294  -2.09164  -0.04079 
 1                     1.84472  -1.39425  -0.04328 
 
 NAtoms=      9 NQM=        9 NQMF=       0 NMMI=      0 NMMIF=      0
                NMic=       0 NMicF=      0.
                    Isotopes and Nuclear Properties:
 (Nuclear quadrupole moments (NQMom) in fm**2, nuclear magnetic moments (NMagM)
  in nuclear magnetons)

  Atom         1           2           3           4           5           6           7           8           9
 IAtWgt=          12          12          16          12          12           1           1           1           1
 AtmWgt=  12.0000000  12.0000000  15.9949146  12.0000000  12.0000000   1.0078250   1.0078250   1.0078250   1.0078250
 NucSpn=           0           0           0           0           0           1           1           1           1
 AtZEff=   0.0000000   0.0000000   0.0000000   0.0000000   0.0000000   0.0000000   0.0000000   0.0000000   0.0000000
 NQMom=    0.0000000   0.0000000   0.0000000   0.0000000   0.0000000   0.0000000   0.0000000   0.0000000   0.0000000
 NMagM=    0.0000000   0.0000000   0.0000000   0.0000000   0.0000000   2.7928460   2.7928460   2.7928460   2.7928460
 AtZNuc=   6.0000000   6.0000000   8.0000000   6.0000000   6.0000000   1.0000000   1.0000000   1.0000000   1.0000000
 Leave Link  101 at Tue Dec 15 17:09:48 2015, MaxMem=    33554432 cpu:         0.0
 (Enter /home/Applications/g09/g09/l103.exe)

 GradGradGradGradGradGradGradGradGradGradGradGradGradGradGradGradGradGrad
 Berny optimization.
 Initialization pass.
 Trust Radius=3.00D-01 FncErr=1.00D-07 GrdErr=1.00D-07
 Number of steps in this run=      2 maximum allowed number of steps=      2.
 GradGradGradGradGradGradGradGradGradGradGradGradGradGradGradGradGradGrad

 Leave Link  103 at Tue Dec 15 17:09:48 2015, MaxMem=    33554432 cpu:         0.0
 (Enter /home/Applications/g09/g09/l202.exe)
                          Input orientation:                          
 ---------------------------------------------------------------------
 Center     Atomic      Atomic             Coordinates (Angstroms)
 Number     Number       Type             X           Y           Z
 ---------------------------------------------------------------------
      1          6           0        0.936245   -0.760121    0.020578
      2          6           0       -0.336674   -1.095742    0.031018
      3          8           0       -1.168240    0.015020   -0.036888
      4          6           0       -0.316987    1.093283   -0.038850
      5          6           0        0.953176    0.684474   -0.040354
      6          1           0        1.830604    1.416615    0.041430
      7          1           0       -0.847731    2.036664    0.026851
      8          1           0       -0.822943   -2.091639   -0.040789
      9          1           0        1.844717   -1.394254   -0.043283
 ---------------------------------------------------------------------
                    Distance matrix (angstroms):
                    1          2          3          4          5
     1  C    0.000000
     2  C    1.316462   0.000000
     3  O    2.243436   1.389210   0.000000
     4  C    2.238131   2.190228   1.373786   0.000000
     5  C    1.445979   2.199540   2.224542   1.334332   0.000000
     6  H    2.353400   3.318002   3.311143   2.173278   1.145687
     7  H    3.317321   3.173825   2.047885   1.084423   2.253042
     8  H    2.207136   1.110597   2.134773   3.224860   3.295664
     9  H    1.109741   2.202975   3.326260   3.295576   2.261850
                    6          7          8          9
     6  H    0.000000
     7  H    2.749209   0.000000
     8  H    4.399536   4.128931   0.000000
     9  H    2.812181   4.361811   2.757311   0.000000
 Stoichiometry    C4H4O
 Framework group  C1[X(C4H4O)]
 Deg. of freedom    21
 Full point group                 C1      NOp   1
 Largest Abelian subgroup         C1      NOp   1
 Largest concise Abelian subgroup C1      NOp   1
                         Standard orientation:                         
 ---------------------------------------------------------------------
 Center     Atomic      Atomic             Coordinates (Angstroms)
 Number     Number       Type             X           Y           Z
 ---------------------------------------------------------------------
      1          6           0        0.891225    0.800723    0.015921
      2          6           0        1.016608   -0.509661    0.031629
      3          8           0       -0.214954   -1.150807   -0.014098
      4          6           0       -1.141199   -0.136255   -0.007561
      5          6           0       -0.532356    1.050949   -0.024795
      6          1           0       -1.111574    2.035757    0.060398
      7          1           0       -2.156911   -0.506916    0.075583
      8          1           0        1.919511   -1.151118   -0.050373
      9          1           0        1.662937    1.594196   -0.063994
 ---------------------------------------------------------------------
 Rotational constants (GHZ):      9.4919000      9.2358265      4.6844359
 Leave Link  202 at Tue Dec 15 17:09:48 2015, MaxMem=    33554432 cpu:         0.0
 (Enter /home/Applications/g09/g09/l301.exe)

 Semi-emprical parameters in input format:
 Method=8 CoreType=1 PeptideFC=0.0106250000 RIJScale=0.5404210000
 ****
 H       
 PQN=1 NValence=1 F0ss=0.5085940000 ZetaOverlap=1.0856700000 U=-0.4186260000
 Beta=-0.2268830000 CoreKO=1.0354420000 KON=0,0,0,1.0458670000 KON=1,0,1,0.9802520000
 KON=0,1,1,1.0589200000 KON=2,1,1,1.0697690000 EISol=-0.4188110042 EHeat=0.0830298228
 Alpha=1.4609850000
 GCore=0.0085280000,1.4882240000,2.2676710000
 GCore=0.0003530000,1.4551640000,3.3455890000
 GCore=-0.0013010000,0.5600570000,3.4989800000
 ****
 C       
 PQN=2,2 NValence=4 F0ss=0.4494440000 F0sp=0.4261420000 F0pp=0.3388090000 F2pp=0.1878900000
 G1sp=0.2701540000
 ZetaOverlap=1.8086650000,1.3781170000
 U=-1.7687090000,-1.4557970000
 Beta=-0.5453250000,-0.3336900000 DDN=0,1,0.7474020000 DDN=1,1,0.7268010000
 CoreKO=1.1454130000 KON=0,0,0,1.1124280000 KON=1,0,1,0.8473510000 KON=0,1,1,1.1124280000
 KON=2,1,1,0.8516400000 EISol=-4.4398989268 EHeat=0.2723305520 Alpha=1.2914650000
 DipHyp=1.4947180026
 GCore=0.0007890000,1.3361580000,2.6678360000
 GCore=0.0028980000,1.2968490000,3.2840710000
 GCore=-0.0015090000,1.3827320000,3.5104240000
 GCore=-0.0000850000,1.4650940000,4.6088130000
 ****
 O       
 PQN=2,2 NValence=6 F0ss=0.5666750000 F0sp=0.5321300000 F0pp=0.4958710000 F2pp=0.2358080000
 G1sp=0.4216980000
 ZetaOverlap=2.6354490000,2.7379220000
 U=-3.5951870000,-2.0345890000
 Beta=-1.1573400000,-1.2994290000 DDN=0,1,0.4953610000 DDN=1,1,0.4852320000
 CoreKO=0.8515990000 KON=0,0,0,0.8208680000 KON=1,0,1,0.5019540000 KON=0,1,1,0.8682050000
 KON=2,1,1,0.5515580000 EISol=-11.6164441184 EHeat=0.0949133088 Alpha=2.4031680000
 DipHyp=0.9906650029
 GCore=0.0204720000,1.2640290000,1.6023330000
 GCore=0.0054290000,1.9602000000,2.7307880000
 ****
 
 Standard basis: VSTO-6G (5D, 7F)
 Ernie: Thresh=  0.10000D-02 Tol=  0.10000D-05 Strict=F.
  NNHCO=     0 NNPyr=     0 NCTC=     0               EPep=         0.000000000
    EC=        68.323176168  ECS=         2.310428060   EG=         0.371262753
   EHC=         0.000000000  EAt=       -31.051283842  AtH=         1.516354808
 EPDDG=         0.000000000  ECC=        71.004866981 EAtT=        32.567638650
 There are    24 symmetry adapted cartesian basis functions of A   symmetry.
 There are    24 symmetry adapted basis functions of A   symmetry.
    24 basis functions,   144 primitive gaussians,    24 cartesian basis functions
    13 alpha electrons       13 beta electrons
       nuclear repulsion energy       103.5725056312 Hartrees.
 IExCor=    0 DFT=F Ex=HF Corr=None ExCW=0 ScaHFX=  1.000000
 ScaDFX=  1.000000  1.000000  1.000000  1.000000 ScalE2=  1.000000  1.000000
 IRadAn=      0 IRanWt=     -1 IRanGd=            0 ICorTp=0 IEmpDi=  4
 Integral buffers will be    131072 words long.
 Regular integral format.
 Two-electron integral symmetry is turned off.
 Leave Link  301 at Tue Dec 15 17:09:48 2015, MaxMem=    33554432 cpu:         0.0
 (Enter /home/Applications/g09/g09/l302.exe)
 Do NDO integrals.
 NPDir=0 NMtPBC=     1 NCelOv=     1 NCel=       1 NClECP=     1 NCelD=      1
         NCelK=      1 NCelE2=     1 NClLst=     1 CellRange=     0.0.
 One-electron integrals computed using PRISM.
 NBasis=    24 RedAO= F EigKep=  0.00D+00  NBF=    24
 NBsUse=    24 1.00D-04 EigRej=  0.00D+00 NBFU=    24
 Leave Link  302 at Tue Dec 15 17:09:48 2015, MaxMem=    33554432 cpu:         0.0
 (Enter /home/Applications/g09/g09/l308.exe)
 Leave Link  308 at Tue Dec 15 17:09:48 2015, MaxMem=    33554432 cpu:         0.0
 (Enter /home/Applications/g09/g09/l303.exe)
 DipDrv:  MaxL=1.
 Leave Link  303 at Tue Dec 15 17:09:48 2015, MaxMem=    33554432 cpu:         0.0
 (Enter /home/Applications/g09/g09/l401.exe)
 Simple Huckel Guess.
 JPrj=0 DoOrth=F DoCkMO=F.
 Leave Link  401 at Tue Dec 15 17:09:48 2015, MaxMem=    33554432 cpu:         0.0
 (Enter /home/Applications/g09/g09/l502.exe)
 Closed shell SCF:
 Using DIIS extrapolation, IDIIS=  1040.
 Overlap will be assumed to be unity.
 Two-electron integral symmetry not used.
 Keep J ints in memory in canonical form, NReq=888082.
 IVT=       79475 IEndB=       79475 NGot=    33554432 MDV=    33473473
 LenX=    33473473 LenY=    33472456
 Requested convergence on RMS density matrix=1.00D-08 within 128 cycles.
 Requested convergence on MAX density matrix=1.00D-06.
 Requested convergence on             energy=1.00D-06.
 No special actions if energy rises.
 FoFCou: FMM=F IPFlag=           0 FMFlag=           0 FMFlg1=           0
         NFxFlg=           0 DoJE=F BraDBF=F KetDBF=F FulRan=T
         wScrn=  0.000000 ICntrl=     600 IOpCl=  2 I1Cent=           0 NGrid=           0
         NMat0=    1 NMatS0=     54 NMatT0=    0 NMatD0=    1 NMtDS0=    0 NMtDT0=    0
 Symmetry not used in FoFCou.

 Cycle   1  Pass 1  IDiag  1:
 E=  4.18100880467864    
 DIIS: error= 1.31D-01 at cycle   1 NSaved=   1.
 NSaved= 1 IEnMin= 1 EnMin=  4.18100880467864     IErMin= 1 ErrMin= 1.31D-01
 ErrMax= 1.31D-01  0.00D+00 EMaxC= 1.00D-01 BMatC= 4.83D-01 BMatP= 4.83D-01
 IDIUse=3 WtCom= 0.00D+00 WtEn= 1.00D+00
 Coeff-Com:  0.100D+01
 Coeff-En:   0.100D+01
 Coeff:      0.100D+01
 GapD=    2.000 DampG=2.000 DampE=0.250 DampFc=0.5000 IDamp=-1.
 Damping current iteration by 5.00D-01
 RMSDP=6.82D-02 MaxDP=7.52D-01              OVMax= 0.00D+00

 Cycle   2  Pass 1  IDiag  1:
 E=  3.11693611613970     Delta-E=       -1.064072688539 Rises=F Damp=T
 DIIS: error= 7.12D-02 at cycle   2 NSaved=   2.
 NSaved= 2 IEnMin= 2 EnMin=  3.11693611613970     IErMin= 2 ErrMin= 7.12D-02
 ErrMax= 7.12D-02  0.00D+00 EMaxC= 1.00D-01 BMatC= 1.65D-01 BMatP= 4.83D-01
 IDIUse=3 WtCom= 2.88D-01 WtEn= 7.12D-01
 Coeff-Com: -0.112D+01 0.212D+01
 Coeff-En:   0.000D+00 0.100D+01
 Coeff:     -0.322D+00 0.132D+01
 RMSDP=3.82D-02 MaxDP=3.82D-01 DE=-1.06D+00 OVMax= 0.00D+00

 Cycle   3  Pass 1  IDiag  1:
 E=  1.80272840952769     Delta-E=       -1.314207706612 Rises=F Damp=F
 DIIS: error= 1.44D-02 at cycle   3 NSaved=   3.
 NSaved= 3 IEnMin= 3 EnMin=  1.80272840952769     IErMin= 3 ErrMin= 1.44D-02
 ErrMax= 1.44D-02  0.00D+00 EMaxC= 1.00D-01 BMatC= 1.11D-02 BMatP= 1.65D-01
 IDIUse=3 WtCom= 8.56D-01 WtEn= 1.44D-01
 Coeff-Com:  0.331D+00-0.731D+00 0.140D+01
 Coeff-En:   0.000D+00 0.000D+00 0.100D+01
 Coeff:      0.284D+00-0.626D+00 0.134D+01
 RMSDP=9.91D-03 MaxDP=5.44D-02 DE=-1.31D+00 OVMax= 0.00D+00

 Cycle   4  Pass 1  IDiag  3:
 E=  1.75896632186188     Delta-E=       -0.043762087666 Rises=F Damp=F
 DIIS: error= 4.16D-03 at cycle   4 NSaved=   4.
 NSaved= 4 IEnMin= 4 EnMin=  1.75896632186188     IErMin= 4 ErrMin= 4.16D-03
 ErrMax= 4.16D-03  0.00D+00 EMaxC= 1.00D-01 BMatC= 9.58D-04 BMatP= 1.11D-02
 IDIUse=3 WtCom= 9.58D-01 WtEn= 4.16D-02
 Coeff-Com: -0.557D-01 0.104D+00-0.416D+00 0.137D+01
 Coeff-En:   0.000D+00 0.000D+00 0.000D+00 0.100D+01
 Coeff:     -0.534D-01 0.994D-01-0.399D+00 0.135D+01
 Gap=     0.401 Goal=   None    Shift=    0.000
 RMSDP=3.74D-03 MaxDP=2.01D-02 DE=-4.38D-02 OVMax= 4.09D-02

 Cycle   5  Pass 1  IDiag  3:
 E=  1.75458255916865     Delta-E=       -0.004383762693 Rises=F Damp=F
 DIIS: error= 9.61D-04 at cycle   5 NSaved=   5.
 NSaved= 5 IEnMin= 5 EnMin=  1.75458255916865     IErMin= 5 ErrMin= 9.61D-04
 ErrMax= 9.61D-04  0.00D+00 EMaxC= 1.00D-01 BMatC= 3.95D-05 BMatP= 9.58D-04
 IDIUse=3 WtCom= 9.90D-01 WtEn= 9.61D-03
 Coeff-Com:  0.153D-01-0.272D-01 0.137D+00-0.589D+00 0.146D+01
 Coeff-En:   0.000D+00 0.000D+00 0.000D+00 0.000D+00 0.100D+01
 Coeff:      0.152D-01-0.269D-01 0.136D+00-0.584D+00 0.146D+01
 Gap=     0.402 Goal=   None    Shift=    0.000
 RMSDP=8.39D-04 MaxDP=3.82D-03 DE=-4.38D-03 OVMax= 7.14D-03

 Cycle   6  Pass 1  IDiag  3:
 E=  1.75438490629252     Delta-E=       -0.000197652876 Rises=F Damp=F
 DIIS: error= 1.68D-04 at cycle   6 NSaved=   6.
 NSaved= 6 IEnMin= 6 EnMin=  1.75438490629252     IErMin= 6 ErrMin= 1.68D-04
 ErrMax= 1.68D-04  0.00D+00 EMaxC= 1.00D-01 BMatC= 1.32D-06 BMatP= 3.95D-05
 IDIUse=3 WtCom= 9.98D-01 WtEn= 1.68D-03
 Coeff-Com: -0.132D-02 0.279D-02-0.299D-01 0.143D+00-0.497D+00 0.138D+01
 Coeff-En:   0.000D+00 0.000D+00 0.000D+00 0.000D+00 0.000D+00 0.100D+01
 Coeff:     -0.132D-02 0.279D-02-0.298D-01 0.143D+00-0.497D+00 0.138D+01
 Gap=     0.403 Goal=   None    Shift=    0.000
 RMSDP=1.50D-04 MaxDP=9.75D-04 DE=-1.98D-04 OVMax= 8.79D-04

 Cycle   7  Pass 1  IDiag  3:
 E=  1.75437891953619     Delta-E=       -0.000005986756 Rises=F Damp=F
 DIIS: error= 2.13D-05 at cycle   7 NSaved=   7.
 NSaved= 7 IEnMin= 7 EnMin=  1.75437891953619     IErMin= 7 ErrMin= 2.13D-05
 ErrMax= 2.13D-05  0.00D+00 EMaxC= 1.00D-01 BMatC= 3.10D-08 BMatP= 1.32D-06
 IDIUse=1 WtCom= 1.00D+00 WtEn= 0.00D+00
 Coeff-Com:  0.635D-04-0.181D-03 0.767D-02-0.407D-01 0.165D+00-0.555D+00
 Coeff-Com:  0.142D+01
 Coeff:      0.635D-04-0.181D-03 0.767D-02-0.407D-01 0.165D+00-0.555D+00
 Coeff:      0.142D+01
 Gap=     0.402 Goal=   None    Shift=    0.000
 RMSDP=2.07D-05 MaxDP=1.16D-04 DE=-5.99D-06 OVMax= 1.93D-04

 Cycle   8  Pass 1  IDiag  3:
 E=  1.75437879143186     Delta-E=       -0.000000128104 Rises=F Damp=F
 DIIS: error= 2.75D-06 at cycle   8 NSaved=   8.
 NSaved= 8 IEnMin= 8 EnMin=  1.75437879143186     IErMin= 8 ErrMin= 2.75D-06
 ErrMax= 2.75D-06  0.00D+00 EMaxC= 1.00D-01 BMatC= 6.37D-10 BMatP= 3.10D-08
 IDIUse=1 WtCom= 1.00D+00 WtEn= 0.00D+00
 Coeff-Com: -0.900D-05 0.309D-05-0.118D-02 0.727D-02-0.357D-01 0.131D+00
 Coeff-Com: -0.406D+00 0.130D+01
 Coeff:     -0.900D-05 0.309D-05-0.118D-02 0.727D-02-0.357D-01 0.131D+00
 Coeff:     -0.406D+00 0.130D+01
 Gap=     0.402 Goal=   None    Shift=    0.000
 RMSDP=2.92D-06 MaxDP=1.63D-05 DE=-1.28D-07 OVMax= 2.00D-05

 Cycle   9  Pass 1  IDiag  3:
 E=  1.75437878886804     Delta-E=       -0.000000002564 Rises=F Damp=F
 DIIS: error= 5.73D-07 at cycle   9 NSaved=   9.
 NSaved= 9 IEnMin= 9 EnMin=  1.75437878886804     IErMin= 9 ErrMin= 5.73D-07
 ErrMax= 5.73D-07  0.00D+00 EMaxC= 1.00D-01 BMatC= 1.86D-11 BMatP= 6.37D-10
 IDIUse=1 WtCom= 1.00D+00 WtEn= 0.00D+00
 Coeff-Com:  0.422D-05-0.374D-05 0.201D-03-0.133D-02 0.745D-02-0.279D-01
 Coeff-Com:  0.899D-01-0.374D+00 0.131D+01
 Coeff:      0.422D-05-0.374D-05 0.201D-03-0.133D-02 0.745D-02-0.279D-01
 Coeff:      0.899D-01-0.374D+00 0.131D+01
 Gap=     0.402 Goal=   None    Shift=    0.000
 RMSDP=5.80D-07 MaxDP=4.14D-06 DE=-2.56D-09 OVMax= 5.33D-06

 Cycle  10  Pass 1  IDiag  3:
 E=  1.75437878877013     Delta-E=       -0.000000000098 Rises=F Damp=F
 DIIS: error= 1.83D-07 at cycle  10 NSaved=  10.
 NSaved=10 IEnMin=10 EnMin=  1.75437878877013     IErMin=10 ErrMin= 1.83D-07
 ErrMax= 1.83D-07  0.00D+00 EMaxC= 1.00D-01 BMatC= 1.30D-12 BMatP= 1.86D-11
 IDIUse=1 WtCom= 1.00D+00 WtEn= 0.00D+00
 Coeff-Com:  0.324D-06-0.151D-05-0.529D-04 0.375D-03-0.227D-02 0.851D-02
 Coeff-Com: -0.277D-01 0.120D+00-0.591D+00 0.149D+01
 Coeff:      0.324D-06-0.151D-05-0.529D-04 0.375D-03-0.227D-02 0.851D-02
 Coeff:     -0.277D-01 0.120D+00-0.591D+00 0.149D+01
 Gap=     0.402 Goal=   None    Shift=    0.000
 RMSDP=2.04D-07 MaxDP=1.77D-06 DE=-9.79D-11 OVMax= 2.20D-06

 Cycle  11  Pass 1  IDiag  3:
 E=  1.75437878876153     Delta-E=       -0.000000000009 Rises=F Damp=F
 DIIS: error= 4.91D-08 at cycle  11 NSaved=  11.
 NSaved=11 IEnMin=11 EnMin=  1.75437878876153     IErMin=11 ErrMin= 4.91D-08
 ErrMax= 4.91D-08  0.00D+00 EMaxC= 1.00D-01 BMatC= 8.05D-14 BMatP= 1.30D-12
 IDIUse=1 WtCom= 1.00D+00 WtEn= 0.00D+00
 Coeff-Com: -0.437D-06 0.955D-06 0.835D-05-0.707D-04 0.511D-03-0.192D-02
 Coeff-Com:  0.650D-02-0.306D-01 0.195D+00-0.694D+00 0.153D+01
 Coeff:     -0.437D-06 0.955D-06 0.835D-05-0.707D-04 0.511D-03-0.192D-02
 Coeff:      0.650D-02-0.306D-01 0.195D+00-0.694D+00 0.153D+01
 Gap=     0.402 Goal=   None    Shift=    0.000
 RMSDP=5.18D-08 MaxDP=4.49D-07 DE=-8.60D-12 OVMax= 5.50D-07

 Cycle  12  Pass 1  IDiag  3:
 E=  1.75437878876099     Delta-E=       -0.000000000001 Rises=F Damp=F
 DIIS: error= 1.28D-08 at cycle  12 NSaved=  12.
 NSaved=12 IEnMin=12 EnMin=  1.75437878876099     IErMin=12 ErrMin= 1.28D-08
 ErrMax= 1.28D-08  0.00D+00 EMaxC= 1.00D-01 BMatC= 5.23D-15 BMatP= 8.05D-14
 IDIUse=1 WtCom= 1.00D+00 WtEn= 0.00D+00
 Coeff-Com:  0.463D-07-0.107D-06-0.111D-05 0.123D-04-0.117D-03 0.433D-03
 Coeff-Com: -0.153D-02 0.814D-02-0.651D-01 0.275D+00-0.789D+00 0.157D+01
 Coeff:      0.463D-07-0.107D-06-0.111D-05 0.123D-04-0.117D-03 0.433D-03
 Coeff:     -0.153D-02 0.814D-02-0.651D-01 0.275D+00-0.789D+00 0.157D+01
 Gap=     0.402 Goal=   None    Shift=    0.000
 RMSDP=1.16D-08 MaxDP=9.76D-08 DE=-5.40D-13 OVMax= 1.02D-07

 Cycle  13  Pass 1  IDiag  3:
 E=  1.75437878876097     Delta-E=        0.000000000000 Rises=F Damp=F
 DIIS: error= 2.94D-09 at cycle  13 NSaved=  13.
 NSaved=13 IEnMin=13 EnMin=  1.75437878876097     IErMin=13 ErrMin= 2.94D-09
 ErrMax= 2.94D-09  0.00D+00 EMaxC= 1.00D-01 BMatC= 2.75D-16 BMatP= 5.23D-15
 IDIUse=1 WtCom= 1.00D+00 WtEn= 0.00D+00
 Coeff-Com:  0.205D-07-0.351D-07 0.274D-06-0.291D-05 0.309D-04-0.111D-03
 Coeff-Com:  0.393D-03-0.216D-02 0.190D-01-0.858D-01 0.269D+00-0.718D+00
 Coeff-Com:  0.152D+01
 Coeff:      0.205D-07-0.351D-07 0.274D-06-0.291D-05 0.309D-04-0.111D-03
 Coeff:      0.393D-03-0.216D-02 0.190D-01-0.858D-01 0.269D+00-0.718D+00
 Coeff:      0.152D+01
 Gap=     0.402 Goal=   None    Shift=    0.000
 RMSDP=2.75D-09 MaxDP=2.05D-08 DE=-1.42D-14 OVMax= 2.03D-08

 Cycle  14  Pass 2  IDiag  1:
 SCF Done:  E(RAM1) =   1.75437878876     A.U. after   14 cycles
            NFock= 13  Conv=0.28D-08     -V/T= 1.1135
 KE=-1.545268408817D+01 PE=-1.689202864382D+02 EE= 8.255484368397D+01
 Leave Link  502 at Tue Dec 15 17:09:48 2015, MaxMem=    33554432 cpu:         0.0
 (Enter /home/Applications/g09/g09/l801.exe)
 Range of M.O.s used for correlation:     1    24
 NBasis=    24 NAE=    13 NBE=    13 NFC=     0 NFV=     0
 NROrb=     24 NOA=    13 NOB=    13 NVA=    11 NVB=    11
 Leave Link  801 at Tue Dec 15 17:09:48 2015, MaxMem=    33554432 cpu:         0.0
 (Enter /home/Applications/g09/g09/l914.exe)
 RHF ground state
 MDV=    33554432 DFT=F DoStab=F Mixed=F DoRPA=F DoScal=F NonHer=F
 Making orbital integer symmetry assigments:
 Orbital symmetries:
       Occupied  (A) (A) (A) (A) (A) (A) (A) (A) (A) (A) (A) (A)
                 (A)
       Virtual   (A) (A) (A) (A) (A) (A) (A) (A) (A) (A) (A)
    60 initial guesses have been made.
 Convergence on wavefunction:    0.000001000000000
 Davidson Disk Diagonalization:  ConvIn= 1.00D-06 SkipCon=T Conv= 1.00D-06.
 Max sub-space:   240 roots to seek:    60 dimension of matrix:          286
 Iteration     1 Dimension    60 NMult     0 NNew     60
 CISAX will form    60 AO SS matrices at one time.
 NMat=    60 NSing=    60 JSym2X= 0.
 FoFJK:  IHMeth= 8 ICntrl=       0 DoSepK=F KAlg= 0 I1Cent=   0 FoldK=F
 IRaf=         1 NMat= 120 IRICut=       1 DoRegI=T DoRafI=F ISym2E= 0.
 FoFCou: FMM=F IPFlag=           0 FMFlag=      100000 FMFlg1=           0
         NFxFlg=           0 DoJE=F BraDBF=F KetDBF=F FulRan=T
         wScrn=  0.000000 ICntrl=       0 IOpCl=  0 I1Cent=           0 NGrid=           0
         NMat0=  120 NMatS0=     60 NMatT0=    0 NMatD0=  120 NMtDS0=    0 NMtDT0=    0
 Symmetry not used in FoFCou.
 New state      6 was old state      7
 New state      7 was old state      6
 New state      8 was old state     11
 New state      9 was old state      8
 New state     10 was old state      9
 New state     11 was old state     10
 New state     12 was old state     13
 New state     13 was old state     15
 New state     14 was old state     16
 New state     15 was old state     12
 Excitation Energies [eV] at current iteration:
 Root      1 :     5.363303805907755
 Root      2 :     6.812160492357141
 Root      3 :     6.926487905258425
 Root      4 :     6.992557358941246
 Root      5 :     7.891655563727072
 Root      6 :     8.593250469860777
 Root      7 :     8.782361291716956
 Root      8 :     9.462572623709603
 Root      9 :     9.489978666880655
 Root     10 :     9.849930582563527
 Root     11 :    10.290070914549090
 Root     12 :    10.404475362740900
 Root     13 :    10.508308939207370
 Root     14 :    10.551916599679450
 Root     15 :    10.630726051489480
 Root     16 :    11.079229733636710
 Root     17 :    11.193096898216500
 Root     18 :    11.313549096941280
 Root     19 :    11.372959103325830
 Root     20 :    11.437075926599170
 Root     21 :    11.677600307571390
 Root     22 :    11.818549074121180
 Root     23 :    11.997314285653450
 Root     24 :    12.239371758712350
 Root     25 :    12.378146119129480
 Root     26 :    12.808184486978270
 Root     27 :    13.050783459779850
 Root     28 :    13.147102156525990
 Root     29 :    13.428359930790420
 Root     30 :    13.471009750397770
 Root     31 :    13.553603630550430
 Root     32 :    13.647458092857960
 Root     33 :    14.003491637170840
 Root     34 :    14.038705411864070
 Root     35 :    14.073235537149160
 Root     36 :    14.232866452142620
 Root     37 :    14.293572843939680
 Root     38 :    14.355248237360000
 Root     39 :    14.376745149220500
 Root     40 :    14.445326358376160
 Root     41 :    14.842783830973120
 Root     42 :    15.111545787303500
 Root     43 :    15.141722504104270
 Root     44 :    15.538339232974240
 Root     45 :    15.737138183845790
 Root     46 :    15.752935711550180
 Root     47 :    16.017186763821440
 Root     48 :    16.213817955125570
 Root     49 :    16.395927359062390
 Root     50 :    16.520985055704480
 Root     51 :    16.584516255329700
 Root     52 :    16.846400185791450
 Root     53 :    16.888535722527820
 Root     54 :    17.020718295995770
 Root     55 :    17.257612035387810
 Root     56 :    17.657593076044840
 Root     57 :    17.687178918534780
 Root     58 :    17.705064169882960
 Root     59 :    17.755883392983950
 Root     60 :    18.380342003071120
 Iteration     2 Dimension   120 NMult    60 NNew     60
 CISAX will form    60 AO SS matrices at one time.
 NMat=    60 NSing=    60 JSym2X= 0.
 Root      1 not converged, maximum delta is    0.019308168185419
 Root      2 not converged, maximum delta is    0.021588732698651
 Root      3 not converged, maximum delta is    0.027191333559083
 Root      4 not converged, maximum delta is    0.027037673185031
 Root      5 not converged, maximum delta is    0.017168599792599
 Root      6 not converged, maximum delta is    0.033777660541869
 Root      7 not converged, maximum delta is    0.031298757060617
 Root      8 not converged, maximum delta is    0.224951146050500
 Root      9 not converged, maximum delta is    0.233875558554082
 Root     10 not converged, maximum delta is    0.067439833999109
 Root     11 not converged, maximum delta is    0.134789465566055
 New state     12 was old state     13
 Root     12 not converged, maximum delta is    0.334946482905788
 New state     13 was old state     12
 Root     13 not converged, maximum delta is    0.214814776733766
 Root     14 not converged, maximum delta is    0.099059852062264
 Root     15 not converged, maximum delta is    0.096460102018899
 Excitation Energies [eV] at current iteration:
 Root      1 :     5.285572998231874   Change is   -0.077730807675881
 Root      2 :     6.790155204737800   Change is   -0.022005287619341
 Root      3 :     6.905766609740469   Change is   -0.020721295517956
 Root      4 :     6.962678335472899   Change is   -0.029879023468348
 Root      5 :     7.878491789587929   Change is   -0.013163774139144
 Root      6 :     8.557570759009142   Change is   -0.035679710851636
 Root      7 :     8.751091805230526   Change is   -0.031269486486430
 Root      8 :     9.410842358769020   Change is   -0.051730264940581
 Root      9 :     9.426350041924744   Change is   -0.063628624955909
 Root     10 :     9.688597316934569   Change is   -0.161333265628958
 Root     11 :    10.195590553908330   Change is   -0.094480360640767
 Root     12 :    10.309486473875200   Change is   -0.198822465332178
 Root     13 :    10.371269201951940   Change is   -0.033206160788960
 Root     14 :    10.519139143212940   Change is   -0.032777456466515
 Root     15 :    10.551892741002310   Change is   -0.078833310487172
 Root     16 :    10.848454196620020   Change is   -0.230775537016687
 Root     17 :    11.102913769563180   Change is   -0.090183128653319
 Root     18 :    11.226003986502030   Change is   -0.087545110439247
 Root     19 :    11.275761666839010   Change is   -0.097197436486825
 Root     20 :    11.333805804845380   Change is   -0.103270121753789
 Root     21 :    11.475208240049550   Change is   -0.202392067521836
 Root     22 :    11.748849879933250   Change is   -0.069699194187931
 Root     23 :    11.795625399183940   Change is   -0.201688886469502
 Root     24 :    12.105081450222490   Change is   -0.134290308489859
 Root     25 :    12.284173409746130   Change is   -0.093972709383347
 Root     26 :    12.642815781988900   Change is   -0.165368704989365
 Root     27 :    12.783427054320330   Change is   -0.267356405459514
 Root     28 :    13.007311671072020   Change is   -0.139790485453976
 Root     29 :    13.159211172833880   Change is   -0.311798577563894
 Root     30 :    13.298976328083040   Change is   -0.129383602707375
 Root     31 :    13.328154165748480   Change is   -0.225449464801949
 Root     32 :    13.467328581054540   Change is   -0.180129511803417
 Root     33 :    13.787353315193790   Change is   -0.445513136948829
 Root     34 :    13.832184794981210   Change is   -0.171306842189636
 Root     35 :    13.864450386796380   Change is   -0.208785150352786
 Root     36 :    13.913814593130130   Change is   -0.124890818733946
 Root     37 :    14.016907889911260   Change is   -0.276664954028421
 Root     38 :    14.136530739078930   Change is   -0.308795619297224
 Root     39 :    14.268579632960250   Change is   -0.086668604399745
 Root     40 :    14.310833200743370   Change is   -0.065911948477130
 Root     41 :    14.560050862876060   Change is   -0.282732968097055
 Root     42 :    14.990543500315070   Change is   -0.151179003789200
 Root     43 :    15.061016934312850   Change is   -0.050528852990646
 Root     44 :    15.260095283037600   Change is   -0.278243949936645
 Root     45 :    15.465382245547150   Change is   -0.271755938298647
 Root     46 :    15.671486051790700   Change is   -0.081449659759474
 Root     47 :    15.888149108823220   Change is   -0.129037654998215
 Root     48 :    15.983071078865380   Change is   -0.537913976839096
 Root     49 :    16.014771058176230   Change is   -0.199046896949342
 Root     50 :    16.086718266025500   Change is   -0.309209093036893
 Root     51 :    16.154407579494530   Change is   -0.430108675835172
 Root     52 :    16.438617993705190   Change is   -1.218975082339644
 Root     53 :    16.583163331396140   Change is   -0.263236854395319
 Root     54 :    16.626897418314990   Change is   -0.261638304212827
 Root     55 :    16.640288594945570   Change is   -0.380429701050201
 Root     56 :    16.706500211799480
 Root     57 :    17.036804011115670   Change is   -0.220808024272144
 Root     58 :    17.116603232946610   Change is   -0.570575685588171
 Root     59 :    17.346754522522510   Change is   -0.409128870461434
 Root     60 :    17.404219444686270   Change is   -0.300844725196690
 Iteration     3 Dimension   135 NMult   120 NNew     15
 CISAX will form    15 AO SS matrices at one time.
 NMat=    15 NSing=    15 JSym2X= 0.
 Root      1 not converged, maximum delta is    0.001211725644185
 Root      2 not converged, maximum delta is    0.000052120697375
 Root      3 not converged, maximum delta is    0.000120276921711
 Root      4 not converged, maximum delta is    0.000058806763815
 Root      5 not converged, maximum delta is    0.000168443344146
 Root      6 not converged, maximum delta is    0.000077105284676
 Root      7 not converged, maximum delta is    0.000171360277348
 Root      8 not converged, maximum delta is    0.005659462962189
 Root      9 not converged, maximum delta is    0.005908229333889
 Root     10 not converged, maximum delta is    0.002545381559943
 Root     11 not converged, maximum delta is    0.001405873528383
 Root     12 not converged, maximum delta is    0.002665523033647
 Root     13 not converged, maximum delta is    0.001751758921442
 Root     14 not converged, maximum delta is    0.001899039840374
 Root     15 not converged, maximum delta is    0.002373071542539
 Excitation Energies [eV] at current iteration:
 Root      1 :     5.285294680395385   Change is   -0.000278317836490
 Root      2 :     6.790154364796102   Change is   -0.000000839941698
 Root      3 :     6.905764376065584   Change is   -0.000002233674885
 Root      4 :     6.962676452618275   Change is   -0.000001882854623
 Root      5 :     7.878487272301029   Change is   -0.000004517286901
 Root      6 :     8.557568459291756   Change is   -0.000002299717386
 Root      7 :     8.751081342352855   Change is   -0.000010462877672
 Root      8 :     9.410652789633197   Change is   -0.000189569135824
 Root      9 :     9.426136149337932   Change is   -0.000213892586812
 Root     10 :     9.687551902644618   Change is   -0.001045414289953
 Root     11 :    10.195179374808770   Change is   -0.000411179099555
 Root     12 :    10.308819392465220   Change is   -0.000667081409976
 Root     13 :    10.371110803702010   Change is   -0.000158398249931
 Root     14 :    10.519099527178190   Change is   -0.000039616034743
 Root     15 :    10.551484196933180   Change is   -0.000408544069131
 Iteration     4 Dimension   143 NMult   135 NNew      8
 CISAX will form     8 AO SS matrices at one time.
 NMat=     8 NSing=     8 JSym2X= 0.
 Root      1 not converged, maximum delta is    0.000050021704306
 Root      2 not converged, maximum delta is    0.000001843251515
 Root      3 not converged, maximum delta is    0.000005015418788
 Root      4 not converged, maximum delta is    0.000003895027175
 Root      5 not converged, maximum delta is    0.000008036259965
 Root      6 not converged, maximum delta is    0.000004081799666
 Root      7 not converged, maximum delta is    0.000011482128589
 Root      8 not converged, maximum delta is    0.000034877193159
 Root      9 not converged, maximum delta is    0.000034427396634
 Root     10 not converged, maximum delta is    0.000079354693221
 Root     11 not converged, maximum delta is    0.000123198365998
 Root     12 not converged, maximum delta is    0.000083994377475
 Root     13 not converged, maximum delta is    0.000029080095703
 Root     14 not converged, maximum delta is    0.000035988662436
 Root     15 not converged, maximum delta is    0.000081590069909
 Excitation Energies [eV] at current iteration:
 Root      1 :     5.285294207254962   Change is   -0.000000473140422
 Root      2 :     6.790154363810522   Change is   -0.000000000985580
 Root      3 :     6.905764370328257   Change is   -0.000000005737327
 Root      4 :     6.962676449099788   Change is   -0.000000003518488
 Root      5 :     7.878487256730969   Change is   -0.000000015570060
 Root      6 :     8.557568455560482   Change is   -0.000000003731274
 Root      7 :     8.751081308074927   Change is   -0.000000034277928
 Root      8 :     9.410652403813554   Change is   -0.000000385819643
 Root      9 :     9.426135768155158   Change is   -0.000000381182774
 Root     10 :     9.687550385453182   Change is   -0.000001517191435
 Root     11 :    10.195176832290950   Change is   -0.000002542517826
 Root     12 :    10.308818007718020   Change is   -0.000001384747200
 Root     13 :    10.371110560063840   Change is   -0.000000243638165
 Root     14 :    10.519099250337080   Change is   -0.000000276841113
 Root     15 :    10.551482351490320   Change is   -0.000001845442857
 Convergence achieved on expansion vectors.
 ***********************************************************************
 Excited states from <AA,BB:AA,BB> singles matrix:
 ***********************************************************************
 
 1PDM for each excited state written to RWF  633
 Ground to excited state transition densities written to RWF  633
 Ground to excited state transition electric dipole moments (Au):
       state          X           Y           Z        Dip. S.      Osc.
         1        -1.6256      0.3130     -0.0872      2.7480      0.3558
         2         0.0333     -0.0003      0.0038      0.0011      0.0002
         3         0.0960     -0.0074      0.1036      0.0200      0.0034
         4        -0.0462      0.0492     -0.0294      0.0054      0.0009
         5        -0.1060      0.0235      0.1906      0.0481      0.0093
         6         0.0045     -0.0296      0.0346      0.0021      0.0004
         7        -0.1048      0.0251     -0.1574      0.0364      0.0078
         8         0.1303      0.2891      0.0189      0.1009      0.0233
         9         0.1391      0.3103     -0.0448      0.1176      0.0272
        10        -0.4118      0.1346      0.0113      0.1878      0.0446
        11        -0.6469     -0.1662      0.0079      0.4462      0.1114
        12         0.7087     -0.4851      0.1540      0.7613      0.1923
        13         0.2335     -0.2877     -0.5544      0.4447      0.1130
        14        -0.0928     -0.1150     -0.2288      0.0742      0.0191
        15        -0.2452     -0.4287      0.1782      0.2757      0.0713
 Ground to excited state transition velocity dipole moments (Au):
       state          X           Y           Z        Dip. S.      Osc.
         1         0.1808     -0.0361     -0.0010      0.0340      0.1167
         2        -0.0074     -0.0003     -0.0227      0.0006      0.0015
         3        -0.0191     -0.0015     -0.1626      0.0268      0.0704
         4         0.0065     -0.0136      0.0414      0.0019      0.0051
         5         0.0202     -0.0045     -0.0259      0.0011      0.0025
         6        -0.0010      0.0054     -0.0028      0.0000      0.0001
         7         0.0138     -0.0019      0.0593      0.0037      0.0077
         8        -0.0375     -0.1256     -0.0126      0.0173      0.0334
         9        -0.0429     -0.1302      0.0161      0.0190      0.0366
        10         0.1046     -0.0576      0.0110      0.0144      0.0269
        11         0.0706     -0.0112     -0.0099      0.0052      0.0093
        12        -0.0821      0.0646      0.0154      0.0112      0.0196
        13        -0.0201      0.0632     -0.0315      0.0054      0.0094
        14         0.0201      0.0524     -0.0157      0.0034      0.0058
        15         0.0536      0.1812      0.0146      0.0359      0.0617
 Ground to excited state transition magnetic dipole moments (Au):
       state          X           Y           Z
         1         0.0493      0.0057     -0.5632
         2        -0.0917     -0.3146      0.0096
         3        -0.1329     -0.1298      0.0304
         4        -0.1717     -0.8751     -0.0224
         5        -0.8918      0.2394     -0.0438
         6        -0.1254     -0.5726      0.0086
         7         0.4722     -0.1235     -0.0290
         8        -0.0741      0.0104      0.0022
         9         0.0932      0.0169      0.0259
        10        -0.0097      0.0135     -0.1406
        11         0.0284      0.0065     -0.0468
        12        -0.0111      0.0452      0.0769
        13        -0.0390     -0.0098      0.0030
        14        -0.0027      0.0109     -0.0261
        15         0.0054     -0.0160     -0.0145
 Ground to excited state transition velocity quadrupole moments (Au):
       state          XX          YY          ZZ          XY          XZ          YZ
         1         0.1189     -0.1021      0.0023      0.2689      0.0047     -0.0028
         2         0.0298     -0.0077     -0.0056     -0.0122      0.2697     -0.0651
         3        -0.0141     -0.0018     -0.0057     -0.0276     -0.0866     -0.0833
         4        -0.0345     -0.0601     -0.0102      0.0095     -0.1731      0.0733
         5         0.0178     -0.0177     -0.0010      0.0396      0.0415      0.0996
         6        -0.0049      0.0358      0.0024      0.0102      0.4290     -0.0802
         7        -0.0036     -0.0052     -0.0051      0.0334      0.0374      0.2069
         8         0.0999     -0.2412      0.0283     -0.0860     -0.1622     -0.0158
         9         0.1470     -0.2414      0.0354     -0.1009      0.1090      0.0028
        10         0.0842     -0.0890      0.0082      0.0895     -0.0012      0.0073
        11        -0.3762     -0.2147     -0.1092      0.2327      0.0203     -0.0060
        12        -0.3952     -0.0623     -0.0462     -0.0970     -0.0058      0.0338
        13        -0.1128     -0.0307      0.0015     -0.0680      0.0026     -0.0657
        14         0.0161     -0.1101      0.0528     -0.0063      0.0101     -0.0371
        15         0.0484     -0.2781      0.1026     -0.0090      0.0237      0.0075
 <0|del|b> * <b|rxdel|0> + <0|del|b> * <b|delr+rdel|0>
 Rotatory Strengths (R) in cgs (10**-40 erg-esu-cm/Gauss)
       state          XX          YY          ZZ    R(velocity)    E-M Angle
         1         0.4690     16.8303     16.4896     11.2630       84.89
         2         0.3474      0.9417      0.2995      0.5295       85.90
         3        -0.5556     -7.3929      1.7814     -2.0557       94.12
         4        12.5015     -2.7024     17.5779      9.1257       75.39
         5        -0.9553    -16.9348    -26.0487    -14.6462      125.87
         6        -6.1567      0.2472     -0.8210     -2.2435      145.54
         7         0.6202      6.2628      4.2154      3.6995       80.24
         8       -21.0926      2.3031     21.7338      0.9814       81.60
         9        10.9987     -2.1154    -20.6787     -3.9318      115.25
        10        -1.3988     -2.7643     -2.4648     -2.2093      101.33
        11        -1.5835      4.0920      2.0085      1.5057       53.02
        12         2.7882      0.7623      5.8252      3.1252       58.07
        13         1.1708     -0.1179     -0.9201      0.0442       90.00
        14         0.5032     -0.4452      1.6377      0.5653       55.97
        15        -6.8783      0.5607      1.1674     -1.7167      131.93
 1/2[<0|r|b>*<b|rxdel|0> + (<0|rxdel|b>*<b|r|0>)*]
 Rotatory Strengths (R) in cgs (10**-40 erg-esu-cm/Gauss)
       state          XX          YY          ZZ     R(length)
         1        56.7272     -1.2666    -34.7454      6.9051
         2         2.1617     -0.0664     -0.0256      0.6899
         3         9.0190     -0.6797     -2.2285      2.0369
         4        -5.6112     30.4474     -0.4649      8.1238
         5       -66.8216     -3.9798      5.9080    -21.6311
         6         0.3955    -11.9696     -0.2094     -3.9278
         7        34.9951      2.1876     -3.2314     11.3171
         8         6.8223     -2.1265     -0.0290      1.5556
         9        -9.1655     -3.7101      0.8216     -4.0180
        10        -2.8204     -1.2823      1.1192     -0.9945
        11        12.9818      0.7607      0.2628      4.6685
        12         5.5757     15.5240     -8.3727      4.2424
        13         6.4367     -1.9933      1.1789      1.8741
        14        -0.1748      0.8864     -4.2299     -1.1728
        15         0.9450     -4.8598      1.8301     -0.6949
  1/2[<0|del|b>*<b|r|0> + (<0|r|b>*<b|del|0>)*] (Au)
       state          X           Y           Z        Dip. S.   Osc.(frdel)
         1        -0.2940     -0.0113      0.0001      0.3052      0.2035
         2        -0.0002      0.0000     -0.0001      0.0003      0.0002
         3        -0.0018      0.0000     -0.0168      0.0187      0.0124
         4        -0.0003     -0.0007     -0.0012      0.0022      0.0015
         5        -0.0021     -0.0001     -0.0049      0.0072      0.0048
         6         0.0000     -0.0002     -0.0001      0.0003      0.0002
         7        -0.0015      0.0000     -0.0093      0.0108      0.0072
         8        -0.0049     -0.0363     -0.0002      0.0414      0.0276
         9        -0.0060     -0.0404     -0.0007      0.0471      0.0314
        10        -0.0431     -0.0078      0.0001      0.0507      0.0338
        11        -0.0457      0.0019     -0.0001      0.0439      0.0293
        12        -0.0582     -0.0313      0.0024      0.0872      0.0581
        13        -0.0047     -0.0182      0.0175      0.0054      0.0036
        14        -0.0019     -0.0060      0.0036      0.0043      0.0029
        15        -0.0131     -0.0777      0.0026      0.0882      0.0588

 Excitation energies and oscillator strengths:
 
 Excited State   1:      Singlet-A      5.2853 eV  234.58 nm  f=0.3558  <S**2>=0.000
      13 -> 14         0.69441
 This state for optimization and/or second-order correction.
 Total Energy, E(CIS) =   1.94860978540    
 Copying the excited state density for this state as the 1-particle RhoCI density.
 
 Excited State   2:      Singlet-A      6.7902 eV  182.59 nm  f=0.0002  <S**2>=0.000
      13 -> 15         0.67359
      13 -> 19        -0.14067
 
 Excited State   3:      Singlet-A      6.9058 eV  179.54 nm  f=0.0034  <S**2>=0.000
      12 -> 14         0.15412
      13 -> 16         0.65942
      13 -> 17        -0.13777
 
 Excited State   4:      Singlet-A      6.9627 eV  178.07 nm  f=0.0009  <S**2>=0.000
      12 -> 14         0.68423
      13 -> 16        -0.14855
 
 Excited State   5:      Singlet-A      7.8785 eV  157.37 nm  f=0.0093  <S**2>=0.000
      11 -> 14         0.69712
 
 Excited State   6:      Singlet-A      8.5576 eV  144.88 nm  f=0.0004  <S**2>=0.000
      13 -> 15         0.10877
      13 -> 17        -0.10288
      13 -> 18         0.60717
      13 -> 19         0.20346
      13 -> 22         0.23970
 
 Excited State   7:      Singlet-A      8.7511 eV  141.68 nm  f=0.0078  <S**2>=0.000
      13 -> 16         0.11874
      13 -> 17         0.67334
 
 Excited State   8:      Singlet-A      9.4107 eV  131.75 nm  f=0.0233  <S**2>=0.000
      10 -> 14         0.44519
      12 -> 16         0.11373
      13 -> 18        -0.18785
      13 -> 19         0.46341
      13 -> 20         0.11175
 
 Excited State   9:      Singlet-A      9.4261 eV  131.53 nm  f=0.0272  <S**2>=0.000
      10 -> 14         0.45159
      12 -> 16         0.12947
      13 -> 18         0.17156
      13 -> 19        -0.44759
      13 -> 20         0.12873
 
 Excited State  10:      Singlet-A      9.6876 eV  127.98 nm  f=0.0446  <S**2>=0.000
       8 -> 16         0.12432
      11 -> 17         0.19663
      12 -> 15         0.53380
      12 -> 18        -0.26479
      12 -> 19        -0.11408
 
 Excited State  11:      Singlet-A     10.1952 eV  121.61 nm  f=0.1114  <S**2>=0.000
      10 -> 14        -0.11576
      11 -> 15         0.27490
      11 -> 16         0.17815
      11 -> 17        -0.15768
      12 -> 15         0.31468
      12 -> 16         0.41761
      12 -> 17        -0.14994
      12 -> 18         0.13464
 
 Excited State  12:      Singlet-A     10.3088 eV  120.27 nm  f=0.1923  <S**2>=0.000
      10 -> 14        -0.12067
      11 -> 16        -0.29128
      11 -> 17         0.20122
      12 -> 15        -0.16741
      12 -> 16         0.40751
      12 -> 18        -0.23117
      13 -> 21        -0.23521
 
 Excited State  13:      Singlet-A     10.3711 eV  119.55 nm  f=0.1130  <S**2>=0.000
      11 -> 16        -0.12263
      11 -> 17         0.10006
      12 -> 16         0.12940
      12 -> 18        -0.10461
      13 -> 20         0.23795
      13 -> 21         0.55888
      13 -> 22        -0.19657
 
 Excited State  14:      Singlet-A     10.5191 eV  117.87 nm  f=0.0191  <S**2>=0.000
      13 -> 18        -0.19315
      13 -> 20         0.22469
      13 -> 21         0.14404
      13 -> 22         0.60146
 
 Excited State  15:      Singlet-A     10.5515 eV  117.50 nm  f=0.0713  <S**2>=0.000
      10 -> 14        -0.15632
      11 -> 15        -0.10144
      13 -> 20         0.57413
      13 -> 21        -0.28746
      13 -> 22        -0.15623
 SavETr:  write IOETrn=   770 NScale= 10 NData=  16 NLR=1 NState=   15 LETran=     280.
 The selected state is a singlet
 CISAX will form     1 AO SS matrices at one time.
 NMat=     1 NSing=     1 JSym2X= 0.
 Leave Link  914 at Tue Dec 15 17:09:48 2015, MaxMem=    33554432 cpu:         0.1
 (Enter /home/Applications/g09/g09/l1002.exe)
 Minotr:  Closed shell wavefunction.
          Computing CIS/TD-HF/TD-KS derivatives.
          Using Z-Vector for PSCF gradient.
          Skipping F1 and S1 gradient terms here.
          IDoAtm=111111111
          Direct CPHF calculation.
          Differentiating once with respect to electric field.
                with respect to dipole field.
          Differentiating once with respect to nuclear coordinates.
          Electric field/nuclear overlap derivatives assumed to be zero.
          Requested convergence is 1.0D-10 RMS, and 1.0D-09 maximum.
          NewPWx=T KeepS1=F KeepF1=F KeepIn=T MapXYZ=F SortEE=F KeepMc=T.
          MDV=      33495423 using IRadAn=       0.
 Keep J ints in memory in canonical form, NReq=871704.
 FoFCou: FMM=F IPFlag=           0 FMFlag=           0 FMFlg1=           0
         NFxFlg=           0 DoJE=F BraDBF=F KetDBF=F FulRan=T
         wScrn=  0.000000 ICntrl=     600 IOpCl=  2 I1Cent=           0 NGrid=           0
         NMat0=    1 NMatS0=     54 NMatT0=    0 NMatD0=    1 NMtDS0=    0 NMtDT0=    0
 Symmetry not used in FoFCou.
          Solving linear equations separately, MaxMat=       0.
          There are     1 degrees of freedom in the 1st order CPHF.  IDoFFX=0 NUNeed=     1.
 LinEq1:  Iter=  0 NonCon=     1 RMS=6.79D-03 Max=4.86D-02 NDo=     1
 AX will form     1 AO Fock derivatives at one time.
 LinEq1:  Iter=  1 NonCon=     1 RMS=5.40D-04 Max=1.98D-03 NDo=     1
 LinEq1:  Iter=  2 NonCon=     1 RMS=6.41D-05 Max=3.12D-04 NDo=     1
 LinEq1:  Iter=  3 NonCon=     1 RMS=7.62D-06 Max=3.50D-05 NDo=     1
 LinEq1:  Iter=  4 NonCon=     1 RMS=1.15D-06 Max=5.20D-06 NDo=     1
 LinEq1:  Iter=  5 NonCon=     1 RMS=1.11D-07 Max=4.23D-07 NDo=     1
 LinEq1:  Iter=  6 NonCon=     1 RMS=1.30D-08 Max=6.00D-08 NDo=     1
 LinEq1:  Iter=  7 NonCon=     1 RMS=1.69D-09 Max=6.47D-09 NDo=     1
 LinEq1:  Iter=  8 NonCon=     1 RMS=2.45D-10 Max=9.75D-10 NDo=     1
 LinEq1:  Iter=  9 NonCon=     0 RMS=3.55D-11 Max=1.57D-10 NDo=     1
 Linear equations converged to 1.000D-10 1.000D-09 after     9 iterations.
 End of Minotr F.D. properties file   721 does not exist.
 End of Minotr F.D. properties file   722 does not exist.
 End of Minotr F.D. properties file   788 does not exist.
 Leave Link 1002 at Tue Dec 15 17:09:48 2015, MaxMem=    33554432 cpu:         0.0
 (Enter /home/Applications/g09/g09/l601.exe)
 Copying SCF densities to generalized density rwf, IOpCl= 0 IROHF=0.

 **********************************************************************

            Population analysis using the SCF density.

 **********************************************************************

 Orbital symmetries:
       Occupied  (A) (A) (A) (A) (A) (A) (A) (A) (A) (A) (A) (A)
                 (A)
       Virtual   (A) (A) (A) (A) (A) (A) (A) (A) (A) (A) (A)
 The electronic state is 1-A.
 Alpha  occ. eigenvalues --   -1.90252  -1.17081  -0.91935  -0.81094  -0.77734
 Alpha  occ. eigenvalues --   -0.69155  -0.67294  -0.55543  -0.54445  -0.46542
 Alpha  occ. eigenvalues --   -0.43224  -0.40383  -0.28481
 Alpha virt. eigenvalues --    0.11762   0.18873   0.19272   0.27591   0.28872
 Alpha virt. eigenvalues --    0.31191   0.32792   0.33502   0.36603   0.41931
 Alpha virt. eigenvalues --    0.44900
     Molecular Orbital Coefficients:
                           1         2         3         4         5
                           O         O         O         O         O
     Eigenvalues --    -1.90252  -1.17081  -0.91935  -0.81094  -0.77734
   1 1   C  1S          0.07599   0.46760  -0.27450  -0.21836  -0.17338
   2        1PX        -0.07248  -0.18940  -0.21138  -0.20467   0.11289
   3        1PY        -0.09127  -0.10059   0.16834   0.00596  -0.37515
   4        1PZ        -0.00198  -0.00622   0.01215  -0.00082   0.00850
   5 2   C  1S          0.22122   0.25293  -0.47024   0.15852   0.42534
   6        1PX        -0.24497  -0.10942  -0.10953  -0.23777   0.09043
   7        1PY        -0.08188   0.32337  -0.01499  -0.45946  -0.20773
   8        1PZ        -0.00982  -0.00699   0.02823  -0.01413  -0.01290
   9 3   O  1S          0.84621  -0.27876  -0.02237   0.02231  -0.24607
  10        1PX         0.00500   0.02876  -0.16110   0.29614   0.04982
  11        1PY         0.04231   0.14654   0.03979  -0.05541   0.11975
  12        1PZ         0.00090   0.00135   0.00432   0.00252   0.00570
  13 4   C  1S          0.22901   0.23009   0.49919  -0.23954   0.36166
  14        1PX         0.20484   0.21689  -0.08351   0.00922  -0.14908
  15        1PY        -0.16729   0.25966   0.05153   0.54612  -0.07616
  16        1PZ        -0.00032   0.00139   0.01305  -0.00563   0.01344
  17 5   C  1S          0.07845   0.45617   0.28145   0.22319  -0.14336
  18        1PX         0.03438   0.15054  -0.26630  -0.15892  -0.25227
  19        1PY        -0.11371  -0.15790  -0.09645   0.08122  -0.27756
  20        1PZ         0.00133   0.00931   0.01324   0.00282  -0.00003
  21 6   H  1S          0.00206   0.11783   0.14633   0.16586  -0.11349
  22 7   H  1S          0.05053   0.01145   0.26136  -0.16951   0.25330
  23 8   H  1S          0.04223   0.02452  -0.24851   0.07786   0.28625
  24 9   H  1S          0.00211   0.13021  -0.13859  -0.16259  -0.16540
                           6         7         8         9        10
                           O         O         O         O         O
     Eigenvalues --    -0.69155  -0.67294  -0.55543  -0.54445  -0.46542
   1 1   C  1S          0.20917   0.03432  -0.15581  -0.01854  -0.02433
   2        1PX         0.20251   0.00943   0.08244   0.18161  -0.00037
   3        1PY         0.16758  -0.00344  -0.08851  -0.36611  -0.01972
   4        1PZ        -0.03597   0.39601   0.04999   0.01379  -0.23079
   5 2   C  1S          0.08437   0.03981  -0.14366  -0.06787  -0.04282
   6        1PX         0.42544  -0.00941   0.57843  -0.10700   0.02788
   7        1PY        -0.02953   0.00922   0.05481   0.52293   0.03800
   8        1PZ        -0.05496   0.55690   0.07867   0.01786  -0.66261
   9 3   O  1S          0.22973   0.01856   0.10626   0.21628   0.01474
  10        1PX        -0.02343   0.01201  -0.17557   0.04973  -0.00658
  11        1PY        -0.21458  -0.02157  -0.01828  -0.12103  -0.00259
  12        1PZ        -0.01904   0.20208   0.00186  -0.01199   0.00623
  13 4   C  1S          0.07511  -0.02567   0.04156  -0.14643  -0.01429
  14        1PX        -0.42171  -0.05575   0.54682  -0.25803   0.03929
  15        1PY         0.17520   0.00779   0.18248   0.42844   0.03548
  16        1PZ        -0.01902   0.56787  -0.01481  -0.04677   0.67457
  17 5   C  1S          0.22830  -0.00411   0.08318  -0.14307  -0.01531
  18        1PX        -0.15470   0.00179  -0.19696  -0.24707  -0.00856
  19        1PY         0.23121   0.04098  -0.15371  -0.20206  -0.02962
  20        1PZ        -0.01476   0.39759   0.01885  -0.02242   0.20603
  21 6   H  1S          0.26242   0.02961   0.01608  -0.10788  -0.01572
  22 7   H  1S          0.24044   0.03433  -0.31804   0.00986  -0.01115
  23 8   H  1S          0.24642  -0.00051   0.19589  -0.24637  -0.00003
  24 9   H  1S          0.24990   0.00824  -0.08941  -0.09759  -0.01690
                          11        12        13        14        15
                           O         O         O         V         V
     Eigenvalues --    -0.43224  -0.40383  -0.28481   0.11762   0.18873
   1 1   C  1S         -0.10645  -0.03568   0.01375   0.00277  -0.00891
   2        1PX        -0.29501   0.49736  -0.00039   0.00993   0.15646
   3        1PY        -0.40741   0.02272   0.04065   0.03884  -0.13768
   4        1PZ         0.01434  -0.00278   0.56940   0.67558   0.00169
   5 2   C  1S          0.09533   0.11351  -0.00714   0.00058   0.07002
   6        1PX         0.09505  -0.30402  -0.00887  -0.01006   0.21236
   7        1PY         0.25617   0.05764  -0.00342   0.01999  -0.18078
   8        1PZ        -0.03765  -0.02274  -0.38492  -0.22370  -0.00485
   9 3   O  1S          0.00595  -0.10554  -0.00268   0.00062   0.00221
  10        1PX        -0.08495   0.02931   0.00720   0.00442   0.06181
  11        1PY        -0.00443   0.17931   0.00367   0.00807   0.01462
  12        1PZ        -0.01628   0.00390  -0.20197  -0.00284  -0.02151
  13 4   C  1S         -0.12333   0.07673   0.00796  -0.00140  -0.13103
  14        1PX        -0.05229   0.26345  -0.01378   0.02018   0.37920
  15        1PY        -0.29252  -0.11620   0.00148   0.01028   0.17990
  16        1PZ        -0.02712   0.00280  -0.36171   0.21412  -0.02193
  17 5   C  1S          0.13489  -0.04204  -0.02184   0.01547  -0.03258
  18        1PX        -0.00783  -0.46438   0.00512  -0.00241   0.20209
  19        1PY         0.47019   0.29162  -0.02831   0.02767   0.15546
  20        1PZ         0.01194   0.01122   0.59345  -0.66454   0.01301
  21 6   H  1S          0.36318   0.32727  -0.00914  -0.02610  -0.00283
  22 7   H  1S         -0.00198  -0.12953  -0.00562   0.02590   0.64517
  23 8   H  1S          0.03094  -0.14000   0.00762   0.02397  -0.43717
  24 9   H  1S         -0.40763   0.25029   0.00448  -0.02057  -0.04310
                          16        17        18        19        20
                           V         V         V         V         V
     Eigenvalues --     0.19272   0.27591   0.28872   0.31191   0.32792
   1 1   C  1S         -0.14661  -0.02997  -0.05365   0.15309   0.06159
   2        1PX        -0.00894  -0.10248  -0.51373  -0.21122   0.04382
   3        1PY         0.21112  -0.26228  -0.15260   0.52848  -0.03441
   4        1PZ        -0.03740   0.03024   0.01147  -0.02621   0.03825
   5 2   C  1S         -0.15130  -0.24225   0.06012   0.35081  -0.04768
   6        1PX        -0.25011  -0.05793   0.07532   0.12123  -0.02721
   7        1PY         0.32166  -0.09890   0.01024   0.14712  -0.03334
   8        1PZ         0.02953  -0.00164  -0.00252   0.00027  -0.19366
   9 3   O  1S          0.01734  -0.02318  -0.00343   0.00371  -0.01219
  10        1PX         0.01602  -0.00160  -0.03817  -0.01952  -0.03303
  11        1PY         0.14666  -0.03007  -0.00216   0.00766  -0.07510
  12        1PZ         0.00154  -0.00764  -0.01042   0.00964   0.93860
  13 4   C  1S         -0.11677  -0.31729  -0.13305  -0.25671  -0.05653
  14        1PX         0.21324   0.02440   0.06861   0.05602   0.02205
  15        1PY         0.16761  -0.14869  -0.06541  -0.12854  -0.04270
  16        1PZ        -0.02511   0.00394  -0.00104  -0.00139  -0.19859
  17 5   C  1S         -0.13463  -0.08105   0.00900  -0.14914   0.08206
  18        1PX         0.00043   0.03186  -0.42720  -0.37076  -0.04788
  19        1PY         0.16083  -0.48285   0.18583  -0.29348  -0.01349
  20        1PZ         0.02818  -0.03106   0.00507  -0.00818   0.04035
  21 6   H  1S         -0.08684   0.56318  -0.38413   0.15791  -0.05684
  22 7   H  1S          0.41319   0.17109   0.09841   0.12684   0.03444
  23 8   H  1S          0.63663   0.13808  -0.06273  -0.17031   0.01882
  24 9   H  1S         -0.06650   0.33908   0.54203  -0.30086  -0.04014
                          21        22        23        24
                           V         V         V         V
     Eigenvalues --     0.33502   0.36603   0.41931   0.44900
   1 1   C  1S          0.33255   0.59516   0.14692  -0.02385
   2        1PX         0.23703  -0.19682   0.04990  -0.03550
   3        1PY        -0.12653  -0.13232  -0.04291   0.03158
   4        1PZ        -0.01445  -0.00304   0.00037  -0.00204
   5 2   C  1S         -0.21955  -0.27353  -0.20025  -0.15349
   6        1PX        -0.16829  -0.02400   0.18869   0.15856
   7        1PY        -0.17251  -0.22656  -0.08272   0.17120
   8        1PZ         0.03702  -0.00043   0.00322   0.00661
   9 3   O  1S         -0.06499  -0.00738   0.12951  -0.00387
  10        1PX        -0.04581   0.00381   0.17148   0.89572
  11        1PY        -0.27386  -0.03407   0.85307  -0.17824
  12        1PZ        -0.18667  -0.00091   0.02393   0.01911
  13 4   C  1S         -0.27246   0.22106  -0.19518   0.16411
  14        1PX         0.07752   0.07915  -0.20232   0.09744
  15        1PY        -0.26195   0.17191  -0.02260  -0.21438
  16        1PZ         0.03619   0.00016  -0.00150  -0.00415
  17 5   C  1S          0.43374  -0.52274   0.13877   0.01666
  18        1PX        -0.27194  -0.17589  -0.07794  -0.04113
  19        1PY        -0.07978   0.17336  -0.01788  -0.01638
  20        1PZ         0.01095  -0.01638   0.00409   0.00107
  21 6   H  1S         -0.28962   0.11187  -0.07630   0.00048
  22 7   H  1S          0.11773  -0.03001  -0.01741   0.00124
  23 8   H  1S          0.11860   0.05937  -0.02251   0.00195
  24 9   H  1S         -0.25031  -0.15944  -0.07213   0.00277
     Density Matrix:
                           1         2         3         4         5
   1 1   C  1S          0.92090
   2        1PX         0.05840   1.11143
   3        1PY         0.12534   0.07622   1.05211
   4        1PZ         0.00471  -0.00559   0.00918   1.07754
   5 2   C  1S          0.37040   0.14535  -0.53511   0.01449   1.19577
   6        1PX        -0.00604   0.11115  -0.01531  -0.00013  -0.19297
   7        1PY         0.46210   0.13025  -0.51522   0.00807  -0.21319
   8        1PZ         0.00848   0.00308  -0.00256   0.32056   0.01006
   9 3   O  1S          0.01750   0.00867  -0.03177   0.00102   0.00846
  10        1PX         0.02989   0.00565  -0.03667  -0.00028   0.33616
  11        1PY         0.01161   0.01795  -0.08208  -0.00145   0.16352
  12        1PZ        -0.00095   0.00347  -0.00577  -0.07191   0.01677
  13 4   C  1S         -0.00104  -0.01898   0.03617   0.00099  -0.00648
  14        1PX        -0.02355   0.00350   0.00590  -0.01113   0.00399
  15        1PY         0.04698  -0.02285   0.00374  -0.00233  -0.04838
  16        1PZ        -0.00795   0.00148  -0.01318  -0.27518  -0.00659
  17 5   C  1S          0.28530  -0.49413   0.15247  -0.03095   0.00109
  18        1PX         0.49040  -0.58347   0.21111  -0.01433   0.03473
  19        1PY        -0.01653   0.02954   0.11064  -0.01660   0.02282
  20        1PZ         0.01945  -0.01049   0.03869   0.89843  -0.00079
  21 6   H  1S          0.00773  -0.01873  -0.00498   0.00853   0.08061
  22 7   H  1S          0.07284  -0.07407   0.00954  -0.01163   0.04868
  23 8   H  1S          0.08728   0.00750  -0.11279   0.00325   0.52571
  24 9   H  1S          0.53299   0.57884   0.56444  -0.03081   0.06714
                           6         7         8         9        10
   6        1PX         1.55627
   7        1PY         0.09558   1.42715
   8        1PZ         0.01104  -0.01423   1.82025
   9 3   O  1S         -0.06586  -0.01982  -0.00152   1.95583
  10        1PX        -0.37365  -0.27653  -0.02090  -0.04522   0.31829
  11        1PY        -0.30101  -0.01031  -0.01701  -0.26690  -0.00959
  12        1PZ        -0.01868  -0.01761   0.37530  -0.00790   0.00466
  13 4   C  1S         -0.01982  -0.04278   0.00098   0.00921  -0.25868
  14        1PX         0.00146  -0.01670   0.00340   0.05703  -0.14360
  15        1PY         0.02571   0.02090   0.00168  -0.04137   0.32548
  16        1PZ         0.00527   0.00137   0.01754   0.00111  -0.00036
  17 5   C  1S          0.03993   0.03738   0.01253   0.01705  -0.02549
  18        1PX         0.01216   0.02150   0.00149  -0.01885   0.00171
  19        1PY        -0.00513  -0.00854   0.00505  -0.02887   0.00252
  20        1PZ        -0.00396   0.00866  -0.28417  -0.00044   0.00381
  21 6   H  1S         -0.02449   0.06288  -0.00674   0.00775  -0.02384
  22 7   H  1S         -0.04634  -0.01306  -0.00087   0.01067  -0.06317
  23 8   H  1S          0.62303  -0.42518  -0.03221   0.00966   0.03833
  24 9   H  1S         -0.05253  -0.00164   0.00158   0.00703   0.03378
                          11        12        13        14        15
  11        1PY         0.27189
  12        1PZ         0.00422   0.16503
  13 4   C  1S          0.27124  -0.00009   1.18718
  14        1PX         0.35802   0.01014   0.11052   1.47740
  15        1PY        -0.23789  -0.00193  -0.25347  -0.12979   1.50012
  16        1PZ        -0.00411   0.38696  -0.01152   0.02213   0.01268
  17 5   C  1S          0.02109   0.00058   0.35990   0.16572   0.42266
  18        1PX        -0.05004   0.00076  -0.32353  -0.00615  -0.32177
  19        1PY        -0.08515   0.00584  -0.45251  -0.17519  -0.41553
  20        1PZ         0.00471  -0.07543   0.00458   0.00723   0.00432
  21 6   H  1S          0.02658  -0.00003   0.07149   0.04651  -0.00981
  22 7   H  1S         -0.03397   0.00890   0.53964  -0.72493  -0.20013
  23 8   H  1S         -0.05276  -0.00648   0.04875   0.04192  -0.02440
  24 9   H  1S          0.01850   0.00548   0.07855   0.04076   0.05080
                          16        17        18        19        20
  16        1PZ         1.82451
  17 5   C  1S         -0.01265   0.92805
  18        1PX         0.00790  -0.00151   1.04647
  19        1PY         0.00659   0.14161  -0.07876   1.11640
  20        1PZ         0.30206  -0.01298  -0.00346  -0.00432   1.10865
  21 6   H  1S          0.00002   0.52123  -0.38136   0.72032   0.02695
  22 7   H  1S          0.04229   0.08192  -0.03959  -0.10231  -0.00015
  23 8   H  1S         -0.00035   0.07719   0.07142  -0.01539   0.01179
  24 9   H  1S          0.00323   0.01235   0.02870  -0.00290  -0.00773
                          21        22        23        24
  21 6   H  1S          0.79333
  22 7   H  1S         -0.00422   0.68212
  23 8   H  1S          0.01354   0.01861   0.66510
  24 9   H  1S         -0.00824   0.01487  -0.00358   0.79821
    Full Mulliken population analysis:
                           1         2         3         4         5
   1 1   C  1S          0.92090
   2        1PX         0.00000   1.11143
   3        1PY         0.00000   0.00000   1.05211
   4        1PZ         0.00000   0.00000   0.00000   1.07754
   5 2   C  1S          0.00000   0.00000   0.00000   0.00000   1.19577
   6        1PX         0.00000   0.00000   0.00000   0.00000   0.00000
   7        1PY         0.00000   0.00000   0.00000   0.00000   0.00000
   8        1PZ         0.00000   0.00000   0.00000   0.00000   0.00000
   9 3   O  1S          0.00000   0.00000   0.00000   0.00000   0.00000
  10        1PX         0.00000   0.00000   0.00000   0.00000   0.00000
  11        1PY         0.00000   0.00000   0.00000   0.00000   0.00000
  12        1PZ         0.00000   0.00000   0.00000   0.00000   0.00000
  13 4   C  1S          0.00000   0.00000   0.00000   0.00000   0.00000
  14        1PX         0.00000   0.00000   0.00000   0.00000   0.00000
  15        1PY         0.00000   0.00000   0.00000   0.00000   0.00000
  16        1PZ         0.00000   0.00000   0.00000   0.00000   0.00000
  17 5   C  1S          0.00000   0.00000   0.00000   0.00000   0.00000
  18        1PX         0.00000   0.00000   0.00000   0.00000   0.00000
  19        1PY         0.00000   0.00000   0.00000   0.00000   0.00000
  20        1PZ         0.00000   0.00000   0.00000   0.00000   0.00000
  21 6   H  1S          0.00000   0.00000   0.00000   0.00000   0.00000
  22 7   H  1S          0.00000   0.00000   0.00000   0.00000   0.00000
  23 8   H  1S          0.00000   0.00000   0.00000   0.00000   0.00000
  24 9   H  1S          0.00000   0.00000   0.00000   0.00000   0.00000
                           6         7         8         9        10
   6        1PX         1.55627
   7        1PY         0.00000   1.42715
   8        1PZ         0.00000   0.00000   1.82025
   9 3   O  1S          0.00000   0.00000   0.00000   1.95583
  10        1PX         0.00000   0.00000   0.00000   0.00000   0.31829
  11        1PY         0.00000   0.00000   0.00000   0.00000   0.00000
  12        1PZ         0.00000   0.00000   0.00000   0.00000   0.00000
  13 4   C  1S          0.00000   0.00000   0.00000   0.00000   0.00000
  14        1PX         0.00000   0.00000   0.00000   0.00000   0.00000
  15        1PY         0.00000   0.00000   0.00000   0.00000   0.00000
  16        1PZ         0.00000   0.00000   0.00000   0.00000   0.00000
  17 5   C  1S          0.00000   0.00000   0.00000   0.00000   0.00000
  18        1PX         0.00000   0.00000   0.00000   0.00000   0.00000
  19        1PY         0.00000   0.00000   0.00000   0.00000   0.00000
  20        1PZ         0.00000   0.00000   0.00000   0.00000   0.00000
  21 6   H  1S          0.00000   0.00000   0.00000   0.00000   0.00000
  22 7   H  1S          0.00000   0.00000   0.00000   0.00000   0.00000
  23 8   H  1S          0.00000   0.00000   0.00000   0.00000   0.00000
  24 9   H  1S          0.00000   0.00000   0.00000   0.00000   0.00000
                          11        12        13        14        15
  11        1PY         0.27189
  12        1PZ         0.00000   0.16503
  13 4   C  1S          0.00000   0.00000   1.18718
  14        1PX         0.00000   0.00000   0.00000   1.47740
  15        1PY         0.00000   0.00000   0.00000   0.00000   1.50012
  16        1PZ         0.00000   0.00000   0.00000   0.00000   0.00000
  17 5   C  1S          0.00000   0.00000   0.00000   0.00000   0.00000
  18        1PX         0.00000   0.00000   0.00000   0.00000   0.00000
  19        1PY         0.00000   0.00000   0.00000   0.00000   0.00000
  20        1PZ         0.00000   0.00000   0.00000   0.00000   0.00000
  21 6   H  1S          0.00000   0.00000   0.00000   0.00000   0.00000
  22 7   H  1S          0.00000   0.00000   0.00000   0.00000   0.00000
  23 8   H  1S          0.00000   0.00000   0.00000   0.00000   0.00000
  24 9   H  1S          0.00000   0.00000   0.00000   0.00000   0.00000
                          16        17        18        19        20
  16        1PZ         1.82451
  17 5   C  1S          0.00000   0.92805
  18        1PX         0.00000   0.00000   1.04647
  19        1PY         0.00000   0.00000   0.00000   1.11640
  20        1PZ         0.00000   0.00000   0.00000   0.00000   1.10865
  21 6   H  1S          0.00000   0.00000   0.00000   0.00000   0.00000
  22 7   H  1S          0.00000   0.00000   0.00000   0.00000   0.00000
  23 8   H  1S          0.00000   0.00000   0.00000   0.00000   0.00000
  24 9   H  1S          0.00000   0.00000   0.00000   0.00000   0.00000
                          21        22        23        24
  21 6   H  1S          0.79333
  22 7   H  1S          0.00000   0.68212
  23 8   H  1S          0.00000   0.00000   0.66510
  24 9   H  1S          0.00000   0.00000   0.00000   0.79821
     Gross orbital populations:
                           1
   1 1   C  1S          0.92090
   2        1PX         1.11143
   3        1PY         1.05211
   4        1PZ         1.07754
   5 2   C  1S          1.19577
   6        1PX         1.55627
   7        1PY         1.42715
   8        1PZ         1.82025
   9 3   O  1S          1.95583
  10        1PX         0.31829
  11        1PY         0.27189
  12        1PZ         0.16503
  13 4   C  1S          1.18718
  14        1PX         1.47740
  15        1PY         1.50012
  16        1PZ         1.82451
  17 5   C  1S          0.92805
  18        1PX         1.04647
  19        1PY         1.11640
  20        1PZ         1.10865
  21 6   H  1S          0.79333
  22 7   H  1S          0.68212
  23 8   H  1S          0.66510
  24 9   H  1S          0.79821
          Condensed to atoms (all electrons):
               1          2          3          4          5          6
     1  C    4.161991   0.000000   0.000000   0.000000   0.000000   0.000000
     2  C    0.000000   5.999440   0.000000   0.000000   0.000000   0.000000
     3  O    0.000000   0.000000   2.711041   0.000000   0.000000   0.000000
     4  C    0.000000   0.000000   0.000000   5.989208   0.000000   0.000000
     5  C    0.000000   0.000000   0.000000   0.000000   4.199569   0.000000
     6  H    0.000000   0.000000   0.000000   0.000000   0.000000   0.793325
     7  H    0.000000   0.000000   0.000000   0.000000   0.000000   0.000000
     8  H    0.000000   0.000000   0.000000   0.000000   0.000000   0.000000
     9  H    0.000000   0.000000   0.000000   0.000000   0.000000   0.000000
               7          8          9
     1  C    0.000000   0.000000   0.000000
     2  C    0.000000   0.000000   0.000000
     3  O    0.000000   0.000000   0.000000
     4  C    0.000000   0.000000   0.000000
     5  C    0.000000   0.000000   0.000000
     6  H    0.000000   0.000000   0.000000
     7  H    0.682119   0.000000   0.000000
     8  H    0.000000   0.665101   0.000000
     9  H    0.000000   0.000000   0.798205
 Mulliken charges:
               1
     1  C   -0.161991
     2  C   -1.999440
     3  O    3.288959
     4  C   -1.989208
     5  C   -0.199569
     6  H    0.206675
     7  H    0.317881
     8  H    0.334899
     9  H    0.201795
 Sum of Mulliken charges =   0.00000
 Mulliken charges with hydrogens summed into heavy atoms:
               1
     1  C    0.039804
     2  C   -1.664541
     3  O    3.288959
     4  C   -1.671327
     5  C    0.007105
 Charge=              0.0000 electrons
 Dipole moment (field-independent basis, Debye):
    X=             -1.9247    Y=            -11.2426    Z=             -0.3537  Tot=             11.4117
 N-N= 1.035725056312D+02 E-N=-1.689202864187D+02  KE=-1.545268408817D+01
 Orbital energies and kinetic energies (alpha):
                                 1                 2
   1         O                -1.902521         -1.355566
   2         O                -1.170810         -1.050562
   3         O                -0.919346         -0.891560
   4         O                -0.810941         -0.564298
   5         O                -0.777344         -0.689789
   6         O                -0.691550         -0.572329
   7         O                -0.672942         -0.541375
   8         O                -0.555432         -0.364361
   9         O                -0.544449         -0.344963
  10         O                -0.465422         -0.329792
  11         O                -0.432238         -0.430955
  12         O                -0.403832         -0.338514
  13         O                -0.284815         -0.252278
  14         V                 0.117624         -0.161548
  15         V                 0.188729         -0.200109
  16         V                 0.192720         -0.189815
  17         V                 0.275909         -0.174456
  18         V                 0.288722         -0.157421
  19         V                 0.311913         -0.085615
  20         V                 0.327925          0.463861
  21         V                 0.335024         -0.036289
  22         V                 0.366029         -0.087456
  23         V                 0.419311          0.461227
  24         V                 0.449005          0.562386
 Total kinetic energy from orbitals=-1.545268408817D+01
 Leave Link  601 at Tue Dec 15 17:09:48 2015, MaxMem=    33554432 cpu:         0.0
 (Enter /home/Applications/g09/g09/l701.exe)
 Compute integral first derivatives.
 ... and contract with generalized density number  6.
 Leave Link  701 at Tue Dec 15 17:09:48 2015, MaxMem=    33554432 cpu:         0.0
 (Enter /home/Applications/g09/g09/l702.exe)
 L702 exits ... SP integral derivatives will be done elsewhere.
 Leave Link  702 at Tue Dec 15 17:09:48 2015, MaxMem=    33554432 cpu:         0.0
 (Enter /home/Applications/g09/g09/l703.exe)
 Compute integral first derivatives, UseDBF=F ICtDFT=           0.
 Integral derivatives from FoFJK, PRISM(SPDF).
 Calling FoFJK, ICntrl=  10005127 FMM=F ISym2X=0 I1Cent= 0 IOpClX= 0 NMat=1 NMatS=1 NMatT=0.
 FoFJK:  IHMeth= 8 ICntrl=10005127 DoSepK=F KAlg= 0 I1Cent=   0 FoldK=F
 IRaf=         0 NMat=   1 IRICut=       1 DoRegI=T DoRafI=F ISym2E= 0.
 FoFCou: FMM=F IPFlag=           0 FMFlag=      100000 FMFlg1=         800
         NFxFlg=           0 DoJE=F BraDBF=F KetDBF=F FulRan=T
         wScrn=  0.000000 ICntrl=10005127 IOpCl=  0 I1Cent=           0 NGrid=           0
         NMat0=    1 NMatS0=      1 NMatT0=    0 NMatD0=    1 NMtDS0=    0 NMtDT0=    0
 Symmetry not used in FoFCou.
 Leave Link  703 at Tue Dec 15 17:09:48 2015, MaxMem=    33554432 cpu:         0.0
 (Enter /home/Applications/g09/g09/l716.exe)
 Dipole        =-8.29939792D-01-4.79986296D+00-1.31962587D-01
 ***** Axes restored to original set *****
 -------------------------------------------------------------------
 Center     Atomic                   Forces (Hartrees/Bohr)
 Number     Number              X              Y              Z
 -------------------------------------------------------------------
      1        6           0.220276477   -0.013158560   -0.006071869
      2        6          -0.334819838   -0.094424679   -0.003039520
      3        8           0.153531941   -0.019957080    0.008036275
      4        6          -0.299537401    0.084027806   -0.009925710
      5        6           0.210190971    0.040416216    0.007534069
      6        1           0.009659146   -0.000558744   -0.000729678
      7        1           0.007632558    0.060359962    0.001018751
      8        1           0.009514648   -0.036267661    0.003412685
      9        1           0.023551498   -0.020437260   -0.000235003
 -------------------------------------------------------------------
 Cartesian Forces:  Max     0.334819838 RMS     0.112667203
 Z-matrix is all fixed cartesians, so copy forces.
 Force constants in Cartesian coordinates: 
                1             2             3             4             5 
      1  0.989071D+00
      2  0.432939D-02  0.755744D+00
      3 -0.166040D-01 -0.949039D-02  0.218330D+00
      4 -0.600047D+00 -0.118735D+00  0.830711D-02  0.987463D+00
      5 -0.943902D-01 -0.224377D+00  0.433473D-02  0.393241D-01  0.832758D+00
      6 -0.380145D-03  0.167527D-02 -0.114141D+00  0.192095D-01 -0.467535D-02
      7 -0.781756D-02  0.295807D-01 -0.220984D-02 -0.266995D+00  0.144656D+00
      8 -0.585711D-02  0.221816D-01 -0.104841D-02  0.189740D+00 -0.338641D+00
      9 -0.142917D-03  0.394700D-03  0.523347D-02 -0.186025D-01  0.169823D-01
     10  0.110998D-01 -0.114181D-03  0.336990D-03  0.230039D-01  0.172180D-01
     11  0.344990D-01 -0.382181D-03  0.558934D-03 -0.181569D-01 -0.135960D-01
     12 -0.236926D-02 -0.646260D-04 -0.114684D-02  0.193694D-02  0.141009D-02
     13 -0.162482D+00  0.978011D-02 -0.474398D-03  0.937983D-02 -0.354957D-01
     14 -0.168453D-01 -0.386919D+00  0.164488D-01 -0.124308D-03  0.475080D-03
     15  0.448426D-04  0.154613D-01 -0.785504D-01 -0.212060D-03  0.129254D-02
     16  0.169143D-01 -0.172287D-03  0.615295D-03  0.140190D-05 -0.202079D-04
     17 -0.205885D-01  0.136161D-03 -0.249271D-02  0.000000D+00  0.681000D-05
     18  0.284372D-02  0.629469D-03  0.157138D-01 -0.108111D-04  0.155839D-03
     19 -0.308012D-05 -0.879924D-05 -0.209471D-03 -0.860768D-05  0.720163D-05
     20 -0.100070D-04 -0.285878D-04 -0.680548D-03  0.649915D-05 -0.543752D-05
     21  0.118805D-03  0.339401D-03  0.807964D-02 -0.162854D-03  0.136252D-03
     22  0.699716D-02 -0.266074D-01 -0.222112D-02 -0.148359D+00 -0.881994D-01
     23 -0.345198D-02  0.130553D-01 -0.119324D-02 -0.856186D-01 -0.281033D+00
     24  0.491739D-03 -0.882366D-03  0.315904D-01 -0.112409D-01 -0.176246D-01
     25 -0.253733D+00  0.101948D+00  0.124595D-01 -0.443702D-02  0.169000D-01
     26  0.102315D+00 -0.179410D+00 -0.643718D-02 -0.643467D-02  0.244138D-01
     27  0.159972D-01 -0.806276D-02 -0.851091D-01  0.775561D-03 -0.201173D-02
                6             7             8             9            10 
      6  0.202055D+00
      7 -0.140348D-01  0.530408D+00
      8  0.160414D-01  0.146429D-01  0.657742D+00
      9 -0.468974D-01  0.158732D-01 -0.160374D-01  0.554053D-01
     10 -0.721820D-04 -0.287530D+00 -0.205158D+00  0.177718D-02  0.977275D+00
     11 -0.779627D-04 -0.161727D+00 -0.346935D+00  0.190376D-02 -0.503359D-01
     12 -0.135408D-02 -0.113406D-02 -0.744885D-03 -0.457422D-01 -0.967318D-02
     13  0.252982D-02 -0.918487D-02  0.725244D-02  0.316291D-03 -0.546559D+00
     14  0.104955D-03 -0.285357D-01  0.225189D-01  0.682134D-03  0.129175D+00
     15 -0.146981D-03  0.701349D-04 -0.286084D-03  0.742149D-02 -0.187921D-02
     16 -0.478706D-03  0.000000D+00  0.000000D+00 -0.165941D-03 -0.573265D-02
     17  0.161322D-03  0.000000D+00  0.000000D+00 -0.539907D-03  0.690152D-02
     18  0.369167D-02  0.933299D-05  0.466603D-05  0.661363D-02 -0.280002D-03
     19  0.223208D-03  0.205215D-01 -0.162042D-01 -0.171546D-02 -0.171578D+00
     20 -0.168531D-03  0.115538D-01 -0.912371D-02 -0.129629D-02  0.102308D+00
     21  0.422300D-02 -0.121513D-03  0.104583D-03  0.475525D-02  0.988829D-02
     22 -0.929656D-02  0.206007D-01  0.155727D-01  0.245411D-02  0.161042D-04
     23 -0.133458D-01 -0.101742D-01 -0.771238D-02 -0.156193D-02  0.291645D-05
     24 -0.773196D-01  0.160153D-02  0.150731D-02  0.504358D-02 -0.149505D-03
     25  0.229985D-02 -0.136219D-05  0.115748D-04  0.206014D-03  0.510576D-05
     26  0.284762D-03  0.348665D-05 -0.296268D-04 -0.527312D-03  0.211708D-05
     27  0.298894D-01 -0.540002D-04  0.458851D-03  0.816686D-02  0.516111D-04
               11            12            13            14            15 
     11  0.861228D+00
     12  0.139854D-01  0.211900D+00
     13  0.104444D+00  0.497735D-02  0.894684D+00
     14 -0.229579D+00 -0.130045D-02 -0.180486D-01  0.759878D+00
     15  0.165878D-03 -0.110188D+00  0.132797D-01 -0.436687D-02  0.199938D+00
     16 -0.178016D-01 -0.261769D-02 -0.209778D+00 -0.911073D-01 -0.131797D-01
     17  0.214418D-01  0.308176D-03 -0.953644D-01 -0.180557D+00 -0.843574D-02
     18 -0.963133D-03  0.253253D-01 -0.172405D-01 -0.108691D-01 -0.740407D-01
     19  0.109077D+00  0.895026D-02  0.826528D-02  0.256729D-01  0.195814D-02
     20 -0.292182D+00 -0.136621D-01  0.468530D-02  0.145615D-01 -0.118172D-02
     21 -0.158454D-01 -0.861804D-01 -0.506458D-03 -0.169418D-02  0.327861D-01
     22 -0.134736D-04 -0.417603D-03  0.000000D+00  0.998927D-05  0.236636D-03
     23 -0.244005D-05 -0.756272D-04  0.193816D-05 -0.279379D-04 -0.661822D-03
     24  0.125083D-03  0.387684D-02 -0.221876D-04  0.319827D-03  0.757638D-02
     25  0.145861D-04  0.347230D-03  0.156752D-01 -0.197151D-03 -0.318494D-03
     26  0.604804D-05  0.143977D-03  0.227447D-01 -0.350403D-03 -0.198748D-02
     27  0.147442D-03  0.350994D-02 -0.285961D-02  0.674835D-03  0.152046D-01
               16            17            18            19            20 
     16  0.198537D+00
     17  0.109099D+00  0.159061D+00
     18  0.148816D-01  0.102825D-01  0.392491D-01
     19 -0.747223D-05 -0.243117D-04  0.297808D-03  0.142811D+00
     20 -0.242764D-04 -0.789861D-04  0.967546D-03 -0.118519D+00  0.286857D+00
     21  0.288216D-03  0.937743D-03 -0.114870D-01 -0.950449D-02  0.160216D-01
     22  0.000000D+00  0.000000D+00  0.000000D+00  0.000000D+00  0.000000D+00
     23  0.000000D+00  0.000000D+00  0.000000D+00  0.000000D+00  0.000000D+00
     24  0.000000D+00  0.000000D+00  0.000000D+00  0.000000D+00  0.000000D+00
     25  0.649856D-04 -0.219000D-04 -0.501154D-03  0.000000D+00  0.000000D+00
     26  0.269459D-04 -0.908070D-05 -0.207801D-03  0.000000D+00  0.000000D+00
     27  0.656900D-03 -0.221373D-03 -0.506586D-02  0.000000D+00  0.000000D+00
               21            22            23            24            25 
     21  0.478233D-01
     22  0.000000D+00  0.120756D+00
     23  0.000000D+00  0.992126D-01  0.275791D+00
     24  0.000000D+00  0.963343D-02  0.157508D-01  0.416838D-01
     25  0.000000D+00 -0.981015D-05  0.274369D-04 -0.314092D-03  0.242435D+00
     26  0.000000D+00  0.251100D-04 -0.702274D-04  0.803947D-03 -0.118682D+00
     27  0.000000D+00 -0.388897D-03  0.108766D-02 -0.124513D-01 -0.141788D-01
               26            27 
     26  0.155450D+00
     27  0.792708D-02  0.458554D-01
 Leave Link  716 at Tue Dec 15 17:09:48 2015, MaxMem=    33554432 cpu:         0.0
 (Enter /home/Applications/g09/g09/l103.exe)

 GradGradGradGradGradGradGradGradGradGradGradGradGradGradGradGradGradGrad
 Berny optimization.
 Search for a local minimum.
 Step number   1 out of a maximum of    2
 All quantities printed in internal units (Hartrees-Bohrs-Radians)
 Second derivative matrix not updated -- first step.
 ITU=  0
     Eigenvalues ---    0.01918   0.02955   0.06533   0.07247   0.07330
     Eigenvalues ---    0.08699   0.12717   0.13646   0.16273   0.22958
     Eigenvalues ---    0.25434   0.32963   0.40098   0.41354   0.60589
     Eigenvalues ---    0.76016   1.00273   1.28309   1.34953   1.62823
     Eigenvalues ---    1.71429
 Quadratic step=1.159D+00 exceeds max=3.000D-01 adjusted using Lamda=-7.847D-01.
 Angle between NR and scaled steps=  35.98 degrees.
 Angle between quadratic step and forces=  20.84 degrees.
 Linear search not attempted -- first point.
 TrRot= -0.000290 -0.000789 -0.000039  0.000284 -0.000016  0.000284
 MatCor failed.
 Variable       Old X    -DE/DX   Delta X   Delta X   Delta X     New X
                                 (Linear)    (Quad)   (Total)
    X1        1.76925   0.22028   0.00000   0.08538   0.08592   1.85517
    Y1       -1.43642  -0.01316   0.00000  -0.02756  -0.02730  -1.46372
    Z1        0.03889  -0.00607   0.00000  -0.00429  -0.00430   0.03459
    X2       -0.63622  -0.33482   0.00000  -0.15081  -0.14988  -0.78610
    Y2       -2.07065  -0.09442   0.00000  -0.06988  -0.07111  -2.14177
    Z2        0.05862  -0.00304   0.00000  -0.00011  -0.00016   0.05846
    X3       -2.20765   0.15353   0.00000   0.07451   0.07421  -2.13344
    Y3        0.02838  -0.01996   0.00000  -0.01315  -0.01515   0.01324
    Z3       -0.06971   0.00804   0.00000   0.00565   0.00557  -0.06413
    X4       -0.59902  -0.29954   0.00000  -0.13608  -0.13758  -0.73660
    Y4        2.06601   0.08403   0.00000   0.06502   0.06381   2.12982
    Z4       -0.07342  -0.00993   0.00000  -0.00987  -0.00992  -0.08334
    X5        1.80124   0.21019   0.00000   0.09100   0.08995   1.89119
    Y5        1.29347   0.04042   0.00000   0.04660   0.04689   1.34036
    Z5       -0.07626   0.00753   0.00000   0.00580   0.00579  -0.07047
    X6        3.45934   0.00966   0.00000   0.03200   0.03018   3.48952
    Y6        2.67701  -0.00056   0.00000   0.01434   0.01554   2.69255
    Z6        0.07829  -0.00073   0.00000   0.00116   0.00118   0.07947
    X7       -1.60198   0.00763   0.00000  -0.01614  -0.01866  -1.62064
    Y7        3.84874   0.06036   0.00000   0.08403   0.08232   3.93106
    Z7        0.05074   0.00102   0.00000   0.00088   0.00082   0.05156
    X8       -1.55514   0.00951   0.00000  -0.01866  -0.01666  -1.57180
    Y8       -3.95262  -0.03627   0.00000  -0.06112  -0.06280  -4.01542
    Z8       -0.07708   0.00341   0.00000   0.00225   0.00219  -0.07489
    X9        3.48601   0.02355   0.00000   0.04130   0.04253   3.52854
    Y9       -2.63476  -0.02044   0.00000  -0.03342  -0.03220  -2.66696
    Z9       -0.08179  -0.00024   0.00000  -0.00119  -0.00117  -0.08296
         Item               Value     Threshold  Converged?
 Maximum Force            0.334820     0.000450     NO 
 RMS     Force            0.112667     0.000300     NO 
 Maximum Displacement     0.149880     0.001800     NO 
 RMS     Displacement     0.057802     0.001200     NO 
 Predicted change in Energy=-1.175884D-01
 GradGradGradGradGradGradGradGradGradGradGradGradGradGradGradGradGradGrad

 Leave Link  103 at Tue Dec 15 17:09:48 2015, MaxMem=    33554432 cpu:         0.0
 (Enter /home/Applications/g09/g09/l9999.exe)
 1\1\GINC-DUSTIN-DESKTOP\Force\RAM1-FC\STO-3G\C4H4O1\DUSTIN\15-Dec-2015
 \0\\#P AM1(Input,print) CIS(Singlets,NStates=15) pop(full) force\\AM1-
 Reparam Input\\0,1\C,0.936245,-0.760121,0.020578\C,-0.336674,-1.095742
 ,0.031018\O,-1.16824,0.01502,-0.036888\C,-0.316987,1.093283,-0.03885\C
 ,0.953176,0.684474,-0.040354\H,1.830604,1.416615,0.04143\H,-0.847731,2
 .036664,0.026851\H,-0.822943,-2.091639,-0.040789\H,1.844717,-1.394254,
 -0.043283\\Version=ES64L-G09RevD.01\State=1-A\HF=1.7543788\RMSD=2.755e
 -09\RMSF=1.127e-01\Dipole=-4.8697152,0.0400471,-0.1707872\PG=C01 [X(C4
 H4O1)]\\@


 REALITY IS FOR PEOPLE WHO CAN'T FACE SCIENCE FICTION.
 Job cpu time:       0 days  0 hours  0 minutes  0.7 seconds.
 File lengths (MBytes):  RWF=      7 Int=      0 D2E=      0 Chk=      2 Scr=      1
 Normal termination of Gaussian 09 at Tue Dec 15 17:09:48 2015.
