 Entering Gaussian System, Link 0=g09
 Input=FuranAM1_69P5.com
 Output=FuranAM1_69P5.log
 Initial command:
 /home/Applications/g09/g09/l1.exe "/home/Applications/g09/scratch/Gau-7952.inp" -scrdir="/home/Applications/g09/scratch/"
 Entering Link 1 = /home/Applications/g09/g09/l1.exe PID=      7954.
  
 Copyright (c) 1988,1990,1992,1993,1995,1998,2003,2009,2013,
            Gaussian, Inc.  All Rights Reserved.
  
 This is part of the Gaussian(R) 09 program.  It is based on
 the Gaussian(R) 03 system (copyright 2003, Gaussian, Inc.),
 the Gaussian(R) 98 system (copyright 1998, Gaussian, Inc.),
 the Gaussian(R) 94 system (copyright 1995, Gaussian, Inc.),
 the Gaussian 92(TM) system (copyright 1992, Gaussian, Inc.),
 the Gaussian 90(TM) system (copyright 1990, Gaussian, Inc.),
 the Gaussian 88(TM) system (copyright 1988, Gaussian, Inc.),
 the Gaussian 86(TM) system (copyright 1986, Carnegie Mellon
 University), and the Gaussian 82(TM) system (copyright 1983,
 Carnegie Mellon University). Gaussian is a federally registered
 trademark of Gaussian, Inc.
  
 This software contains proprietary and confidential information,
 including trade secrets, belonging to Gaussian, Inc.
  
 This software is provided under written license and may be
 used, copied, transmitted, or stored only in accord with that
 written license.
  
 The following legend is applicable only to US Government
 contracts under FAR:
  
                    RESTRICTED RIGHTS LEGEND
  
 Use, reproduction and disclosure by the US Government is
 subject to restrictions as set forth in subparagraphs (a)
 and (c) of the Commercial Computer Software - Restricted
 Rights clause in FAR 52.227-19.
  
 Gaussian, Inc.
 340 Quinnipiac St., Bldg. 40, Wallingford CT 06492
  
  
 ---------------------------------------------------------------
 Warning -- This program may not be used in any manner that
 competes with the business of Gaussian, Inc. or will provide
 assistance to any competitor of Gaussian, Inc.  The licensee
 of this program is prohibited from giving any competitor of
 Gaussian, Inc. access to this program.  By using this program,
 the user acknowledges that Gaussian, Inc. is engaged in the
 business of creating and licensing software in the field of
 computational chemistry and represents and warrants to the
 licensee that it is not a competitor of Gaussian, Inc. and that
 it will not use this program in any manner prohibited above.
 ---------------------------------------------------------------
  

 Cite this work as:
 Gaussian 09, Revision D.01,
 M. J. Frisch, G. W. Trucks, H. B. Schlegel, G. E. Scuseria, 
 M. A. Robb, J. R. Cheeseman, G. Scalmani, V. Barone, B. Mennucci, 
 G. A. Petersson, H. Nakatsuji, M. Caricato, X. Li, H. P. Hratchian, 
 A. F. Izmaylov, J. Bloino, G. Zheng, J. L. Sonnenberg, M. Hada, 
 M. Ehara, K. Toyota, R. Fukuda, J. Hasegawa, M. Ishida, T. Nakajima, 
 Y. Honda, O. Kitao, H. Nakai, T. Vreven, J. A. Montgomery, Jr., 
 J. E. Peralta, F. Ogliaro, M. Bearpark, J. J. Heyd, E. Brothers, 
 K. N. Kudin, V. N. Staroverov, T. Keith, R. Kobayashi, J. Normand, 
 K. Raghavachari, A. Rendell, J. C. Burant, S. S. Iyengar, J. Tomasi, 
 M. Cossi, N. Rega, J. M. Millam, M. Klene, J. E. Knox, J. B. Cross, 
 V. Bakken, C. Adamo, J. Jaramillo, R. Gomperts, R. E. Stratmann, 
 O. Yazyev, A. J. Austin, R. Cammi, C. Pomelli, J. W. Ochterski, 
 R. L. Martin, K. Morokuma, V. G. Zakrzewski, G. A. Voth, 
 P. Salvador, J. J. Dannenberg, S. Dapprich, A. D. Daniels, 
 O. Farkas, J. B. Foresman, J. V. Ortiz, J. Cioslowski, 
 and D. J. Fox, Gaussian, Inc., Wallingford CT, 2013.
 
 ******************************************
 Gaussian 09:  ES64L-G09RevD.01 24-Apr-2013
                15-Dec-2015 
 ******************************************
 ------------------------------------------------------------
 #P AM1(Input,print) CIS(Singlets,NStates=15) pop(full) force
 ------------------------------------------------------------
 1/10=7,30=1,38=1/1,3;
 2/12=2,17=6,18=5,40=1/2;
 3/5=2,16=1,25=1,41=700000,71=1,135=100,136=1/1,2,8,3;
 4/35=1/1;
 5/5=2,35=1,38=5/2;
 8/6=1,10=1,108=15/1;
 9/15=2,41=15,42=1,48=1,49=10/14;
 10/5=4/2;
 6/7=3,18=1/1;
 7/12=6,13=5,29=1/1,2,3,16;
 1/10=7,30=1/3;
 99//99;
 Leave Link    1 at Tue Dec 15 17:06:02 2015, MaxMem=           0 cpu:         0.0
 (Enter /home/Applications/g09/g09/l101.exe)
 -----------------
 AM1-Reparam Input
 -----------------
 Symbolic Z-matrix:
 Charge =  0 Multiplicity = 1
 6                     0.91665  -0.75245  -0.02271 
 6                    -0.34655  -1.09838  -0.03269 
 8                    -1.11424   0.04013   0.02419 
 6                    -0.37177   1.07113  -0.04488 
 6                     0.90726   0.7343   -0.00617 
 1                     1.78728   1.34793  -0.00043 
 1                    -0.8193    2.01322   0.01 
 1                    -0.86168  -2.04966  -0.04473 
 1                     1.77033  -1.38036   0.01832 
 
 NAtoms=      9 NQM=        9 NQMF=       0 NMMI=      0 NMMIF=      0
                NMic=       0 NMicF=      0.
                    Isotopes and Nuclear Properties:
 (Nuclear quadrupole moments (NQMom) in fm**2, nuclear magnetic moments (NMagM)
  in nuclear magnetons)

  Atom         1           2           3           4           5           6           7           8           9
 IAtWgt=          12          12          16          12          12           1           1           1           1
 AtmWgt=  12.0000000  12.0000000  15.9949146  12.0000000  12.0000000   1.0078250   1.0078250   1.0078250   1.0078250
 NucSpn=           0           0           0           0           0           1           1           1           1
 AtZEff=   0.0000000   0.0000000   0.0000000   0.0000000   0.0000000   0.0000000   0.0000000   0.0000000   0.0000000
 NQMom=    0.0000000   0.0000000   0.0000000   0.0000000   0.0000000   0.0000000   0.0000000   0.0000000   0.0000000
 NMagM=    0.0000000   0.0000000   0.0000000   0.0000000   0.0000000   2.7928460   2.7928460   2.7928460   2.7928460
 AtZNuc=   6.0000000   6.0000000   8.0000000   6.0000000   6.0000000   1.0000000   1.0000000   1.0000000   1.0000000
 Leave Link  101 at Tue Dec 15 17:06:02 2015, MaxMem=    33554432 cpu:         0.0
 (Enter /home/Applications/g09/g09/l103.exe)

 GradGradGradGradGradGradGradGradGradGradGradGradGradGradGradGradGradGrad
 Berny optimization.
 Initialization pass.
 Trust Radius=3.00D-01 FncErr=1.00D-07 GrdErr=1.00D-07
 Number of steps in this run=      2 maximum allowed number of steps=      2.
 GradGradGradGradGradGradGradGradGradGradGradGradGradGradGradGradGradGrad

 Leave Link  103 at Tue Dec 15 17:06:02 2015, MaxMem=    33554432 cpu:         0.0
 (Enter /home/Applications/g09/g09/l202.exe)
                          Input orientation:                          
 ---------------------------------------------------------------------
 Center     Atomic      Atomic             Coordinates (Angstroms)
 Number     Number       Type             X           Y           Z
 ---------------------------------------------------------------------
      1          6           0        0.916649   -0.752452   -0.022707
      2          6           0       -0.346548   -1.098378   -0.032685
      3          8           0       -1.114240    0.040126    0.024192
      4          6           0       -0.371766    1.071128   -0.044878
      5          6           0        0.907262    0.734299   -0.006172
      6          1           0        1.787277    1.347929   -0.000431
      7          1           0       -0.819295    2.013223    0.009997
      8          1           0       -0.861680   -2.049664   -0.044725
      9          1           0        1.770334   -1.380361    0.018319
 ---------------------------------------------------------------------
                    Distance matrix (angstroms):
                    1          2          3          4          5
     1  C    0.000000
     2  C    1.309745   0.000000
     3  O    2.180571   1.374328   0.000000
     4  C    2.232924   2.169687   1.272401   0.000000
     5  C    1.486873   2.220686   2.137585   1.323202   0.000000
     6  H    2.273783   3.246331   3.182728   2.177168   1.072847
     7  H    3.265506   3.147598   1.995070   1.044431   2.148699
     8  H    2.201295   1.081874   2.106124   3.159012   3.298650
     9  H    1.060533   2.136189   3.215367   3.256130   2.284137
                    6          7          8          9
     6  H    0.000000
     7  H    2.690157   0.000000
     8  H    4.308430   4.063477   0.000000
     9  H    2.728407   4.268801   2.716512   0.000000
 Stoichiometry    C4H4O
 Framework group  C1[X(C4H4O)]
 Deg. of freedom    21
 Full point group                 C1      NOp   1
 Largest Abelian subgroup         C1      NOp   1
 Largest concise Abelian subgroup C1      NOp   1
                         Standard orientation:                         
 ---------------------------------------------------------------------
 Center     Atomic      Atomic             Coordinates (Angstroms)
 Number     Number       Type             X           Y           Z
 ---------------------------------------------------------------------
      1          6           0       -0.876845    0.810863    0.003037
      2          6           0       -1.038661   -0.488756    0.018427
      3          8           0        0.198093   -1.086035   -0.031322
      4          6           0        1.112108   -0.203469    0.036920
      5          6           0        0.596026    1.014068   -0.009220
      6          1           0        1.077561    1.972741   -0.017671
      7          1           0        2.108694   -0.511949   -0.013008
      8          1           0       -1.906568   -1.134547    0.030369
      9          1           0       -1.620199    1.565802   -0.044097
 ---------------------------------------------------------------------
 Rotational constants (GHZ):     10.0506229      9.3549779      4.8489067
 Leave Link  202 at Tue Dec 15 17:06:02 2015, MaxMem=    33554432 cpu:         0.0
 (Enter /home/Applications/g09/g09/l301.exe)

 Semi-emprical parameters in input format:
 Method=8 CoreType=1 PeptideFC=0.0111590000 RIJScale=0.5404210000
 ****
 H       
 PQN=1 NValence=1 F0ss=0.4980120000 ZetaOverlap=1.0856700000 U=-0.4186260000
 Beta=-0.2268830000 CoreKO=1.0354420000 KON=0,0,0,1.0458670000 KON=1,0,1,1.0879310000
 KON=0,1,1,1.0589200000 KON=2,1,1,1.0697690000 EISol=-0.4188110042 EHeat=0.0830298228
 Alpha=1.4609850000
 GCore=0.0085280000,1.5127750000,2.2676710000
 GCore=0.0003530000,1.4551640000,3.4779940000
 GCore=-0.0013010000,0.5600570000,3.5861320000
 ****
 C       
 PQN=2,2 NValence=4 F0ss=0.4494440000 F0sp=0.4215150000 F0pp=0.3497590000 F2pp=0.1898720000
 G1sp=0.2701540000
 ZetaOverlap=1.8086650000,1.3781170000
 U=-1.7687090000,-1.4557970000
 Beta=-0.5012330000,-0.3063130000 DDN=0,1,0.7474020000 DDN=1,1,0.7268010000
 CoreKO=1.1356210000 KON=0,0,0,1.0966100000 KON=1,0,1,0.8998210000 KON=0,1,1,1.1124280000
 KON=2,1,1,0.7957910000 EISol=-4.4398989268 EHeat=0.2723305520 Alpha=1.2756240000
 DipHyp=1.4947180026
 GCore=0.0007890000,1.4001430000,2.6678360000
 GCore=0.0028980000,1.4001430000,3.2840710000
 GCore=-0.0013930000,1.3017660000,3.7634120000
 GCore=-0.0000850000,1.4001430000,4.6744780000
 ****
 O       
 PQN=2,2 NValence=6 F0ss=0.5596260000 F0sp=0.5321300000 F0pp=0.4958710000 F2pp=0.2543430000
 G1sp=0.4216980000
 ZetaOverlap=2.6354490000,2.4967270000
 U=-3.3169990000,-2.0345890000
 Beta=-1.1573400000,-1.1944970000 DDN=0,1,0.4953610000 DDN=1,1,0.5082060000
 CoreKO=0.8822960000 KON=0,0,0,0.8822960000 KON=1,0,1,0.5019540000 KON=0,1,1,0.7875880000
 KON=2,1,1,0.5515580000 EISol=-11.6164441184 EHeat=0.0949133088 Alpha=2.3677360000
 DipHyp=0.9906650029
 GCore=0.0205230000,1.2640290000,1.6023330000
 GCore=0.0056550000,1.9602000000,2.7307880000
 ****
 
 Standard basis: VSTO-6G (5D, 7F)
 Ernie: Thresh=  0.10000D-02 Tol=  0.10000D-05 Strict=F.
  NNHCO=     0 NNPyr=     0 NCTC=     0               EPep=         0.000000000
    EC=        69.322700764  ECS=         2.613798789   EG=         0.404657322
   EHC=         0.000000000  EAt=       -31.051283842  AtH=         1.516354808
 EPDDG=         0.000000000  ECC=        72.341156875 EAtT=        32.567638650
 There are    24 symmetry adapted cartesian basis functions of A   symmetry.
 There are    24 symmetry adapted basis functions of A   symmetry.
    24 basis functions,   144 primitive gaussians,    24 cartesian basis functions
    13 alpha electrons       13 beta electrons
       nuclear repulsion energy       104.9087955253 Hartrees.
 IExCor=    0 DFT=F Ex=HF Corr=None ExCW=0 ScaHFX=  1.000000
 ScaDFX=  1.000000  1.000000  1.000000  1.000000 ScalE2=  1.000000  1.000000
 IRadAn=      0 IRanWt=     -1 IRanGd=            0 ICorTp=0 IEmpDi=  4
 Integral buffers will be    131072 words long.
 Regular integral format.
 Two-electron integral symmetry is turned off.
 Leave Link  301 at Tue Dec 15 17:06:02 2015, MaxMem=    33554432 cpu:         0.0
 (Enter /home/Applications/g09/g09/l302.exe)
 Do NDO integrals.
 NPDir=0 NMtPBC=     1 NCelOv=     1 NCel=       1 NClECP=     1 NCelD=      1
         NCelK=      1 NCelE2=     1 NClLst=     1 CellRange=     0.0.
 One-electron integrals computed using PRISM.
 NBasis=    24 RedAO= F EigKep=  0.00D+00  NBF=    24
 NBsUse=    24 1.00D-04 EigRej=  0.00D+00 NBFU=    24
 Leave Link  302 at Tue Dec 15 17:06:02 2015, MaxMem=    33554432 cpu:         0.0
 (Enter /home/Applications/g09/g09/l308.exe)
 Leave Link  308 at Tue Dec 15 17:06:02 2015, MaxMem=    33554432 cpu:         0.0
 (Enter /home/Applications/g09/g09/l303.exe)
 DipDrv:  MaxL=1.
 Leave Link  303 at Tue Dec 15 17:06:02 2015, MaxMem=    33554432 cpu:         0.0
 (Enter /home/Applications/g09/g09/l401.exe)
 Simple Huckel Guess.
 JPrj=0 DoOrth=F DoCkMO=F.
 Leave Link  401 at Tue Dec 15 17:06:02 2015, MaxMem=    33554432 cpu:         0.0
 (Enter /home/Applications/g09/g09/l502.exe)
 Closed shell SCF:
 Using DIIS extrapolation, IDIIS=  1040.
 Overlap will be assumed to be unity.
 Two-electron integral symmetry not used.
 Keep J ints in memory in canonical form, NReq=888082.
 IVT=       79475 IEndB=       79475 NGot=    33554432 MDV=    33473473
 LenX=    33473473 LenY=    33472456
 Requested convergence on RMS density matrix=1.00D-08 within 128 cycles.
 Requested convergence on MAX density matrix=1.00D-06.
 Requested convergence on             energy=1.00D-06.
 No special actions if energy rises.
 FoFCou: FMM=F IPFlag=           0 FMFlag=           0 FMFlg1=           0
         NFxFlg=           0 DoJE=F BraDBF=F KetDBF=F FulRan=T
         wScrn=  0.000000 ICntrl=     600 IOpCl=  2 I1Cent=           0 NGrid=           0
         NMat0=    1 NMatS0=     54 NMatT0=    0 NMatD0=    1 NMtDS0=    0 NMtDT0=    0
 Symmetry not used in FoFCou.

 Cycle   1  Pass 1  IDiag  1:
 E=  5.00385823127527    
 DIIS: error= 1.26D-01 at cycle   1 NSaved=   1.
 NSaved= 1 IEnMin= 1 EnMin=  5.00385823127527     IErMin= 1 ErrMin= 1.26D-01
 ErrMax= 1.26D-01  0.00D+00 EMaxC= 1.00D-01 BMatC= 4.11D-01 BMatP= 4.11D-01
 IDIUse=3 WtCom= 0.00D+00 WtEn= 1.00D+00
 Coeff-Com:  0.100D+01
 Coeff-En:   0.100D+01
 Coeff:      0.100D+01
 GapD=    2.000 DampG=2.000 DampE=0.250 DampFc=0.5000 IDamp=-1.
 Damping current iteration by 5.00D-01
 RMSDP=6.18D-02 MaxDP=6.81D-01              OVMax= 0.00D+00

 Cycle   2  Pass 1  IDiag  1:
 E=  4.14423505205662     Delta-E=       -0.859623179219 Rises=F Damp=T
 DIIS: error= 7.24D-02 at cycle   2 NSaved=   2.
 NSaved= 2 IEnMin= 2 EnMin=  4.14423505205662     IErMin= 2 ErrMin= 7.24D-02
 ErrMax= 7.24D-02  0.00D+00 EMaxC= 1.00D-01 BMatC= 1.56D-01 BMatP= 4.11D-01
 IDIUse=3 WtCom= 2.76D-01 WtEn= 7.24D-01
 Coeff-Com: -0.121D+01 0.221D+01
 Coeff-En:   0.000D+00 0.100D+01
 Coeff:     -0.333D+00 0.133D+01
 RMSDP=3.75D-02 MaxDP=3.75D-01 DE=-8.60D-01 OVMax= 0.00D+00

 Cycle   3  Pass 1  IDiag  1:
 E=  2.94740387357514     Delta-E=       -1.196831178481 Rises=F Damp=F
 DIIS: error= 1.92D-02 at cycle   3 NSaved=   3.
 NSaved= 3 IEnMin= 3 EnMin=  2.94740387357514     IErMin= 3 ErrMin= 1.92D-02
 ErrMax= 1.92D-02  0.00D+00 EMaxC= 1.00D-01 BMatC= 1.64D-02 BMatP= 1.56D-01
 IDIUse=3 WtCom= 8.08D-01 WtEn= 1.92D-01
 Coeff-Com:  0.480D+00-0.111D+01 0.163D+01
 Coeff-En:   0.000D+00 0.000D+00 0.100D+01
 Coeff:      0.388D+00-0.898D+00 0.151D+01
 RMSDP=1.33D-02 MaxDP=7.02D-02 DE=-1.20D+00 OVMax= 0.00D+00

 Cycle   4  Pass 1  IDiag  3:
 E=  2.87871073779638     Delta-E=       -0.068693135779 Rises=F Damp=F
 DIIS: error= 4.14D-03 at cycle   4 NSaved=   4.
 NSaved= 4 IEnMin= 4 EnMin=  2.87871073779638     IErMin= 4 ErrMin= 4.14D-03
 ErrMax= 4.14D-03  0.00D+00 EMaxC= 1.00D-01 BMatC= 9.73D-04 BMatP= 1.64D-02
 IDIUse=3 WtCom= 9.59D-01 WtEn= 4.14D-02
 Coeff-Com: -0.867D-01 0.181D+00-0.427D+00 0.133D+01
 Coeff-En:   0.000D+00 0.000D+00 0.000D+00 0.100D+01
 Coeff:     -0.831D-01 0.174D+00-0.410D+00 0.132D+01
 Gap=     0.381 Goal=   None    Shift=    0.000
 RMSDP=3.70D-03 MaxDP=2.06D-02 DE=-6.87D-02 OVMax= 3.06D-02

 Cycle   5  Pass 1  IDiag  3:
 E=  2.87432656846160     Delta-E=       -0.004384169335 Rises=F Damp=F
 DIIS: error= 9.77D-04 at cycle   5 NSaved=   5.
 NSaved= 5 IEnMin= 5 EnMin=  2.87432656846160     IErMin= 5 ErrMin= 9.77D-04
 ErrMax= 9.77D-04  0.00D+00 EMaxC= 1.00D-01 BMatC= 4.08D-05 BMatP= 9.73D-04
 IDIUse=3 WtCom= 9.90D-01 WtEn= 9.77D-03
 Coeff-Com:  0.204D-01-0.387D-01 0.902D-01-0.448D+00 0.138D+01
 Coeff-En:   0.000D+00 0.000D+00 0.000D+00 0.000D+00 0.100D+01
 Coeff:      0.202D-01-0.383D-01 0.894D-01-0.444D+00 0.137D+01
 Gap=     0.382 Goal=   None    Shift=    0.000
 RMSDP=8.60D-04 MaxDP=4.73D-03 DE=-4.38D-03 OVMax= 5.67D-03

 Cycle   6  Pass 1  IDiag  3:
 E=  2.87411554718031     Delta-E=       -0.000211021281 Rises=F Damp=F
 DIIS: error= 1.98D-04 at cycle   6 NSaved=   6.
 NSaved= 6 IEnMin= 6 EnMin=  2.87411554718031     IErMin= 6 ErrMin= 1.98D-04
 ErrMax= 1.98D-04  0.00D+00 EMaxC= 1.00D-01 BMatC= 1.79D-06 BMatP= 4.08D-05
 IDIUse=3 WtCom= 9.98D-01 WtEn= 1.98D-03
 Coeff-Com: -0.932D-03 0.199D-02-0.122D-01 0.997D-01-0.502D+00 0.141D+01
 Coeff-En:   0.000D+00 0.000D+00 0.000D+00 0.000D+00 0.000D+00 0.100D+01
 Coeff:     -0.930D-03 0.199D-02-0.122D-01 0.995D-01-0.501D+00 0.141D+01
 Gap=     0.382 Goal=   None    Shift=    0.000
 RMSDP=1.84D-04 MaxDP=1.30D-03 DE=-2.11D-04 OVMax= 1.45D-03

 Cycle   7  Pass 1  IDiag  3:
 E=  2.87410691220548     Delta-E=       -0.000008634975 Rises=F Damp=F
 DIIS: error= 2.47D-05 at cycle   7 NSaved=   7.
 NSaved= 7 IEnMin= 7 EnMin=  2.87410691220548     IErMin= 7 ErrMin= 2.47D-05
 ErrMax= 2.47D-05  0.00D+00 EMaxC= 1.00D-01 BMatC= 4.00D-08 BMatP= 1.79D-06
 IDIUse=1 WtCom= 1.00D+00 WtEn= 0.00D+00
 Coeff-Com:  0.728D-04-0.246D-03 0.437D-02-0.396D-01 0.210D+00-0.658D+00
 Coeff-Com:  0.148D+01
 Coeff:      0.728D-04-0.246D-03 0.437D-02-0.396D-01 0.210D+00-0.658D+00
 Coeff:      0.148D+01
 Gap=     0.382 Goal=   None    Shift=    0.000
 RMSDP=2.56D-05 MaxDP=1.72D-04 DE=-8.63D-06 OVMax= 1.76D-04

 Cycle   8  Pass 1  IDiag  3:
 E=  2.87410673291583     Delta-E=       -0.000000179290 Rises=F Damp=F
 DIIS: error= 2.82D-06 at cycle   8 NSaved=   8.
 NSaved= 8 IEnMin= 8 EnMin=  2.87410673291583     IErMin= 8 ErrMin= 2.82D-06
 ErrMax= 2.82D-06  0.00D+00 EMaxC= 1.00D-01 BMatC= 7.84D-10 BMatP= 4.00D-08
 IDIUse=1 WtCom= 1.00D+00 WtEn= 0.00D+00
 Coeff-Com: -0.278D-04 0.361D-04-0.116D-02 0.121D-01-0.675D-01 0.214D+00
 Coeff-Com: -0.522D+00 0.136D+01
 Coeff:     -0.278D-04 0.361D-04-0.116D-02 0.121D-01-0.675D-01 0.214D+00
 Coeff:     -0.522D+00 0.136D+01
 Gap=     0.382 Goal=   None    Shift=    0.000
 RMSDP=3.06D-06 MaxDP=1.61D-05 DE=-1.79D-07 OVMax= 1.97D-05

 Cycle   9  Pass 1  IDiag  3:
 E=  2.87410672991305     Delta-E=       -0.000000003003 Rises=F Damp=F
 DIIS: error= 5.46D-07 at cycle   9 NSaved=   9.
 NSaved= 9 IEnMin= 9 EnMin=  2.87410672991305     IErMin= 9 ErrMin= 5.46D-07
 ErrMax= 5.46D-07  0.00D+00 EMaxC= 1.00D-01 BMatC= 1.93D-11 BMatP= 7.84D-10
 IDIUse=1 WtCom= 1.00D+00 WtEn= 0.00D+00
 Coeff-Com:  0.730D-05-0.630D-05 0.217D-03-0.225D-02 0.126D-01-0.395D-01
 Coeff-Com:  0.940D-01-0.308D+00 0.124D+01
 Coeff:      0.730D-05-0.630D-05 0.217D-03-0.225D-02 0.126D-01-0.395D-01
 Coeff:      0.940D-01-0.308D+00 0.124D+01
 Gap=     0.382 Goal=   None    Shift=    0.000
 RMSDP=5.27D-07 MaxDP=2.51D-06 DE=-3.00D-09 OVMax= 2.92D-06

 Cycle  10  Pass 1  IDiag  3:
 E=  2.87410672982325     Delta-E=       -0.000000000090 Rises=F Damp=F
 DIIS: error= 1.48D-07 at cycle  10 NSaved=  10.
 NSaved=10 IEnMin=10 EnMin=  2.87410672982325     IErMin=10 ErrMin= 1.48D-07
 ErrMax= 1.48D-07  0.00D+00 EMaxC= 1.00D-01 BMatC= 1.39D-12 BMatP= 1.93D-11
 IDIUse=1 WtCom= 1.00D+00 WtEn= 0.00D+00
 Coeff-Com:  0.415D-06-0.199D-05-0.347D-04 0.337D-03-0.184D-02 0.546D-02
 Coeff-Com: -0.120D-01 0.416D-01-0.381D+00 0.135D+01
 Coeff:      0.415D-06-0.199D-05-0.347D-04 0.337D-03-0.184D-02 0.546D-02
 Coeff:     -0.120D-01 0.416D-01-0.381D+00 0.135D+01
 Gap=     0.382 Goal=   None    Shift=    0.000
 RMSDP=1.81D-07 MaxDP=9.12D-07 DE=-8.98D-11 OVMax= 1.33D-06

 Cycle  11  Pass 1  IDiag  3:
 E=  2.87410672981467     Delta-E=       -0.000000000009 Rises=F Damp=F
 DIIS: error= 4.70D-08 at cycle  11 NSaved=  11.
 NSaved=11 IEnMin=11 EnMin=  2.87410672981467     IErMin=11 ErrMin= 4.70D-08
 ErrMax= 4.70D-08  0.00D+00 EMaxC= 1.00D-01 BMatC= 1.03D-13 BMatP= 1.39D-12
 IDIUse=1 WtCom= 1.00D+00 WtEn= 0.00D+00
 Coeff-Com: -0.207D-06 0.351D-06 0.147D-05 0.161D-04-0.145D-03 0.671D-03
 Coeff-Com: -0.219D-02 0.522D-02 0.876D-01-0.612D+00 0.152D+01
 Coeff:     -0.207D-06 0.351D-06 0.147D-05 0.161D-04-0.145D-03 0.671D-03
 Coeff:     -0.219D-02 0.522D-02 0.876D-01-0.612D+00 0.152D+01
 Gap=     0.382 Goal=   None    Shift=    0.000
 RMSDP=5.71D-08 MaxDP=3.47D-07 DE=-8.58D-12 OVMax= 4.53D-07

 Cycle  12  Pass 1  IDiag  3:
 E=  2.87410672981395     Delta-E=       -0.000000000001 Rises=F Damp=F
 DIIS: error= 7.52D-09 at cycle  12 NSaved=  12.
 NSaved=12 IEnMin=12 EnMin=  2.87410672981395     IErMin=12 ErrMin= 7.52D-09
 ErrMax= 7.52D-09  0.00D+00 EMaxC= 1.00D-01 BMatC= 2.89D-15 BMatP= 1.03D-13
 IDIUse=1 WtCom= 1.00D+00 WtEn= 0.00D+00
 Coeff-Com: -0.760D-07 0.152D-06 0.840D-07-0.130D-04 0.922D-04-0.366D-03
 Coeff-Com:  0.110D-02-0.308D-02-0.210D-01 0.182D+00-0.560D+00 0.140D+01
 Coeff:     -0.760D-07 0.152D-06 0.840D-07-0.130D-04 0.922D-04-0.366D-03
 Coeff:      0.110D-02-0.308D-02-0.210D-01 0.182D+00-0.560D+00 0.140D+01
 Gap=     0.382 Goal=   None    Shift=    0.000
 RMSDP=8.73D-09 MaxDP=5.62D-08 DE=-7.25D-13 OVMax= 6.96D-08

 Cycle  13  Pass 2  IDiag  1:
 SCF Done:  E(RAM1) =   2.87410672981     A.U. after   13 cycles
            NFock= 12  Conv=0.87D-08     -V/T= 1.1935
 KE=-1.485317661775D+01 PE=-1.705534160204D+02 EE= 8.337190384272D+01
 Leave Link  502 at Tue Dec 15 17:06:02 2015, MaxMem=    33554432 cpu:         0.0
 (Enter /home/Applications/g09/g09/l801.exe)
 Range of M.O.s used for correlation:     1    24
 NBasis=    24 NAE=    13 NBE=    13 NFC=     0 NFV=     0
 NROrb=     24 NOA=    13 NOB=    13 NVA=    11 NVB=    11
 Leave Link  801 at Tue Dec 15 17:06:02 2015, MaxMem=    33554432 cpu:         0.0
 (Enter /home/Applications/g09/g09/l914.exe)
 RHF ground state
 MDV=    33554432 DFT=F DoStab=F Mixed=F DoRPA=F DoScal=F NonHer=F
 Making orbital integer symmetry assigments:
 Orbital symmetries:
       Occupied  (A) (A) (A) (A) (A) (A) (A) (A) (A) (A) (A) (A)
                 (A)
       Virtual   (A) (A) (A) (A) (A) (A) (A) (A) (A) (A) (A)
    60 initial guesses have been made.
 Convergence on wavefunction:    0.000001000000000
 Davidson Disk Diagonalization:  ConvIn= 1.00D-06 SkipCon=T Conv= 1.00D-06.
 Max sub-space:   240 roots to seek:    60 dimension of matrix:          286
 Iteration     1 Dimension    60 NMult     0 NNew     60
 CISAX will form    60 AO SS matrices at one time.
 NMat=    60 NSing=    60 JSym2X= 0.
 FoFJK:  IHMeth= 8 ICntrl=       0 DoSepK=F KAlg= 0 I1Cent=   0 FoldK=F
 IRaf=         1 NMat= 120 IRICut=       1 DoRegI=T DoRafI=F ISym2E= 0.
 FoFCou: FMM=F IPFlag=           0 FMFlag=      100000 FMFlg1=           0
         NFxFlg=           0 DoJE=F BraDBF=F KetDBF=F FulRan=T
         wScrn=  0.000000 ICntrl=       0 IOpCl=  0 I1Cent=           0 NGrid=           0
         NMat0=  120 NMatS0=     60 NMatT0=    0 NMatD0=  120 NMtDS0=    0 NMtDT0=    0
 Symmetry not used in FoFCou.
 New state      3 was old state      4
 New state      4 was old state      3
 New state      5 was old state      6
 New state      6 was old state      5
 New state      7 was old state      8
 New state      8 was old state      9
 New state      9 was old state      7
 New state     10 was old state     11
 New state     11 was old state     10
 New state     15 was old state     21
 Excitation Energies [eV] at current iteration:
 Root      1 :     5.057913666474414
 Root      2 :     6.041916236706846
 Root      3 :     6.367195791291973
 Root      4 :     6.495711182929549
 Root      5 :     7.356012002060983
 Root      6 :     7.741047942453696
 Root      7 :     7.886157953670564
 Root      8 :     8.407523923432413
 Root      9 :     8.664748421871099
 Root     10 :     8.928116949289558
 Root     11 :     9.146750852538645
 Root     12 :     9.264367752577595
 Root     13 :     9.514965807617470
 Root     14 :     9.541099746734409
 Root     15 :     9.860486566534364
 Root     16 :    10.114524291596800
 Root     17 :    10.432755482783400
 Root     18 :    10.567668203673260
 Root     19 :    10.590219960592970
 Root     20 :    10.981942727559900
 Root     21 :    11.190772229097870
 Root     22 :    11.233407397341600
 Root     23 :    11.371725900477730
 Root     24 :    11.455025596004230
 Root     25 :    11.641511519624920
 Root     26 :    12.080691418470560
 Root     27 :    12.162866706556490
 Root     28 :    12.369875809600910
 Root     29 :    12.423293270842890
 Root     30 :    12.602299562775380
 Root     31 :    12.636978242629140
 Root     32 :    12.796382687505140
 Root     33 :    12.891625099984600
 Root     34 :    13.140014099683560
 Root     35 :    13.249376631821750
 Root     36 :    13.411527905073790
 Root     37 :    13.678369487715030
 Root     38 :    13.685133759243860
 Root     39 :    13.798579210529580
 Root     40 :    13.903842404301080
 Root     41 :    14.076684192585490
 Root     42 :    14.233931321112450
 Root     43 :    14.363751112322600
 Root     44 :    14.456302451611370
 Root     45 :    14.467512883196540
 Root     46 :    14.559272026549710
 Root     47 :    15.262284228495710
 Root     48 :    15.289394461487210
 Root     49 :    15.526168948138300
 Root     50 :    15.575645372496660
 Root     51 :    15.641016117240300
 Root     52 :    15.658385249369830
 Root     53 :    15.894039762106980
 Root     54 :    16.375478621669830
 Root     55 :    17.138057673745420
 Root     56 :    17.183721600709100
 Root     57 :    17.272179704241300
 Root     58 :    17.514728428211020
 Root     59 :    17.650790672045530
 Root     60 :    17.897590697371950
 Iteration     2 Dimension   120 NMult    60 NNew     60
 CISAX will form    60 AO SS matrices at one time.
 NMat=    60 NSing=    60 JSym2X= 0.
 Root      1 not converged, maximum delta is    0.022729911736240
 Root      2 not converged, maximum delta is    0.018235107717092
 Root      3 not converged, maximum delta is    0.029584495091043
 Root      4 not converged, maximum delta is    0.026172777936622
 Root      5 not converged, maximum delta is    0.020109508424305
 Root      6 not converged, maximum delta is    0.018021162413032
 Root      7 not converged, maximum delta is    0.016595253113431
 Root      8 not converged, maximum delta is    0.017713215426155
 Root      9 not converged, maximum delta is    0.017058919692608
 Root     10 not converged, maximum delta is    0.030737664184884
 Root     11 not converged, maximum delta is    0.059033324695312
 Root     12 not converged, maximum delta is    0.024904065675751
 Root     13 not converged, maximum delta is    0.127094616202566
 Root     14 not converged, maximum delta is    0.065109815131595
 Root     15 not converged, maximum delta is    0.103659816323303
 Excitation Energies [eV] at current iteration:
 Root      1 :     4.976997488402255   Change is   -0.080916178072160
 Root      2 :     6.013894045460490   Change is   -0.028022191246355
 Root      3 :     6.335614934241232   Change is   -0.031580857050742
 Root      4 :     6.461630990415444   Change is   -0.034080192514104
 Root      5 :     7.335647863771070   Change is   -0.020364138289913
 Root      6 :     7.716540982421475   Change is   -0.024506960032221
 Root      7 :     7.869331295042011   Change is   -0.016826658628553
 Root      8 :     8.392731166413977   Change is   -0.014792757018435
 Root      9 :     8.632279554564480   Change is   -0.032468867306618
 Root     10 :     8.870398219620375   Change is   -0.057718729669183
 Root     11 :     9.030762441273305   Change is   -0.115988411265340
 Root     12 :     9.218348722890628   Change is   -0.046019029686966
 Root     13 :     9.393176709669481   Change is   -0.121789097947989
 Root     14 :     9.468249814432244   Change is   -0.072849932302163
 Root     15 :     9.722301089178352   Change is   -0.138185477356012
 Root     16 :    10.080651449023890   Change is   -0.033872842572907
 Root     17 :    10.219883913657140   Change is   -0.212871569126264
 Root     18 :    10.379852661113270   Change is   -0.210367299479700
 Root     19 :    10.541927653768730   Change is   -0.025740549904530
 Root     20 :    10.838032025179840   Change is   -0.352740203918038
 Root     21 :    10.840830913753360   Change is   -0.141111813806541
 Root     22 :    11.029877649590730   Change is   -0.341848250887007
 Root     23 :    11.140179304783840   Change is   -0.093228092557764
 Root     24 :    11.415700574560690   Change is   -0.039325021443537
 Root     25 :    11.513803743173650   Change is   -0.127707776451273
 Root     26 :    11.877064915490020   Change is   -0.203626502980538
 Root     27 :    12.041071138167660   Change is   -0.121795568388838
 Root     28 :    12.123867048727960   Change is   -0.246008760872956
 Root     29 :    12.160826307652370   Change is   -0.262466963190520
 Root     30 :    12.396993460188210   Change is   -0.239984782440931
 Root     31 :    12.461434948766260   Change is   -0.140864614009113
 Root     32 :    12.672261867172530   Change is   -0.124120820332609
 Root     33 :    12.736211916361100   Change is   -0.155413183623497
 Root     34 :    12.911084501320720   Change is   -0.228929598362834
 Root     35 :    12.965975342374150   Change is   -0.283401289447600
 Root     36 :    13.223581218970020   Change is   -0.187946686103771
 Root     37 :    13.489469157360190   Change is   -0.195664601883674
 Root     38 :    13.569247969516340   Change is   -0.109121518198698
 Root     39 :    13.621435675524870   Change is   -0.177143535004708
 Root     40 :    13.680403251078850   Change is   -0.223439153222231
 Root     41 :    13.853506515989440   Change is   -0.602795935621933
 Root     42 :    13.967768625980910   Change is   -0.108915566604574
 Root     43 :    14.114149371074080   Change is   -0.119781950038372
 Root     44 :    14.230635579980250   Change is   -0.133115532342345
 Root     45 :    14.403019400731940   Change is   -0.064493482464606
 Root     46 :    14.447664800509620   Change is   -0.111607226040087
 Root     47 :    14.960512673768190   Change is   -0.301771554727522
 Root     48 :    15.132891979340220   Change is   -0.156502482146993
 Root     49 :    15.292818739323050   Change is   -0.233350208815253
 Root     50 :    15.415023535476090   Change is   -0.160621837020576
 Root     51 :    15.496543644352390   Change is   -0.144472472887908
 Root     52 :    15.574483505567530   Change is   -0.083901743802298
 Root     53 :    15.690690425368490   Change is   -0.203349336738496
 Root     54 :    16.192634301272090   Change is   -0.182844320397738
 Root     55 :    16.853183173151920   Change is   -0.330538427557180
 Root     56 :    16.896318773075760   Change is   -0.241738900669660
 Root     57 :    16.970586800474600   Change is   -0.301592903766694
 Root     58 :    17.111458531464200
 Root     59 :    17.202412834396260
 Root     60 :    17.330856549529940   Change is   -0.183871878681076
 Iteration     3 Dimension   135 NMult   120 NNew     15
 CISAX will form    15 AO SS matrices at one time.
 NMat=    15 NSing=    15 JSym2X= 0.
 Root      1 not converged, maximum delta is    0.001371064954661
 Root      2 not converged, maximum delta is    0.000093406635069
 Root      3 not converged, maximum delta is    0.000076514379535
 Root      4 not converged, maximum delta is    0.000080914912854
 Root      5 not converged, maximum delta is    0.000047433642371
 Root      6 not converged, maximum delta is    0.000106799119152
 Root      7 not converged, maximum delta is    0.000180977122501
 Root      8 not converged, maximum delta is    0.000051223741174
 Root      9 not converged, maximum delta is    0.001010049254774
 Root     10 not converged, maximum delta is    0.000177761746783
 Root     11 not converged, maximum delta is    0.001429895027830
 Root     12 not converged, maximum delta is    0.000268218176364
 Root     13 not converged, maximum delta is    0.002320296749017
 Root     14 not converged, maximum delta is    0.000211207164055
 Root     15 not converged, maximum delta is    0.001466878787456
 Excitation Energies [eV] at current iteration:
 Root      1 :     4.976549631654602   Change is   -0.000447856747652
 Root      2 :     6.013891356956963   Change is   -0.000002688503527
 Root      3 :     6.335613614110344   Change is   -0.000001320130887
 Root      4 :     6.461629364356392   Change is   -0.000001626059053
 Root      5 :     7.335647292350142   Change is   -0.000000571420928
 Root      6 :     7.716538049443214   Change is   -0.000002932978261
 Root      7 :     7.869327187157092   Change is   -0.000004107884919
 Root      8 :     8.392730371069637   Change is   -0.000000795344340
 Root      9 :     8.632115994332130   Change is   -0.000163560232351
 Root     10 :     8.870393305522351   Change is   -0.000004914098025
 Root     11 :     9.030096691467357   Change is   -0.000665749805950
 Root     12 :     9.218332806725513   Change is   -0.000015916165115
 Root     13 :     9.392483693472613   Change is   -0.000693016196867
 Root     14 :     9.468243466123331   Change is   -0.000006348308914
 Root     15 :     9.721770537876386   Change is   -0.000530551301966
 Iteration     4 Dimension   143 NMult   135 NNew      8
 CISAX will form     8 AO SS matrices at one time.
 NMat=     8 NSing=     8 JSym2X= 0.
 Root      1 not converged, maximum delta is    0.000083021930926
 Root      2 not converged, maximum delta is    0.000003383755436
 Root      3 not converged, maximum delta is    0.000006040874307
 Root      4 not converged, maximum delta is    0.000002424814249
 Root      5 not converged, maximum delta is    0.000002033124850
 Root      6 not converged, maximum delta is    0.000005163099483
 Root      7 not converged, maximum delta is    0.000004353091299
 Root      8 not converged, maximum delta is    0.000003110320310
 Root      9 not converged, maximum delta is    0.000052742743846
 Root     10 not converged, maximum delta is    0.000005742453141
 Root     11 not converged, maximum delta is    0.000127805690368
 Root     12 not converged, maximum delta is    0.000009738022136
 Root     13 not converged, maximum delta is    0.000030712153991
 Root     14 not converged, maximum delta is    0.000010603429532
 Root     15 not converged, maximum delta is    0.000104923393302
 Excitation Energies [eV] at current iteration:
 Root      1 :     4.976548526439116   Change is   -0.000001105215486
 Root      2 :     6.013891353370747   Change is   -0.000000003586216
 Root      3 :     6.335613610020104   Change is   -0.000000004090239
 Root      4 :     6.461629362676629   Change is   -0.000000001679764
 Root      5 :     7.335647291518713   Change is   -0.000000000831429
 Root      6 :     7.716538044212587   Change is   -0.000000005230627
 Root      7 :     7.869327181647868   Change is   -0.000000005509224
 Root      8 :     8.392730368353961   Change is   -0.000000002715677
 Root      9 :     8.632115525662092   Change is   -0.000000468670036
 Root     10 :     8.870393298241757   Change is   -0.000000007280593
 Root     11 :     9.030094886055004   Change is   -0.000001805412352
 Root     12 :     9.218332778644168   Change is   -0.000000028081346
 Root     13 :     9.392483433772760   Change is   -0.000000259699853
 Root     14 :     9.468243450554269   Change is   -0.000000015569063
 Root     15 :     9.721769655117996   Change is   -0.000000882758392
 Convergence achieved on expansion vectors.
 ***********************************************************************
 Excited states from <AA,BB:AA,BB> singles matrix:
 ***********************************************************************
 
 1PDM for each excited state written to RWF  633
 Ground to excited state transition densities written to RWF  633
 Ground to excited state transition electric dipole moments (Au):
       state          X           Y           Z        Dip. S.      Osc.
         1         1.6535      0.3519     -0.0305      2.8588      0.3486
         2        -0.0356      0.0033      0.1453      0.0224      0.0033
         3         0.0152      0.0135      0.0180      0.0007      0.0001
         4         0.0297      0.0078      0.1433      0.0215      0.0034
         5         0.0271      0.0089     -0.0172      0.0011      0.0002
         6         0.0021      0.0200      0.3165      0.1006      0.0190
         7         0.0256     -0.0616      0.0132      0.0046      0.0009
         8         0.0063     -0.0105      0.0376      0.0016      0.0003
         9         0.2010     -0.6544      0.0325      0.4698      0.0993
        10        -0.0361     -0.0026     -0.2069      0.0441      0.0096
        11        -0.6698     -0.0456     -0.0018      0.4507      0.0997
        12         0.0773     -0.0436     -0.5806      0.3450      0.0779
        13         0.0483      0.3961     -0.0474      0.1615      0.0372
        14         0.0337     -0.0450     -0.0924      0.0117      0.0027
        15         0.5163      0.3350      0.0251      0.3794      0.0904
 Ground to excited state transition velocity dipole moments (Au):
       state          X           Y           Z        Dip. S.      Osc.
         1        -0.1607     -0.0413      0.0041      0.0275      0.1004
         2         0.0035     -0.0071     -0.1140      0.0131      0.0394
         3        -0.0075     -0.0035     -0.0099      0.0002      0.0005
         4        -0.0035     -0.0038     -0.1501      0.0226      0.0633
         5        -0.0010     -0.0021      0.0210      0.0004      0.0011
         6         0.0020     -0.0071     -0.0525      0.0028      0.0066
         7        -0.0017      0.0101     -0.0163      0.0004      0.0009
         8         0.0027      0.0006     -0.0249      0.0006      0.0014
         9        -0.0597      0.2301     -0.0044      0.0566      0.1189
        10         0.0099      0.0021     -0.0248      0.0007      0.0015
        11         0.1189      0.0336     -0.0015      0.0153      0.0307
        12        -0.0106      0.0035     -0.0386      0.0016      0.0032
        13        -0.0267     -0.0283     -0.0001      0.0015      0.0029
        14        -0.0073      0.0078     -0.0018      0.0001      0.0002
        15        -0.0902     -0.0188     -0.0068      0.0085      0.0159
 Ground to excited state transition magnetic dipole moments (Au):
       state          X           Y           Z
         1         0.0106     -0.0199      0.5106
         2        -0.1311      0.1637     -0.0097
         3         0.1048     -0.8064      0.0080
         4        -0.1271     -0.0225     -0.0038
         5        -0.1072      0.6668     -0.0063
         6        -0.9176     -0.0817     -0.0069
         7         0.5157     -0.0154      0.0074
         8        -0.1345      0.0767     -0.0033
         9        -0.0810     -0.0458     -0.0555
        10        -0.0855      0.2111     -0.0457
        11        -0.0013     -0.0328     -0.2456
        12        -0.0742     -0.1670      0.0317
        13         0.0284      0.0058      0.0837
        14        -0.0651      0.6646     -0.0606
        15         0.0234     -0.0203     -0.0645
 Ground to excited state transition velocity quadrupole moments (Au):
       state          XX          YY          ZZ          XY          XZ          YZ
         1         0.1003     -0.1003      0.0038     -0.2452      0.0021      0.0085
         2         0.0004     -0.0135     -0.0040     -0.0042     -0.1306     -0.1170
         3         0.0151     -0.0044      0.0032     -0.0190     -0.2179     -0.0386
         4         0.0048     -0.0054     -0.0024     -0.0071      0.1318     -0.0800
         5        -0.0042     -0.0077      0.0065     -0.0195     -0.4219     -0.0899
         6         0.0155     -0.0133      0.0037      0.0063     -0.0310     -0.0785
         7        -0.0180      0.0043      0.0073     -0.0080      0.0093     -0.2042
         8        -0.0086     -0.0002      0.0060      0.0011      0.1284     -0.0717
         9        -0.1486      0.2712     -0.0210     -0.1842     -0.0107      0.0243
        10         0.0112     -0.0018     -0.0025      0.0112     -0.2363     -0.1144
        11         0.0330      0.1362      0.0022      0.2004      0.0251     -0.0134
        12         0.0008     -0.0156      0.0070     -0.0131      0.0711     -0.1075
        13         0.4024      0.1067      0.0436      0.0987      0.0249     -0.0158
        14        -0.0195      0.0000     -0.0009     -0.0360      0.1010     -0.0217
        15         0.3585      0.0409      0.0353     -0.1317      0.0293      0.0198
 <0|del|b> * <b|rxdel|0> + <0|del|b> * <b|delr+rdel|0>
 Rotatory Strengths (R) in cgs (10**-40 erg-esu-cm/Gauss)
       state          XX          YY          ZZ    R(velocity)    E-M Angle
         1         3.8645      0.0502      0.7747      1.5631       89.18
         2        -0.8063     -0.4082     -0.4568     -0.5571       91.25
         3         3.3229     -1.1569      3.8651      2.0104       79.09
         4         3.2956      0.3451     -0.3696      1.0903       86.75
         5        -3.6925      0.6312     -0.6469     -1.2361       95.68
         6         0.4946     -1.5692     -1.0486     -0.7077       91.00
         7        -0.2949     -0.9590     -1.5801     -0.9447       96.69
         8         0.0310     -0.5130     -0.0625     -0.1815       93.51
         9        -7.8320      3.1366     -7.4720     -4.0558      102.23
        10         1.9460     -0.6114      0.2535      0.5294       83.25
        11        -1.9996     -1.1601      1.2551     -0.6348       91.67
        12        -1.6195      0.1994     -0.7177     -0.7126       97.89
        13         0.5428     -0.3467     -2.1000     -0.6346      105.63
        14         4.6535      0.6908      6.4007      3.9150       37.42
        15         2.2436     -4.3036     -0.4914     -0.8505      101.25
 1/2[<0|r|b>*<b|rxdel|0> + (<0|rxdel|b>*<b|r|0>)*]
 Rotatory Strengths (R) in cgs (10**-40 erg-esu-cm/Gauss)
       state          XX          YY          ZZ     R(length)
         1       -12.4081      4.9616     11.0108      1.1881
         2        -3.2964     -0.3876      0.9989     -0.8950
         3        -1.1242      7.7186     -0.1014      2.1643
         4         2.6651      0.1247      0.3807      1.0568
         5         2.0510     -4.1945     -0.0770     -0.7402
         6         1.3623      1.1551      1.5542      1.3572
         7        -9.3239     -0.6698     -0.0696     -3.3544
         8         0.6014      0.5675      0.0882      0.4191
         9        11.5119    -21.2013      1.2762     -2.8044
        10        -2.1816      0.3828     -6.6816     -2.8268
        11        -0.6360     -1.0573     -0.3151     -0.6695
        12         4.0560     -5.1531     13.0243      3.9757
        13        -0.9717     -1.6249      2.8067      0.0700
        14         1.5534     21.1657     -3.9589      6.2534
        15        -8.5368      4.7996      1.1430     -0.8647
  1/2[<0|del|b>*<b|r|0> + (<0|r|b>*<b|del|0>)*] (Au)
       state          X           Y           Z        Dip. S.   Osc.(frdel)
         1        -0.2657     -0.0145     -0.0001      0.2803      0.1869
         2        -0.0001      0.0000     -0.0166      0.0167      0.0111
         3        -0.0001      0.0000     -0.0002      0.0003      0.0002
         4        -0.0001      0.0000     -0.0215      0.0216      0.0144
         5         0.0000      0.0000     -0.0004      0.0004      0.0003
         6         0.0000     -0.0001     -0.0166      0.0168      0.0112
         7         0.0000     -0.0006     -0.0002      0.0009      0.0006
         8         0.0000      0.0000     -0.0009      0.0009      0.0006
         9        -0.0120     -0.1506     -0.0001      0.1628      0.1085
        10        -0.0004      0.0000      0.0051     -0.0048     -0.0032
        11        -0.0797     -0.0015      0.0000      0.0812      0.0541
        12        -0.0008     -0.0002      0.0224     -0.0215     -0.0143
        13        -0.0013     -0.0112      0.0000      0.0125      0.0083
        14        -0.0002     -0.0004      0.0002      0.0004      0.0003
        15        -0.0466     -0.0063     -0.0002      0.0530      0.0353

 Excitation energies and oscillator strengths:
 
 Excited State   1:      Singlet-A      4.9765 eV  249.14 nm  f=0.3486  <S**2>=0.000
      13 -> 14         0.69711
 This state for optimization and/or second-order correction.
 Total Energy, E(CIS) =   3.05699153097    
 Copying the excited state density for this state as the 1-particle RhoCI density.
 
 Excited State   2:      Singlet-A      6.0139 eV  206.16 nm  f=0.0033  <S**2>=0.000
      13 -> 15         0.65289
      13 -> 17         0.17945
      13 -> 18        -0.15400
 
 Excited State   3:      Singlet-A      6.3356 eV  195.69 nm  f=0.0001  <S**2>=0.000
       9 -> 14        -0.11994
      12 -> 14         0.69089
 
 Excited State   4:      Singlet-A      6.4616 eV  191.88 nm  f=0.0034  <S**2>=0.000
      13 -> 16         0.61902
      13 -> 17         0.13509
      13 -> 18         0.26273
 
 Excited State   5:      Singlet-A      7.3356 eV  169.02 nm  f=0.0002  <S**2>=0.000
      13 -> 15         0.11115
      13 -> 16        -0.22540
      13 -> 18         0.50357
      13 -> 19        -0.26534
      13 -> 20        -0.15891
      13 -> 21         0.26061
 
 Excited State   6:      Singlet-A      7.7165 eV  160.67 nm  f=0.0190  <S**2>=0.000
      10 -> 14        -0.24870
      11 -> 14        -0.19355
      13 -> 15        -0.16144
      13 -> 16        -0.11352
      13 -> 17         0.58339
 
 Excited State   7:      Singlet-A      7.8693 eV  157.55 nm  f=0.0009  <S**2>=0.000
      10 -> 14         0.48454
      11 -> 14         0.39017
      13 -> 17         0.29770
 
 Excited State   8:      Singlet-A      8.3927 eV  147.73 nm  f=0.0003  <S**2>=0.000
      13 -> 16        -0.14528
      13 -> 18         0.29397
      13 -> 19         0.59051
      13 -> 21        -0.12348
 
 Excited State   9:      Singlet-A      8.6321 eV  143.63 nm  f=0.0993  <S**2>=0.000
      10 -> 14        -0.42021
      11 -> 14         0.51906
      12 -> 16         0.12324
 
 Excited State  10:      Singlet-A      8.8704 eV  139.77 nm  f=0.0096  <S**2>=0.000
      13 -> 18         0.22656
      13 -> 19        -0.20188
      13 -> 20         0.53389
      13 -> 21        -0.33235
 
 Excited State  11:      Singlet-A      9.0301 eV  137.30 nm  f=0.0997  <S**2>=0.000
      12 -> 15         0.52955
      12 -> 16        -0.24851
      12 -> 18        -0.27081
 
 Excited State  12:      Singlet-A      9.2183 eV  134.50 nm  f=0.0779  <S**2>=0.000
      13 -> 19         0.14199
      13 -> 20         0.40988
      13 -> 21         0.52895
 
 Excited State  13:      Singlet-A      9.3925 eV  132.00 nm  f=0.0372  <S**2>=0.000
       9 -> 15         0.15810
      10 -> 15         0.15930
      10 -> 17         0.13952
      11 -> 14        -0.12890
      11 -> 15         0.10876
      12 -> 15         0.35064
      12 -> 16         0.35862
      12 -> 17         0.12783
      12 -> 18         0.23318
      12 -> 19        -0.15917
 
 Excited State  14:      Singlet-A      9.4682 eV  130.95 nm  f=0.0027  <S**2>=0.000
       9 -> 14         0.67964
      12 -> 14         0.11677
      13 -> 21         0.10811
 
 Excited State  15:      Singlet-A      9.7218 eV  127.53 nm  f=0.0904  <S**2>=0.000
       9 -> 16         0.10976
      10 -> 16        -0.16011
      10 -> 17        -0.13636
      11 -> 16        -0.17495
      11 -> 17        -0.10359
      12 -> 16         0.46791
      12 -> 18        -0.21569
      12 -> 19         0.23472
      12 -> 21        -0.13272
 SavETr:  write IOETrn=   770 NScale= 10 NData=  16 NLR=1 NState=   15 LETran=     280.
 The selected state is a singlet
 CISAX will form     1 AO SS matrices at one time.
 NMat=     1 NSing=     1 JSym2X= 0.
 Leave Link  914 at Tue Dec 15 17:06:02 2015, MaxMem=    33554432 cpu:         0.1
 (Enter /home/Applications/g09/g09/l1002.exe)
 Minotr:  Closed shell wavefunction.
          Computing CIS/TD-HF/TD-KS derivatives.
          Using Z-Vector for PSCF gradient.
          Skipping F1 and S1 gradient terms here.
          IDoAtm=111111111
          Direct CPHF calculation.
          Differentiating once with respect to electric field.
                with respect to dipole field.
          Differentiating once with respect to nuclear coordinates.
          Electric field/nuclear overlap derivatives assumed to be zero.
          Requested convergence is 1.0D-10 RMS, and 1.0D-09 maximum.
          NewPWx=T KeepS1=F KeepF1=F KeepIn=T MapXYZ=F SortEE=F KeepMc=T.
          MDV=      33495423 using IRadAn=       0.
 Keep J ints in memory in canonical form, NReq=871704.
 FoFCou: FMM=F IPFlag=           0 FMFlag=           0 FMFlg1=           0
         NFxFlg=           0 DoJE=F BraDBF=F KetDBF=F FulRan=T
         wScrn=  0.000000 ICntrl=     600 IOpCl=  2 I1Cent=           0 NGrid=           0
         NMat0=    1 NMatS0=     54 NMatT0=    0 NMatD0=    1 NMtDS0=    0 NMtDT0=    0
 Symmetry not used in FoFCou.
          Solving linear equations separately, MaxMat=       0.
          There are     1 degrees of freedom in the 1st order CPHF.  IDoFFX=0 NUNeed=     1.
 LinEq1:  Iter=  0 NonCon=     1 RMS=9.33D-03 Max=7.72D-02 NDo=     1
 AX will form     1 AO Fock derivatives at one time.
 LinEq1:  Iter=  1 NonCon=     1 RMS=1.11D-03 Max=3.85D-03 NDo=     1
 LinEq1:  Iter=  2 NonCon=     1 RMS=2.29D-04 Max=1.75D-03 NDo=     1
 LinEq1:  Iter=  3 NonCon=     1 RMS=2.48D-05 Max=7.32D-05 NDo=     1
 LinEq1:  Iter=  4 NonCon=     1 RMS=3.23D-06 Max=1.09D-05 NDo=     1
 LinEq1:  Iter=  5 NonCon=     1 RMS=3.94D-07 Max=1.56D-06 NDo=     1
 LinEq1:  Iter=  6 NonCon=     1 RMS=4.71D-08 Max=2.02D-07 NDo=     1
 LinEq1:  Iter=  7 NonCon=     1 RMS=4.21D-09 Max=1.42D-08 NDo=     1
 LinEq1:  Iter=  8 NonCon=     1 RMS=3.88D-10 Max=1.13D-09 NDo=     1
 LinEq1:  Iter=  9 NonCon=     0 RMS=4.26D-11 Max=1.44D-10 NDo=     1
 Linear equations converged to 1.000D-10 1.000D-09 after     9 iterations.
 End of Minotr F.D. properties file   721 does not exist.
 End of Minotr F.D. properties file   722 does not exist.
 End of Minotr F.D. properties file   788 does not exist.
 Leave Link 1002 at Tue Dec 15 17:06:02 2015, MaxMem=    33554432 cpu:         0.0
 (Enter /home/Applications/g09/g09/l601.exe)
 Copying SCF densities to generalized density rwf, IOpCl= 0 IROHF=0.

 **********************************************************************

            Population analysis using the SCF density.

 **********************************************************************

 Orbital symmetries:
       Occupied  (A) (A) (A) (A) (A) (A) (A) (A) (A) (A) (A) (A)
                 (A)
       Virtual   (A) (A) (A) (A) (A) (A) (A) (A) (A) (A) (A)
 The electronic state is 1-A.
 Alpha  occ. eigenvalues --   -1.75527  -1.12108  -0.95322  -0.80702  -0.75709
 Alpha  occ. eigenvalues --   -0.66833  -0.65343  -0.55465  -0.49085  -0.45046
 Alpha  occ. eigenvalues --   -0.44467  -0.39558  -0.27974
 Alpha virt. eigenvalues --    0.10257   0.17136   0.19032   0.24738   0.26242
 Alpha virt. eigenvalues --    0.27916   0.29376   0.29657   0.39538   0.47868
 Alpha virt. eigenvalues --    0.52716
     Molecular Orbital Coefficients:
                           1         2         3         4         5
                           O         O         O         O         O
     Eigenvalues --    -1.75527  -1.12108  -0.95322  -0.80702  -0.75709
   1 1   C  1S          0.11009   0.47660  -0.23024  -0.29622  -0.11018
   2        1PX         0.08876   0.15567   0.15966   0.24608  -0.17790
   3        1PY        -0.11322  -0.07718   0.15836   0.00268  -0.32021
   4        1PZ        -0.00170  -0.00135   0.00142   0.00298   0.00790
   5 2   C  1S          0.25846   0.22647  -0.48927   0.08131   0.43954
   6        1PX         0.26761   0.05105   0.01325   0.27372  -0.21385
   7        1PY        -0.06287   0.32524   0.04761  -0.44488  -0.15567
   8        1PZ        -0.00945  -0.00154   0.01203  -0.00958   0.00244
   9 3   O  1S          0.75935  -0.32432  -0.05549   0.04846  -0.18842
  10        1PX         0.00320  -0.04365   0.23286  -0.27670  -0.04295
  11        1PY         0.08392   0.14708   0.05182  -0.04165   0.04641
  12        1PZ         0.00466   0.00188  -0.00088  -0.00257   0.00423
  13 4   C  1S          0.31426   0.16461   0.54534  -0.17206   0.33212
  14        1PX        -0.26180  -0.13377   0.09135   0.03338   0.29540
  15        1PY        -0.17332   0.34292  -0.00593   0.50979   0.02778
  16        1PZ        -0.01876  -0.00197  -0.03098   0.01944  -0.00609
  17 5   C  1S          0.11553   0.46314   0.26324   0.26313  -0.09819
  18        1PX        -0.05008  -0.14068   0.21846   0.18526   0.26893
  19        1PY        -0.14374  -0.10781  -0.11589   0.05349  -0.22667
  20        1PZ        -0.00073   0.00521  -0.00050   0.00806   0.00506
  21 6   H  1S          0.00803   0.14686   0.12023   0.18263  -0.08181
  22 7   H  1S          0.06497   0.00426   0.28101  -0.10334   0.30118
  23 8   H  1S          0.04972   0.02317  -0.22874   0.03066   0.33470
  24 9   H  1S          0.00825   0.15363  -0.10737  -0.22146  -0.09878
                           6         7         8         9        10
                           O         O         O         O         O
     Eigenvalues --    -0.66833  -0.65343  -0.55465  -0.49085  -0.45046
   1 1   C  1S          0.19544   0.12041   0.12882  -0.02873   0.08529
   2        1PX        -0.12830  -0.06949   0.00822  -0.35349  -0.14236
   3        1PY         0.26227   0.17273  -0.09186  -0.18194   0.38594
   4        1PZ        -0.19584   0.31193  -0.00382   0.03037  -0.18300
   5 2   C  1S          0.02376   0.01702   0.04664  -0.15903  -0.08291
   6        1PX        -0.21713  -0.12967   0.56575  -0.18600   0.04823
   7        1PY        -0.09814  -0.06983   0.21852   0.40159  -0.29848
   8        1PZ        -0.26679   0.44037  -0.03188   0.01811  -0.38375
   9 3   O  1S          0.23828   0.14067   0.03307   0.34638  -0.03160
  10        1PX        -0.00011   0.00837  -0.15529   0.01890  -0.06691
  11        1PY        -0.19400  -0.12563  -0.04357  -0.13564   0.01243
  12        1PZ        -0.13664   0.20342   0.00031  -0.02158   0.01367
  13 4   C  1S         -0.03914   0.00957  -0.09680  -0.10961   0.11687
  14        1PX         0.34081   0.18012   0.57201  -0.02568  -0.04232
  15        1PY         0.02254  -0.01342   0.01637   0.49361   0.19534
  16        1PZ        -0.31666   0.53256   0.05593   0.00317   0.36276
  17 5   C  1S          0.19924   0.12456  -0.15875  -0.04739  -0.08671
  18        1PX         0.06165   0.03068  -0.05477   0.37111  -0.08998
  19        1PY         0.31230   0.20327  -0.01309  -0.21249  -0.36389
  20        1PZ        -0.20393   0.33366   0.01685   0.03032   0.09765
  21 6   H  1S          0.27452   0.17443  -0.10589  -0.04360  -0.30332
  22 7   H  1S          0.17320   0.10284   0.28990  -0.13427   0.00749
  23 8   H  1S          0.14375   0.09802  -0.33527  -0.11755   0.02597
  24 9   H  1S          0.26360   0.15672   0.02194   0.05817   0.32116
                          11        12        13        14        15
                           O         O         O         V         V
     Eigenvalues --    -0.44467  -0.39558  -0.27974   0.10257   0.17136
   1 1   C  1S          0.07448   0.05794   0.00117   0.00092  -0.10896
   2        1PX        -0.07773   0.45777   0.00240  -0.01054  -0.11143
   3        1PY         0.26490  -0.09456   0.02401   0.02511   0.02105
   4        1PZ         0.24503   0.00370   0.53528   0.69396   0.00490
   5 2   C  1S         -0.03881  -0.14505   0.00988   0.00334  -0.02849
   6        1PX         0.07767  -0.38049   0.00323  -0.00372  -0.03702
   7        1PY        -0.20649   0.04612  -0.00664   0.00280   0.04958
   8        1PZ         0.56483  -0.01350  -0.39766  -0.26004  -0.00135
   9 3   O  1S         -0.01736   0.21419  -0.01322  -0.00080   0.01629
  10        1PX        -0.05283   0.05051  -0.00027  -0.00404  -0.05325
  11        1PY         0.00283  -0.21042   0.01651  -0.00305   0.10383
  12        1PZ        -0.01599  -0.02321  -0.19753  -0.00350   0.00347
  13 4   C  1S          0.03343  -0.13376   0.00553   0.00043  -0.14627
  14        1PX         0.02115   0.26344  -0.00739   0.00323  -0.41789
  15        1PY         0.14770   0.13374  -0.00704  -0.01296   0.27210
  16        1PZ        -0.52724   0.02458  -0.31723   0.20678   0.01298
  17 5   C  1S         -0.06785   0.07728  -0.01553   0.02101  -0.14827
  18        1PX        -0.08966  -0.41965  -0.01243   0.00542  -0.19471
  19        1PY        -0.24858  -0.23751   0.02908  -0.02833   0.23755
  20        1PZ        -0.12034   0.01791   0.64271  -0.63691  -0.02255
  21 6   H  1S         -0.22300  -0.26031   0.00186  -0.00233  -0.01976
  22 7   H  1S          0.02434   0.10433   0.00402  -0.00920   0.75246
  23 8   H  1S          0.01255   0.14933   0.00029  -0.00185   0.01812
  24 9   H  1S          0.21184  -0.26690  -0.00481  -0.00552  -0.05221
                          16        17        18        19        20
                           V         V         V         V         V
     Eigenvalues --     0.19032   0.24738   0.26242   0.27916   0.29376
   1 1   C  1S         -0.09767  -0.03780   0.14804  -0.00833  -0.02698
   2        1PX         0.14344  -0.10320   0.50940  -0.24315  -0.30769
   3        1PY         0.26344   0.30151   0.23596   0.49997  -0.09555
   4        1PZ        -0.00676  -0.01306  -0.00378  -0.02646  -0.00342
   5 2   C  1S         -0.15562   0.26043   0.26388   0.27135  -0.07827
   6        1PX         0.32529  -0.07789  -0.15632  -0.01846   0.12375
   7        1PY         0.39049   0.13242   0.06356   0.15526  -0.02744
   8        1PZ        -0.00358   0.00683  -0.00027   0.00476  -0.00667
   9 3   O  1S          0.01441   0.05092   0.00111  -0.00591  -0.03669
  10        1PX         0.01282  -0.01175   0.03806   0.02203   0.01673
  11        1PY         0.09586   0.00668  -0.01469  -0.01699  -0.09010
  12        1PZ        -0.00390  -0.00039   0.00768   0.00547   0.01963
  13 4   C  1S         -0.00611   0.43723  -0.16279  -0.24189  -0.15775
  14        1PX         0.04341   0.07843  -0.12385  -0.01021  -0.03197
  15        1PY         0.03299   0.27403  -0.07807  -0.16701  -0.19002
  16        1PZ         0.00460   0.00096   0.00106  -0.00220  -0.00851
  17 5   C  1S         -0.12296  -0.12402  -0.08135   0.14025   0.63076
  18        1PX         0.14321  -0.17166   0.58279  -0.00109   0.09177
  19        1PY         0.04835   0.45203   0.07097  -0.40443   0.16127
  20        1PZ        -0.00467  -0.02340  -0.00128   0.02252   0.01633
  21 6   H  1S         -0.05460  -0.29526  -0.30994   0.24300  -0.58884
  22 7   H  1S         -0.04143  -0.24469   0.13625   0.08951   0.06611
  23 8   H  1S          0.74962  -0.15051  -0.20225  -0.08433   0.08721
  24 9   H  1S         -0.02615  -0.33279   0.09119  -0.49676  -0.09866
                          21        22        23        24
                           V         V         V         V
     Eigenvalues --     0.29657   0.39538   0.47868   0.52716
   1 1   C  1S          0.68697  -0.01354   0.05798   0.02273
   2        1PX        -0.09515   0.01042  -0.03314  -0.02678
   3        1PY        -0.08149  -0.00108   0.02479  -0.03734
   4        1PZ         0.00101   0.02656   0.00197   0.00210
   5 2   C  1S         -0.31755   0.00068  -0.13917   0.14973
   6        1PX         0.08600  -0.00351  -0.22027   0.15459
   7        1PY        -0.27811   0.01965  -0.03614  -0.16729
   8        1PZ        -0.00701  -0.20159  -0.00165  -0.01268
   9 3   O  1S         -0.02975   0.00180   0.16259   0.02258
  10        1PX        -0.00688  -0.00107  -0.20293   0.88572
  11        1PY        -0.06514  -0.06976   0.87667   0.20004
  12        1PZ         0.01340   0.94549   0.06744   0.01573
  13 4   C  1S          0.05750   0.00226  -0.14013  -0.18888
  14        1PX        -0.08205   0.00278   0.22532   0.10977
  15        1PY         0.03900   0.02201  -0.01517   0.21550
  16        1PZ        -0.00476  -0.23910  -0.00169   0.01415
  17 5   C  1S         -0.20214  -0.01513   0.06675  -0.01923
  18        1PX         0.21700  -0.01264   0.03431  -0.03255
  19        1PY         0.05825  -0.00626   0.03518   0.03490
  20        1PZ        -0.00662   0.02775   0.00433  -0.00268
  21 6   H  1S          0.02006   0.01287  -0.04916  -0.00895
  22 7   H  1S          0.02311  -0.00154  -0.03908  -0.01833
  23 8   H  1S          0.09901   0.00322  -0.03935   0.01305
  24 9   H  1S         -0.45573   0.01015  -0.04458   0.00442
     Density Matrix:
                           1         2         3         4         5
   1 1   C  1S          0.95691
   2        1PX        -0.03944   1.06397
   3        1PY         0.12285  -0.08003   1.03039
   4        1PZ        -0.00302   0.00372   0.00425   1.03348
   5 2   C  1S          0.35088  -0.15458  -0.51851   0.01668   1.23024
   6        1PX         0.00251   0.11882   0.02968   0.00682   0.19863
   7        1PY         0.47381  -0.14442  -0.53429   0.01324  -0.20334
   8        1PZ         0.00474  -0.00278   0.00252   0.37205  -0.00735
   9 3   O  1S          0.02885  -0.01030  -0.05179   0.00114  -0.00463
  10        1PX        -0.02729  -0.00312   0.04107   0.00472  -0.34841
  11        1PY         0.01794   0.00610  -0.09135   0.00260   0.17799
  12        1PZ        -0.00249  -0.00319  -0.00096  -0.04534   0.01655
  13 4   C  1S         -0.01847   0.00203   0.03647  -0.00183   0.00859
  14        1PX         0.03979   0.01735  -0.00653  -0.00077  -0.00755
  15        1PY         0.03554   0.00634  -0.00265   0.01010  -0.05880
  16        1PZ         0.00223   0.00347  -0.01401  -0.27455  -0.00781
  17 5   C  1S          0.26516   0.48157   0.12573  -0.02045  -0.02072
  18        1PX        -0.49604  -0.61550  -0.18921  -0.00295  -0.01264
  19        1PY        -0.00947  -0.02255   0.10544   0.02962   0.03694
  20        1PZ         0.00468  -0.00132   0.02928   0.88335   0.00248
  21 6   H  1S          0.00565   0.02165   0.00358   0.00097   0.07693
  22 7   H  1S          0.07569   0.07514   0.00132   0.00492   0.05665
  23 8   H  1S          0.07022  -0.00655  -0.08936   0.00293   0.52693
  24 9   H  1S          0.54915  -0.55778   0.58007  -0.02661   0.06511
                           6         7         8         9        10
   6        1PX         1.53364
   7        1PY        -0.11355   1.38319
   8        1PZ         0.00609   0.00042   1.78279
   9 3   O  1S          0.07874  -0.02398   0.00002   1.93544
  10        1PX        -0.36764   0.26554   0.01931   0.02953   0.33781
  11        1PY         0.29850   0.01208  -0.02283  -0.31134   0.01401
  12        1PZ         0.02963  -0.01835   0.38040  -0.02373   0.00066
  13 4   C  1S          0.02726  -0.05081  -0.00962   0.00385   0.30171
  14        1PX         0.00133   0.01117   0.00289  -0.08093  -0.13693
  15        1PY        -0.02214   0.01794   0.00434  -0.05604  -0.33320
  16        1PZ        -0.00397   0.00516   0.01139  -0.00049  -0.02307
  17 5   C  1S         -0.05650   0.03143   0.00917   0.03634   0.02186
  18        1PX         0.01292  -0.00303   0.00444   0.02840  -0.00125
  19        1PY         0.01832  -0.00859  -0.01458  -0.05784  -0.00529
  20        1PZ        -0.00656   0.00435  -0.31997   0.00193  -0.00294
  21 6   H  1S          0.02361   0.05854  -0.00287   0.01017   0.02114
  22 7   H  1S          0.05849  -0.01493  -0.00049   0.02211   0.07577
  23 8   H  1S         -0.63611  -0.43421   0.01126   0.01707  -0.04237
  24 9   H  1S          0.05330  -0.00461   0.00248   0.01017  -0.02669
                          11        12        13        14        15
  11        1PY         0.30735
  12        1PZ         0.01308   0.20113
  13 4   C  1S          0.31336   0.03169   1.23775
  14        1PX        -0.38160  -0.03031  -0.13161   1.46259
  15        1PY        -0.16024  -0.03843  -0.25320   0.11256   1.46168
  16        1PZ        -0.04059   0.45379   0.00593   0.00684  -0.00159
  17 5   C  1S          0.03439   0.00069   0.33869  -0.12983   0.45792
  18        1PX         0.02830   0.00432   0.28548   0.02928   0.31494
  19        1PY        -0.11635   0.00032  -0.43047   0.12933  -0.46191
  20        1PZ         0.00217  -0.05803   0.03082  -0.01207   0.02301
  21 6   H  1S          0.00572   0.00672   0.06309  -0.04757  -0.01466
  22 7   H  1S         -0.04749  -0.00331   0.52159   0.73617  -0.19161
  23 8   H  1S         -0.06145   0.00235   0.04944  -0.04145  -0.01817
  24 9   H  1S          0.00673   0.00667   0.07520  -0.03872   0.05504
                          16        17        18        19        20
  16        1PZ         1.79915
  17 5   C  1S         -0.00033   0.95402
  18        1PX        -0.00079  -0.00445   1.02907
  19        1PY         0.00174   0.13719   0.09537   1.07120
  20        1PZ         0.27775  -0.01653  -0.00692   0.01036   1.18332
  21 6   H  1S          0.00068   0.54654   0.37087   0.71385  -0.01076
  22 7   H  1S         -0.01378   0.08010   0.04166  -0.09973   0.00517
  23 8   H  1S         -0.00279   0.07908  -0.07910  -0.02241   0.00040
  24 9   H  1S          0.00069  -0.00341  -0.01491   0.00099  -0.00555
                          21        22        23        24
  21 6   H  1S          0.80907
  22 7   H  1S         -0.00557   0.67758
  23 8   H  1S          0.00431   0.01267   0.69585
  24 9   H  1S         -0.00598   0.00835  -0.00224   0.82239
    Full Mulliken population analysis:
                           1         2         3         4         5
   1 1   C  1S          0.95691
   2        1PX         0.00000   1.06397
   3        1PY         0.00000   0.00000   1.03039
   4        1PZ         0.00000   0.00000   0.00000   1.03348
   5 2   C  1S          0.00000   0.00000   0.00000   0.00000   1.23024
   6        1PX         0.00000   0.00000   0.00000   0.00000   0.00000
   7        1PY         0.00000   0.00000   0.00000   0.00000   0.00000
   8        1PZ         0.00000   0.00000   0.00000   0.00000   0.00000
   9 3   O  1S          0.00000   0.00000   0.00000   0.00000   0.00000
  10        1PX         0.00000   0.00000   0.00000   0.00000   0.00000
  11        1PY         0.00000   0.00000   0.00000   0.00000   0.00000
  12        1PZ         0.00000   0.00000   0.00000   0.00000   0.00000
  13 4   C  1S          0.00000   0.00000   0.00000   0.00000   0.00000
  14        1PX         0.00000   0.00000   0.00000   0.00000   0.00000
  15        1PY         0.00000   0.00000   0.00000   0.00000   0.00000
  16        1PZ         0.00000   0.00000   0.00000   0.00000   0.00000
  17 5   C  1S          0.00000   0.00000   0.00000   0.00000   0.00000
  18        1PX         0.00000   0.00000   0.00000   0.00000   0.00000
  19        1PY         0.00000   0.00000   0.00000   0.00000   0.00000
  20        1PZ         0.00000   0.00000   0.00000   0.00000   0.00000
  21 6   H  1S          0.00000   0.00000   0.00000   0.00000   0.00000
  22 7   H  1S          0.00000   0.00000   0.00000   0.00000   0.00000
  23 8   H  1S          0.00000   0.00000   0.00000   0.00000   0.00000
  24 9   H  1S          0.00000   0.00000   0.00000   0.00000   0.00000
                           6         7         8         9        10
   6        1PX         1.53364
   7        1PY         0.00000   1.38319
   8        1PZ         0.00000   0.00000   1.78279
   9 3   O  1S          0.00000   0.00000   0.00000   1.93544
  10        1PX         0.00000   0.00000   0.00000   0.00000   0.33781
  11        1PY         0.00000   0.00000   0.00000   0.00000   0.00000
  12        1PZ         0.00000   0.00000   0.00000   0.00000   0.00000
  13 4   C  1S          0.00000   0.00000   0.00000   0.00000   0.00000
  14        1PX         0.00000   0.00000   0.00000   0.00000   0.00000
  15        1PY         0.00000   0.00000   0.00000   0.00000   0.00000
  16        1PZ         0.00000   0.00000   0.00000   0.00000   0.00000
  17 5   C  1S          0.00000   0.00000   0.00000   0.00000   0.00000
  18        1PX         0.00000   0.00000   0.00000   0.00000   0.00000
  19        1PY         0.00000   0.00000   0.00000   0.00000   0.00000
  20        1PZ         0.00000   0.00000   0.00000   0.00000   0.00000
  21 6   H  1S          0.00000   0.00000   0.00000   0.00000   0.00000
  22 7   H  1S          0.00000   0.00000   0.00000   0.00000   0.00000
  23 8   H  1S          0.00000   0.00000   0.00000   0.00000   0.00000
  24 9   H  1S          0.00000   0.00000   0.00000   0.00000   0.00000
                          11        12        13        14        15
  11        1PY         0.30735
  12        1PZ         0.00000   0.20113
  13 4   C  1S          0.00000   0.00000   1.23775
  14        1PX         0.00000   0.00000   0.00000   1.46259
  15        1PY         0.00000   0.00000   0.00000   0.00000   1.46168
  16        1PZ         0.00000   0.00000   0.00000   0.00000   0.00000
  17 5   C  1S          0.00000   0.00000   0.00000   0.00000   0.00000
  18        1PX         0.00000   0.00000   0.00000   0.00000   0.00000
  19        1PY         0.00000   0.00000   0.00000   0.00000   0.00000
  20        1PZ         0.00000   0.00000   0.00000   0.00000   0.00000
  21 6   H  1S          0.00000   0.00000   0.00000   0.00000   0.00000
  22 7   H  1S          0.00000   0.00000   0.00000   0.00000   0.00000
  23 8   H  1S          0.00000   0.00000   0.00000   0.00000   0.00000
  24 9   H  1S          0.00000   0.00000   0.00000   0.00000   0.00000
                          16        17        18        19        20
  16        1PZ         1.79915
  17 5   C  1S          0.00000   0.95402
  18        1PX         0.00000   0.00000   1.02907
  19        1PY         0.00000   0.00000   0.00000   1.07120
  20        1PZ         0.00000   0.00000   0.00000   0.00000   1.18332
  21 6   H  1S          0.00000   0.00000   0.00000   0.00000   0.00000
  22 7   H  1S          0.00000   0.00000   0.00000   0.00000   0.00000
  23 8   H  1S          0.00000   0.00000   0.00000   0.00000   0.00000
  24 9   H  1S          0.00000   0.00000   0.00000   0.00000   0.00000
                          21        22        23        24
  21 6   H  1S          0.80907
  22 7   H  1S          0.00000   0.67758
  23 8   H  1S          0.00000   0.00000   0.69585
  24 9   H  1S          0.00000   0.00000   0.00000   0.82239
     Gross orbital populations:
                           1
   1 1   C  1S          0.95691
   2        1PX         1.06397
   3        1PY         1.03039
   4        1PZ         1.03348
   5 2   C  1S          1.23024
   6        1PX         1.53364
   7        1PY         1.38319
   8        1PZ         1.78279
   9 3   O  1S          1.93544
  10        1PX         0.33781
  11        1PY         0.30735
  12        1PZ         0.20113
  13 4   C  1S          1.23775
  14        1PX         1.46259
  15        1PY         1.46168
  16        1PZ         1.79915
  17 5   C  1S          0.95402
  18        1PX         1.02907
  19        1PY         1.07120
  20        1PZ         1.18332
  21 6   H  1S          0.80907
  22 7   H  1S          0.67758
  23 8   H  1S          0.69585
  24 9   H  1S          0.82239
          Condensed to atoms (all electrons):
               1          2          3          4          5          6
     1  C    4.084748   0.000000   0.000000   0.000000   0.000000   0.000000
     2  C    0.000000   5.929864   0.000000   0.000000   0.000000   0.000000
     3  O    0.000000   0.000000   2.781728   0.000000   0.000000   0.000000
     4  C    0.000000   0.000000   0.000000   5.961172   0.000000   0.000000
     5  C    0.000000   0.000000   0.000000   0.000000   4.237600   0.000000
     6  H    0.000000   0.000000   0.000000   0.000000   0.000000   0.809072
     7  H    0.000000   0.000000   0.000000   0.000000   0.000000   0.000000
     8  H    0.000000   0.000000   0.000000   0.000000   0.000000   0.000000
     9  H    0.000000   0.000000   0.000000   0.000000   0.000000   0.000000
               7          8          9
     1  C    0.000000   0.000000   0.000000
     2  C    0.000000   0.000000   0.000000
     3  O    0.000000   0.000000   0.000000
     4  C    0.000000   0.000000   0.000000
     5  C    0.000000   0.000000   0.000000
     6  H    0.000000   0.000000   0.000000
     7  H    0.677579   0.000000   0.000000
     8  H    0.000000   0.695851   0.000000
     9  H    0.000000   0.000000   0.822385
 Mulliken charges:
               1
     1  C   -0.084748
     2  C   -1.929864
     3  O    3.218272
     4  C   -1.961172
     5  C   -0.237600
     6  H    0.190928
     7  H    0.322421
     8  H    0.304149
     9  H    0.177615
 Sum of Mulliken charges =   0.00000
 Mulliken charges with hydrogens summed into heavy atoms:
               1
     1  C    0.092867
     2  C   -1.625715
     3  O    3.218272
     4  C   -1.638751
     5  C   -0.046672
 Charge=              0.0000 electrons
 Dipole moment (field-independent basis, Debye):
    X=              1.8149    Y=             -9.6029    Z=             -0.8837  Tot=              9.8128
 N-N= 1.049087955253D+02 E-N=-1.705534160907D+02  KE=-1.485317661775D+01
 Orbital energies and kinetic energies (alpha):
                                 1                 2
   1         O                -1.755267         -1.264372
   2         O                -1.121082         -0.975841
   3         O                -0.953218         -0.858649
   4         O                -0.807018         -0.601691
   5         O                -0.757094         -0.692315
   6         O                -0.668330         -0.549860
   7         O                -0.653427         -0.531658
   8         O                -0.554649         -0.394295
   9         O                -0.490849         -0.267173
  10         O                -0.450461         -0.399959
  11         O                -0.444670         -0.359041
  12         O                -0.395585         -0.273091
  13         O                -0.279743         -0.258644
  14         V                 0.102567         -0.173807
  15         V                 0.171357         -0.197457
  16         V                 0.190323         -0.199507
  17         V                 0.247378         -0.142464
  18         V                 0.262420         -0.113160
  19         V                 0.279164         -0.130486
  20         V                 0.293757         -0.171124
  21         V                 0.296575         -0.151542
  22         V                 0.395380          0.495195
  23         V                 0.478680          0.525089
  24         V                 0.527160          0.590042
 Total kinetic energy from orbitals=-1.485317661775D+01
 Leave Link  601 at Tue Dec 15 17:06:02 2015, MaxMem=    33554432 cpu:         0.0
 (Enter /home/Applications/g09/g09/l701.exe)
 Compute integral first derivatives.
 ... and contract with generalized density number  6.
 Leave Link  701 at Tue Dec 15 17:06:02 2015, MaxMem=    33554432 cpu:         0.0
 (Enter /home/Applications/g09/g09/l702.exe)
 L702 exits ... SP integral derivatives will be done elsewhere.
 Leave Link  702 at Tue Dec 15 17:06:02 2015, MaxMem=    33554432 cpu:         0.0
 (Enter /home/Applications/g09/g09/l703.exe)
 Compute integral first derivatives, UseDBF=F ICtDFT=           0.
 Integral derivatives from FoFJK, PRISM(SPDF).
 Calling FoFJK, ICntrl=  10005127 FMM=F ISym2X=0 I1Cent= 0 IOpClX= 0 NMat=1 NMatS=1 NMatT=0.
 FoFJK:  IHMeth= 8 ICntrl=10005127 DoSepK=F KAlg= 0 I1Cent=   0 FoldK=F
 IRaf=         0 NMat=   1 IRICut=       1 DoRegI=T DoRafI=F ISym2E= 0.
 FoFCou: FMM=F IPFlag=           0 FMFlag=      100000 FMFlg1=         800
         NFxFlg=           0 DoJE=F BraDBF=F KetDBF=F FulRan=T
         wScrn=  0.000000 ICntrl=10005127 IOpCl=  0 I1Cent=           0 NGrid=           0
         NMat0=    1 NMatS0=      1 NMatT0=    0 NMatD0=    1 NMtDS0=    0 NMtDT0=    0
 Symmetry not used in FoFCou.
 Leave Link  703 at Tue Dec 15 17:06:02 2015, MaxMem=    33554432 cpu:         0.0
 (Enter /home/Applications/g09/g09/l716.exe)
 Dipole        = 7.85536237D-01-4.13811069D+00-3.38851453D-01
 ***** Axes restored to original set *****
 -------------------------------------------------------------------
 Center     Atomic                   Forces (Hartrees/Bohr)
 Number     Number              X              Y              Z
 -------------------------------------------------------------------
      1        6           0.231336843    0.005288758    0.001604020
      2        6          -0.304093897   -0.117142275    0.003555813
      3        8          -0.046773888   -0.115625065   -0.002116994
      4        6          -0.224626186    0.193220544   -0.003940653
      5        6           0.244770777   -0.002173097    0.000296592
      6        1           0.062249244    0.044274222    0.002200392
      7        1          -0.023076550    0.113329113   -0.000603972
      8        1          -0.013388449   -0.071523344   -0.002590310
      9        1           0.073602106   -0.049648856    0.001595111
 -------------------------------------------------------------------
 Cartesian Forces:  Max     0.304093897 RMS     0.114737012
 Z-matrix is all fixed cartesians, so copy forces.
 Force constants in Cartesian coordinates: 
                1             2             3             4             5 
      1  0.103322D+01
      2 -0.165205D-01  0.743775D+00
      3  0.159156D-01 -0.489209D-03  0.212737D+00
      4 -0.613139D+00 -0.127811D+00 -0.535041D-02  0.101528D+01
      5 -0.104401D+00 -0.229757D+00 -0.268753D-02  0.587586D-01  0.893092D+00
      6 -0.165312D-02 -0.230490D-02 -0.120771D+00 -0.717356D-02  0.204101D-01
      7 -0.852053D-02  0.310486D-01  0.207004D-02 -0.263735D+00  0.149493D+00
      8 -0.573360D-02  0.209631D-01  0.460319D-03  0.197071D+00 -0.374619D+00
      9  0.209040D-03 -0.390041D-03  0.534037D-02  0.141660D-01 -0.139099D-01
     10  0.901781D-02  0.655633D-04  0.248422D-03  0.266140D-01  0.181045D-01
     11  0.343395D-01  0.189317D-03  0.255276D-02 -0.192989D-01 -0.131352D-01
     12  0.770664D-03  0.142584D-03 -0.172029D-03 -0.197166D-02 -0.142471D-02
     13 -0.155159D+00  0.131506D-01 -0.213500D-02  0.950332D-02 -0.346673D-01
     14 -0.100028D-01 -0.337864D+00 -0.479957D-02  0.222586D-04 -0.218054D-03
     15 -0.206935D-02 -0.435681D-02 -0.689984D-01 -0.419370D-03 -0.374219D-03
     16  0.160666D-01  0.102457D-03 -0.913990D-04  0.000000D+00  0.000000D+00
     17 -0.230347D-01 -0.145570D-03  0.120815D-04  0.000000D+00  0.000000D+00
     18 -0.699044D-03 -0.145867D-03  0.127189D-01 -0.113965D-04 -0.262323D-04
     19  0.130380D-04  0.444382D-05 -0.392166D-03  0.696011D-04  0.547310D-05
     20  0.207639D-04  0.707708D-05 -0.624550D-03 -0.562570D-05  0.000000D+00
     21 -0.250144D-03 -0.852581D-04  0.752401D-02  0.664209D-03  0.522302D-04
     22  0.734785D-02 -0.268252D-01 -0.226365D-03 -0.169566D+00 -0.105710D+00
     23 -0.397357D-02  0.145199D-01 -0.341778D-03 -0.101876D+00 -0.300417D+00
     24 -0.424885D-03  0.493257D-03  0.366891D-01  0.425099D-03 -0.228208D-02
     25 -0.288852D+00  0.126785D+00 -0.100388D-01 -0.503039D-02  0.184162D-01
     26  0.129306D+00 -0.211687D+00  0.591748D-02 -0.686065D-02  0.250540D-01
     27 -0.117988D-01  0.713625D-02 -0.850679D-01 -0.328913D-03  0.242301D-03
                6             7             8             9            10 
      6  0.222300D+00
      7  0.136905D-01  0.608779D+00
      8 -0.167716D-01  0.114929D+00  0.883159D+00
      9 -0.548501D-01 -0.413869D-01 -0.142241D-01  0.756449D-01
     10 -0.313130D-02 -0.374139D+00 -0.309515D+00  0.314471D-01  0.109916D+01
     11  0.245726D-02 -0.262816D+00 -0.536277D+00  0.307541D-01  0.586488D-01
     12  0.536309D-03  0.263445D-01  0.305156D-01 -0.602779D-01 -0.190986D-01
     13 -0.487231D-03 -0.865869D-02  0.618171D-02 -0.764367D-03 -0.582958D+00
     14 -0.467224D-03 -0.325014D-01  0.233164D-01 -0.124426D-02  0.115919D+00
     15 -0.373056D-02  0.326628D-02 -0.115293D-02  0.983165D-02 -0.195763D-01
     16  0.288350D-05  0.224583D-05 -0.158007D-04 -0.211715D-03 -0.456984D-02
     17 -0.261422D-04 -0.233624D-05  0.164369D-04  0.220238D-03  0.657026D-02
     18  0.235222D-02 -0.945433D-04  0.665168D-03  0.891261D-02 -0.177388D-02
     19  0.829879D-03  0.243350D-01 -0.177303D-01 -0.306671D-02 -0.173143D+00
     20 -0.670773D-04  0.117095D-01 -0.854087D-02 -0.161630D-02  0.110218D+00
     21  0.791960D-02 -0.256697D-02  0.203204D-02  0.273829D-02  0.115505D-01
     22 -0.446620D-03  0.219383D-01  0.148046D-01 -0.233319D-03  0.127139D-04
     23 -0.318418D-02 -0.118626D-01 -0.800257D-02  0.732869D-04 -0.121296D-04
     24 -0.869965D-01 -0.136423D-02 -0.112933D-02  0.419213D-02  0.414403D-03
     25 -0.163143D-02  0.000000D+00  0.742707D-05 -0.159152D-03  0.453520D-05
     26 -0.462499D-04  0.164432D-05 -0.157223D-04  0.336907D-03  0.000000D+00
     27  0.332395D-01  0.413298D-04 -0.395178D-03  0.846810D-02 -0.802688D-04
               11            12            13            14            15 
     11  0.109879D+01
     12 -0.193765D-01  0.228580D+00
     13  0.915709D-01 -0.152365D-01  0.998167D+00
     14 -0.223720D+00  0.423329D-02  0.173997D-01  0.722941D+00
     15  0.701604D-02 -0.117939D+00  0.178752D-01 -0.295069D-03  0.208119D+00
     16 -0.173850D-01 -0.279550D-03 -0.285037D+00 -0.119149D+00 -0.116435D-02
     17  0.249623D-01  0.116071D-03 -0.120021D+00 -0.197859D+00 -0.101824D-02
     18 -0.323741D-02  0.304447D-01  0.258410D-03  0.623996D-03 -0.814118D-01
     19  0.114938D+00  0.945597D-02  0.737539D-02  0.282101D-01  0.177363D-02
     20 -0.350806D+00 -0.140340D-01  0.352817D-02  0.132739D-01 -0.107463D-02
     21 -0.201715D-01 -0.885272D-01 -0.422198D-03  0.217903D-02  0.329139D-01
     22  0.000000D+00  0.151593D-03  0.000000D+00  0.000000D+00 -0.426148D-04
     23  0.000000D+00 -0.144626D-03  0.000000D+00  0.000000D+00 -0.805492D-04
     24  0.325867D-04  0.494108D-02 -0.396684D-04 -0.913083D-04  0.818750D-02
     25  0.154576D-05 -0.136413D-03  0.167664D-01  0.101890D-03  0.356908D-03
     26  0.000000D+00 -0.277129D-04  0.228572D-01  0.129452D-03  0.133641D-02
     27 -0.273585D-04  0.241438D-02  0.951320D-03 -0.138877D-03  0.130272D-01
               16            17            18            19            20 
     16  0.273554D+00
     17  0.136473D+00  0.172998D+00
     18  0.143459D-02  0.983646D-03  0.436862D-01
     19 -0.163570D-04  0.170156D-04  0.688587D-03  0.141367D+00
     20 -0.260497D-04  0.270984D-04  0.109662D-02 -0.125445D+00  0.346039D+00
     21  0.313823D-03 -0.326457D-03 -0.132111D-01 -0.928919D-02  0.163199D-01
     22  0.000000D+00  0.000000D+00  0.000000D+00  0.000000D+00  0.000000D+00
     23  0.000000D+00  0.000000D+00  0.000000D+00  0.000000D+00  0.000000D+00
     24  0.000000D+00  0.000000D+00  0.000000D+00  0.000000D+00  0.000000D+00
     25  0.000000D+00 -0.219260D-05  0.197286D-03  0.000000D+00  0.000000D+00
     26  0.000000D+00  0.000000D+00  0.400796D-04  0.000000D+00  0.000000D+00
     27 -0.428043D-05  0.388070D-04 -0.349177D-02  0.000000D+00  0.000000D+00
               21            22            23            24            25 
     21  0.506425D-01
     22  0.000000D+00  0.140269D+00
     23  0.000000D+00  0.117726D+00  0.293894D+00
     24  0.000000D+00  0.723803D-03  0.353888D-02  0.471125D-01
     25  0.000000D+00 -0.138180D-05 -0.261184D-05  0.265483D-03  0.277113D+00
     26  0.000000D+00  0.292513D-05  0.552900D-05 -0.562001D-03 -0.145308D+00
     27  0.000000D+00  0.735227D-04  0.138970D-03 -0.141258D-01  0.111461D-01
               26            27 
     26  0.186514D+00
     27 -0.699491D-02  0.455362D-01
 Leave Link  716 at Tue Dec 15 17:06:02 2015, MaxMem=    33554432 cpu:         0.0
 (Enter /home/Applications/g09/g09/l103.exe)

 GradGradGradGradGradGradGradGradGradGradGradGradGradGradGradGradGradGrad
 Berny optimization.
 Search for a local minimum.
 Step number   1 out of a maximum of    2
 All quantities printed in internal units (Hartrees-Bohrs-Radians)
 Second derivative matrix not updated -- first step.
 ITU=  0
     Eigenvalues ---    0.01841   0.03761   0.07106   0.07755   0.08180
     Eigenvalues ---    0.10200   0.13182   0.14667   0.16778   0.26214
     Eigenvalues ---    0.27962   0.35994   0.41316   0.45862   0.65887
     Eigenvalues ---    0.87637   1.09637   1.32342   1.64363   1.75456
     Eigenvalues ---    1.93689
 Quadratic step=1.496D+00 exceeds max=3.000D-01 adjusted using Lamda=-1.098D+00.
 Angle between NR and scaled steps=  28.80 degrees.
 Angle between quadratic step and forces=  20.46 degrees.
 Linear search not attempted -- first point.
 TrRot= -0.006026 -0.003265 -0.000162  0.000275  0.000055  0.000275
 Variable       Old X    -DE/DX   Delta X   Delta X   Delta X     New X
                                 (Linear)    (Quad)   (Total)
    X1        1.73222   0.23134   0.00000   0.09393   0.08869   1.82091
    Y1       -1.42193   0.00529   0.00000  -0.01611  -0.01837  -1.44030
    Z1       -0.04291   0.00160   0.00000   0.00094   0.00067  -0.04224
    X2       -0.65488  -0.30409   0.00000  -0.11699  -0.12184  -0.77672
    Y2       -2.07563  -0.11714   0.00000  -0.06374  -0.06743  -2.14306
    Z2       -0.06177   0.00356   0.00000   0.00243   0.00231  -0.05946
    X3       -2.10561  -0.04677   0.00000  -0.03562  -0.04166  -2.14727
    Y3        0.07583  -0.11563   0.00000  -0.04231  -0.04675   0.02908
    Z3        0.04572  -0.00212   0.00000  -0.00254  -0.00258   0.04313
    X4       -0.70254  -0.22463   0.00000  -0.08982  -0.09702  -0.79955
    Y4        2.02414   0.19322   0.00000   0.09132   0.08762   2.11175
    Z4       -0.08481  -0.00394   0.00000   0.00084   0.00072  -0.08408
    X5        1.71448   0.24477   0.00000   0.11033   0.10353   1.81800
    Y5        1.38762  -0.00217   0.00000   0.02244   0.02018   1.40780
    Z5       -0.01166   0.00030   0.00000  -0.00218  -0.00244  -0.01411
    X6        3.37746   0.06225   0.00000   0.06961   0.06216   3.43962
    Y6        2.54722   0.04427   0.00000   0.04221   0.04084   2.58806
    Z6       -0.00081   0.00220   0.00000   0.00199   0.00164   0.00082
    X7       -1.54824  -0.02308   0.00000  -0.02528  -0.03345  -1.58169
    Y7        3.80444   0.11333   0.00000   0.10683   0.10270   3.90714
    Z7        0.01889  -0.00060   0.00000   0.00057   0.00049   0.01938
    X8       -1.62834  -0.01339   0.00000  -0.02340  -0.02726  -1.65560
    Y8       -3.87330  -0.07152   0.00000  -0.06978  -0.07395  -3.94725
    Z8       -0.08452  -0.00259   0.00000  -0.00199  -0.00207  -0.08658
    X9        3.34545   0.07360   0.00000   0.07142   0.06685   3.41230
    Y9       -2.60850  -0.04965   0.00000  -0.04345  -0.04483  -2.65334
    Z9        0.03462   0.00160   0.00000   0.00161   0.00126   0.03588
         Item               Value     Threshold  Converged?
 Maximum Force            0.304094     0.000450     NO 
 RMS     Force            0.114737     0.000300     NO 
 Maximum Displacement     0.121839     0.001800     NO 
 RMS     Displacement     0.057621     0.001200     NO 
 Predicted change in Energy=-1.332855D-01
 GradGradGradGradGradGradGradGradGradGradGradGradGradGradGradGradGradGrad

 Leave Link  103 at Tue Dec 15 17:06:02 2015, MaxMem=    33554432 cpu:         0.0
 (Enter /home/Applications/g09/g09/l9999.exe)
 1\1\GINC-DUSTIN-DESKTOP\Force\RAM1-FC\STO-3G\C4H4O1\DUSTIN\15-Dec-2015
 \0\\#P AM1(Input,print) CIS(Singlets,NStates=15) pop(full) force\\AM1-
 Reparam Input\\0,1\C,0.916649,-0.752452,-0.022707\C,-0.346548,-1.09837
 8,-0.032685\O,-1.11424,0.040126,0.024192\C,-0.371766,1.071128,-0.04487
 8\C,0.907262,0.734299,-0.006172\H,1.787277,1.347929,-0.000431\H,-0.819
 295,2.013223,0.009997\H,-0.86168,-2.049664,-0.044725\H,1.770334,-1.380
 361,0.018319\\Version=ES64L-G09RevD.01\State=1-A\HF=2.8741067\RMSD=8.7
 33e-09\RMSF=1.147e-01\Dipole=-4.2061371,0.1848423,0.3606817\PG=C01 [X(
 C4H4O1)]\\@


 Fatherhood is pretending the present you love most is soap-on-a-rope.
 -- Bill Cosby
 Job cpu time:       0 days  0 hours  0 minutes  0.7 seconds.
 File lengths (MBytes):  RWF=      7 Int=      0 D2E=      0 Chk=      2 Scr=      1
 Normal termination of Gaussian 09 at Tue Dec 15 17:06:02 2015.
