 Entering Gaussian System, Link 0=g09
 Input=FuranDFT_3.com
 Output=FuranDFT_3.log
 Initial command:
 /home/Applications/g09/g09/l1.exe "/home/Applications/g09/scratch/Gau-15305.inp" -scrdir="/home/Applications/g09/scratch/"
 Entering Link 1 = /home/Applications/g09/g09/l1.exe PID=     15309.
  
 Copyright (c) 1988,1990,1992,1993,1995,1998,2003,2009,2013,
            Gaussian, Inc.  All Rights Reserved.
  
 This is part of the Gaussian(R) 09 program.  It is based on
 the Gaussian(R) 03 system (copyright 2003, Gaussian, Inc.),
 the Gaussian(R) 98 system (copyright 1998, Gaussian, Inc.),
 the Gaussian(R) 94 system (copyright 1995, Gaussian, Inc.),
 the Gaussian 92(TM) system (copyright 1992, Gaussian, Inc.),
 the Gaussian 90(TM) system (copyright 1990, Gaussian, Inc.),
 the Gaussian 88(TM) system (copyright 1988, Gaussian, Inc.),
 the Gaussian 86(TM) system (copyright 1986, Carnegie Mellon
 University), and the Gaussian 82(TM) system (copyright 1983,
 Carnegie Mellon University). Gaussian is a federally registered
 trademark of Gaussian, Inc.
  
 This software contains proprietary and confidential information,
 including trade secrets, belonging to Gaussian, Inc.
  
 This software is provided under written license and may be
 used, copied, transmitted, or stored only in accord with that
 written license.
  
 The following legend is applicable only to US Government
 contracts under FAR:
  
                    RESTRICTED RIGHTS LEGEND
  
 Use, reproduction and disclosure by the US Government is
 subject to restrictions as set forth in subparagraphs (a)
 and (c) of the Commercial Computer Software - Restricted
 Rights clause in FAR 52.227-19.
  
 Gaussian, Inc.
 340 Quinnipiac St., Bldg. 40, Wallingford CT 06492
  
  
 ---------------------------------------------------------------
 Warning -- This program may not be used in any manner that
 competes with the business of Gaussian, Inc. or will provide
 assistance to any competitor of Gaussian, Inc.  The licensee
 of this program is prohibited from giving any competitor of
 Gaussian, Inc. access to this program.  By using this program,
 the user acknowledges that Gaussian, Inc. is engaged in the
 business of creating and licensing software in the field of
 computational chemistry and represents and warrants to the
 licensee that it is not a competitor of Gaussian, Inc. and that
 it will not use this program in any manner prohibited above.
 ---------------------------------------------------------------
  

 Cite this work as:
 Gaussian 09, Revision D.01,
 M. J. Frisch, G. W. Trucks, H. B. Schlegel, G. E. Scuseria, 
 M. A. Robb, J. R. Cheeseman, G. Scalmani, V. Barone, B. Mennucci, 
 G. A. Petersson, H. Nakatsuji, M. Caricato, X. Li, H. P. Hratchian, 
 A. F. Izmaylov, J. Bloino, G. Zheng, J. L. Sonnenberg, M. Hada, 
 M. Ehara, K. Toyota, R. Fukuda, J. Hasegawa, M. Ishida, T. Nakajima, 
 Y. Honda, O. Kitao, H. Nakai, T. Vreven, J. A. Montgomery, Jr., 
 J. E. Peralta, F. Ogliaro, M. Bearpark, J. J. Heyd, E. Brothers, 
 K. N. Kudin, V. N. Staroverov, T. Keith, R. Kobayashi, J. Normand, 
 K. Raghavachari, A. Rendell, J. C. Burant, S. S. Iyengar, J. Tomasi, 
 M. Cossi, N. Rega, J. M. Millam, M. Klene, J. E. Knox, J. B. Cross, 
 V. Bakken, C. Adamo, J. Jaramillo, R. Gomperts, R. E. Stratmann, 
 O. Yazyev, A. J. Austin, R. Cammi, C. Pomelli, J. W. Ochterski, 
 R. L. Martin, K. Morokuma, V. G. Zakrzewski, G. A. Voth, 
 P. Salvador, J. J. Dannenberg, S. Dapprich, A. D. Daniels, 
 O. Farkas, J. B. Foresman, J. V. Ortiz, J. Cioslowski, 
 and D. J. Fox, Gaussian, Inc., Wallingford CT, 2013.
 
 ******************************************
 Gaussian 09:  ES64L-G09RevD.01 24-Apr-2013
                11-Dec-2015 
 ******************************************
 -------------------------------------------------------
 #P B3LYP/3-21G CIS(Singlets,NStates=15) pop(full) force
 -------------------------------------------------------
 1/10=7,30=1,38=1/1,3;
 2/12=2,17=6,18=5,40=1/2;
 3/5=5,11=9,16=1,25=1,30=1,71=1,74=-5/1,2,8,3;
 4//1;
 5/5=2,38=5/2;
 8/6=1,10=1,108=15/1;
 9/15=2,41=15,42=1,48=1/14;
 10/5=4/2;
 6/7=3,18=1/1;
 7/12=6,13=5,29=1/1,2,3,16;
 1/10=7,30=1/3;
 99//99;
 Leave Link    1 at Fri Dec 11 13:18:13 2015, MaxMem=           0 cpu:         0.0
 (Enter /home/Applications/g09/g09/l101.exe)
 --------
 FuranDFT
 --------
 Symbolic Z-matrix:
 Charge =  0 Multiplicity = 1
 6                     0.91885  -0.76077  -0.0085 
 6                    -0.30016  -1.12821   0.00453 
 8                    -1.15751   0.03562  -0.03918 
 6                    -0.32227   1.12949   0.02124 
 6                     0.9833    0.68709   0.02449 
 1                     1.79399   1.35673  -0.02893 
 1                    -0.8345    2.02651   0.00135 
 1                    -0.87384  -2.03263   0.00724 
 1                     1.769    -1.32664   0.03068 
 
 NAtoms=      9 NQM=        9 NQMF=       0 NMMI=      0 NMMIF=      0
                NMic=       0 NMicF=      0.
                    Isotopes and Nuclear Properties:
 (Nuclear quadrupole moments (NQMom) in fm**2, nuclear magnetic moments (NMagM)
  in nuclear magnetons)

  Atom         1           2           3           4           5           6           7           8           9
 IAtWgt=          12          12          16          12          12           1           1           1           1
 AtmWgt=  12.0000000  12.0000000  15.9949146  12.0000000  12.0000000   1.0078250   1.0078250   1.0078250   1.0078250
 NucSpn=           0           0           0           0           0           1           1           1           1
 AtZEff=   0.0000000   0.0000000   0.0000000   0.0000000   0.0000000   0.0000000   0.0000000   0.0000000   0.0000000
 NQMom=    0.0000000   0.0000000   0.0000000   0.0000000   0.0000000   0.0000000   0.0000000   0.0000000   0.0000000
 NMagM=    0.0000000   0.0000000   0.0000000   0.0000000   0.0000000   2.7928460   2.7928460   2.7928460   2.7928460
 AtZNuc=   6.0000000   6.0000000   8.0000000   6.0000000   6.0000000   1.0000000   1.0000000   1.0000000   1.0000000
 Leave Link  101 at Fri Dec 11 13:18:13 2015, MaxMem=    33554432 cpu:         0.0
 (Enter /home/Applications/g09/g09/l103.exe)

 GradGradGradGradGradGradGradGradGradGradGradGradGradGradGradGradGradGrad
 Berny optimization.
 Initialization pass.
 Trust Radius=3.00D-01 FncErr=1.00D-07 GrdErr=1.00D-07
 Number of steps in this run=      2 maximum allowed number of steps=      2.
 GradGradGradGradGradGradGradGradGradGradGradGradGradGradGradGradGradGrad

 Leave Link  103 at Fri Dec 11 13:18:13 2015, MaxMem=    33554432 cpu:         0.0
 (Enter /home/Applications/g09/g09/l202.exe)
                          Input orientation:                          
 ---------------------------------------------------------------------
 Center     Atomic      Atomic             Coordinates (Angstroms)
 Number     Number       Type             X           Y           Z
 ---------------------------------------------------------------------
      1          6           0        0.918849   -0.760767   -0.008496
      2          6           0       -0.300155   -1.128205    0.004534
      3          8           0       -1.157509    0.035618   -0.039177
      4          6           0       -0.322273    1.129487    0.021236
      5          6           0        0.983295    0.687086    0.024486
      6          1           0        1.793990    1.356733   -0.028934
      7          1           0       -0.834503    2.026513    0.001354
      8          1           0       -0.873835   -2.032627    0.007242
      9          1           0        1.769000   -1.326640    0.030682
 ---------------------------------------------------------------------
                    Distance matrix (angstroms):
                    1          2          3          4          5
     1  C    0.000000
     2  C    1.273244   0.000000
     3  O    2.224058   1.446185   0.000000
     4  C    2.261488   2.257862   1.377613   0.000000
     5  C    1.449662   2.223269   2.238639   1.378491   0.000000
     6  H    2.291309   3.249843   3.233697   2.129020   1.052857
     7  H    3.292912   3.199654   2.017335   1.033165   2.258094
     8  H    2.198088   1.071025   2.088124   3.209888   3.293337
     9  H    1.022010   2.078813   3.228790   3.225844   2.161588
                    6          7          8          9
     6  H    0.000000
     7  H    2.712655   0.000000
     8  H    4.313509   4.059335   0.000000
     9  H    2.684151   4.245318   2.735607   0.000000
 Stoichiometry    C4H4O
 Framework group  C1[X(C4H4O)]
 Deg. of freedom    21
 Full point group                 C1      NOp   1
 Largest Abelian subgroup         C1      NOp   1
 Largest concise Abelian subgroup C1      NOp   1
                         Standard orientation:                         
 ---------------------------------------------------------------------
 Center     Atomic      Atomic             Coordinates (Angstroms)
 Number     Number       Type             X           Y           Z
 ---------------------------------------------------------------------
      1          6           0       -0.885270    0.787392    0.015701
      2          6           0       -1.065905   -0.472591   -0.015346
      3          8           0        0.213108   -1.146504    0.022311
      4          6           0        1.169657   -0.156108   -0.021829
      5          6           0        0.536669    1.068398   -0.009674
      6          1           0        1.077165    1.969415    0.057703
      7          1           0        2.133243   -0.528447   -0.004625
      8          1           0       -1.874166   -1.175156   -0.029939
      9          1           0       -1.572016    1.543671   -0.014736
 ---------------------------------------------------------------------
 Rotational constants (GHZ):      9.5581294      9.0780585      4.6580549
 Leave Link  202 at Fri Dec 11 13:18:13 2015, MaxMem=    33554432 cpu:         0.0
 (Enter /home/Applications/g09/g09/l301.exe)
 Standard basis: 3-21G (6D, 7F)
 Ernie: Thresh=  0.10000D-02 Tol=  0.10000D-05 Strict=F.
 There are    53 symmetry adapted cartesian basis functions of A   symmetry.
 There are    53 symmetry adapted basis functions of A   symmetry.
    53 basis functions,    87 primitive gaussians,    53 cartesian basis functions
    18 alpha electrons       18 beta electrons
       nuclear repulsion energy       160.5862830028 Hartrees.
 IExCor=  402 DFT=T Ex+Corr=B3LYP ExCW=0 ScaHFX=  0.200000
 ScaDFX=  0.800000  0.720000  1.000000  0.810000 ScalE2=  1.000000  1.000000
 IRadAn=      0 IRanWt=     -1 IRanGd=            0 ICorTp=0 IEmpDi=  4
 NAtoms=    9 NActive=    9 NUniq=    9 SFac= 1.00D+00 NAtFMM=   60 NAOKFM=F Big=F
 Integral buffers will be    131072 words long.
 Regular integral format.
 Two-electron integral symmetry is turned on.
 Leave Link  301 at Fri Dec 11 13:18:13 2015, MaxMem=    33554432 cpu:         0.0
 (Enter /home/Applications/g09/g09/l302.exe)
 NPDir=0 NMtPBC=     1 NCelOv=     1 NCel=       1 NClECP=     1 NCelD=      1
         NCelK=      1 NCelE2=     1 NClLst=     1 CellRange=     0.0.
 One-electron integrals computed using PRISM.
 NBasis=    53 RedAO= T EigKep=  2.88D-03  NBF=    53
 NBsUse=    53 1.00D-06 EigRej= -1.00D+00 NBFU=    53
 Precomputing XC quadrature grid using
 IXCGrd= 4 IRadAn=           0 IRanWt=          -1 IRanGd=           0 AccXCQ= 0.00D+00.
 Generated NRdTot=       0 NPtTot=           0 NUsed=           0 NTot=          32
 NSgBfM=    53    53    53    53    53 MxSgAt=     9 MxSgA2=     9.
 Leave Link  302 at Fri Dec 11 13:18:13 2015, MaxMem=    33554432 cpu:         0.1
 (Enter /home/Applications/g09/g09/l308.exe)
 Leave Link  308 at Fri Dec 11 13:18:13 2015, MaxMem=    33554432 cpu:         0.0
 (Enter /home/Applications/g09/g09/l303.exe)
 DipDrv:  MaxL=1.
 Leave Link  303 at Fri Dec 11 13:18:13 2015, MaxMem=    33554432 cpu:         0.0
 (Enter /home/Applications/g09/g09/l401.exe)
 ExpMin= 1.83D-01 ExpMax= 3.22D+02 ExpMxC= 3.22D+02 IAcc=1 IRadAn=         1 AccDes= 0.00D+00
 Harris functional with IExCor=  402 and IRadAn=       1 diagonalized for initial guess.
 HarFok:  IExCor=  402 AccDes= 0.00D+00 IRadAn=         1 IDoV= 1 UseB2=F ITyADJ=14
 ICtDFT=  3500011 ScaDFX=  1.000000  1.000000  1.000000  1.000000
 FoFCou: FMM=F IPFlag=           0 FMFlag=      100000 FMFlg1=           0
         NFxFlg=           0 DoJE=T BraDBF=F KetDBF=T FulRan=T
         wScrn=  0.000000 ICntrl=     500 IOpCl=  0 I1Cent=   200000004 NGrid=           0
         NMat0=    1 NMatS0=      1 NMatT0=    0 NMatD0=    1 NMtDS0=    0 NMtDT0=    0
 Petite list used in FoFCou.
 Harris En= -228.736764147628    
 JPrj=0 DoOrth=F DoCkMO=F.
 Leave Link  401 at Fri Dec 11 13:18:14 2015, MaxMem=    33554432 cpu:         0.1
 (Enter /home/Applications/g09/g09/l502.exe)
 Closed shell SCF:
 Using DIIS extrapolation, IDIIS=  1040.
 Integral symmetry usage will be decided dynamically.
 Keep R1 ints in memory in canonical form, NReq=1925595.
 IVT=       27707 IEndB=       27707 NGot=    33554432 MDV=    32502130
 LenX=    32502130 LenY=    32498880
 Requested convergence on RMS density matrix=1.00D-08 within 128 cycles.
 Requested convergence on MAX density matrix=1.00D-06.
 Requested convergence on             energy=1.00D-06.
 No special actions if energy rises.
 FoFCou: FMM=F IPFlag=           0 FMFlag=           0 FMFlg1=           0
         NFxFlg=           0 DoJE=F BraDBF=F KetDBF=F FulRan=T
         wScrn=  0.000000 ICntrl=     600 IOpCl=  0 I1Cent=           0 NGrid=           0
         NMat0=    1 NMatS0=   1431 NMatT0=    0 NMatD0=    1 NMtDS0=    0 NMtDT0=    0
 Symmetry not used in FoFCou.
 Integral accuracy reduced to 1.0D-05 until final iterations.

 Cycle   1  Pass 0  IDiag  1:
 E= -228.650823445609    
 DIIS: error= 3.51D-02 at cycle   1 NSaved=   1.
 NSaved= 1 IEnMin= 1 EnMin= -228.650823445609     IErMin= 1 ErrMin= 3.51D-02
 ErrMax= 3.51D-02  0.00D+00 EMaxC= 1.00D-01 BMatC= 8.23D-02 BMatP= 8.23D-02
 IDIUse=3 WtCom= 6.49D-01 WtEn= 3.51D-01
 Coeff-Com:  0.100D+01
 Coeff-En:   0.100D+01
 Coeff:      0.100D+01
 Gap=     0.230 Goal=   None    Shift=    0.000
 GapD=    0.230 DampG=1.000 DampE=0.500 DampFc=0.5000 IDamp=-1.
 Damping current iteration by 5.00D-01
 RMSDP=1.21D-02 MaxDP=1.12D-01              OVMax= 1.91D-01

 Cycle   2  Pass 0  IDiag  1:
 E= -228.683255044899     Delta-E=       -0.032431599289 Rises=F Damp=T
 DIIS: error= 1.53D-02 at cycle   2 NSaved=   2.
 NSaved= 2 IEnMin= 2 EnMin= -228.683255044899     IErMin= 2 ErrMin= 1.53D-02
 ErrMax= 1.53D-02  0.00D+00 EMaxC= 1.00D-01 BMatC= 9.99D-03 BMatP= 8.23D-02
 IDIUse=3 WtCom= 8.47D-01 WtEn= 1.53D-01
 Coeff-Com:  0.116D+00 0.884D+00
 Coeff-En:   0.207D+00 0.793D+00
 Coeff:      0.130D+00 0.870D+00
 Gap=     0.245 Goal=   None    Shift=    0.000
 RMSDP=4.84D-03 MaxDP=4.13D-02 DE=-3.24D-02 OVMax= 1.58D-01

 Cycle   3  Pass 0  IDiag  1:
 E= -228.723339697960     Delta-E=       -0.040084653062 Rises=F Damp=F
 DIIS: error= 2.29D-02 at cycle   3 NSaved=   3.
 NSaved= 3 IEnMin= 3 EnMin= -228.723339697960     IErMin= 2 ErrMin= 1.53D-02
 ErrMax= 2.29D-02  0.00D+00 EMaxC= 1.00D-01 BMatC= 1.44D-02 BMatP= 9.99D-03
 IDIUse=2 WtCom= 0.00D+00 WtEn= 1.00D+00
 Coeff-En:   0.000D+00 0.000D+00 0.100D+01
 Coeff:      0.000D+00 0.000D+00 0.100D+01
 Gap=     0.235 Goal=   None    Shift=    0.000
 RMSDP=6.67D-03 MaxDP=5.68D-02 DE=-4.01D-02 OVMax= 1.29D-01

 Cycle   4  Pass 0  IDiag  1:
 E= -228.681600139173     Delta-E=        0.041739558788 Rises=F Damp=F
 DIIS: error= 4.76D-02 at cycle   4 NSaved=   4.
 NSaved= 4 IEnMin= 3 EnMin= -228.723339697960     IErMin= 2 ErrMin= 1.53D-02
 ErrMax= 4.76D-02  0.00D+00 EMaxC= 1.00D-01 BMatC= 6.11D-02 BMatP= 9.99D-03
 IDIUse=2 WtCom= 0.00D+00 WtEn= 1.00D+00
 Coeff-En:   0.000D+00 0.000D+00 0.757D+00 0.243D+00
 Coeff:      0.000D+00 0.000D+00 0.757D+00 0.243D+00
 Gap=     0.249 Goal=   None    Shift=    0.000
 RMSDP=3.32D-03 MaxDP=2.67D-02 DE= 4.17D-02 OVMax= 6.68D-02

 Cycle   5  Pass 0  IDiag  1:
 E= -228.733148140831     Delta-E=       -0.051548001658 Rises=F Damp=F
 DIIS: error= 1.17D-02 at cycle   5 NSaved=   5.
 NSaved= 5 IEnMin= 5 EnMin= -228.733148140831     IErMin= 5 ErrMin= 1.17D-02
 ErrMax= 1.17D-02  0.00D+00 EMaxC= 1.00D-01 BMatC= 3.67D-03 BMatP= 9.99D-03
 IDIUse=3 WtCom= 8.83D-01 WtEn= 1.17D-01
 Coeff-Com: -0.646D-02 0.263D-01 0.248D+00-0.936D-01 0.826D+00
 Coeff-En:   0.000D+00 0.000D+00 0.248D+00 0.000D+00 0.752D+00
 Coeff:     -0.570D-02 0.232D-01 0.248D+00-0.827D-01 0.817D+00
 Gap=     0.255 Goal=   None    Shift=    0.000
 RMSDP=1.20D-03 MaxDP=1.01D-02 DE=-5.15D-02 OVMax= 2.33D-02

 Cycle   6  Pass 0  IDiag  1:
 E= -228.736434492350     Delta-E=       -0.003286351519 Rises=F Damp=F
 DIIS: error= 7.83D-04 at cycle   6 NSaved=   6.
 NSaved= 6 IEnMin= 6 EnMin= -228.736434492350     IErMin= 6 ErrMin= 7.83D-04
 ErrMax= 7.83D-04  0.00D+00 EMaxC= 1.00D-01 BMatC= 2.04D-05 BMatP= 3.67D-03
 IDIUse=3 WtCom= 9.92D-01 WtEn= 7.83D-03
 Coeff-Com: -0.497D-02 0.131D-01 0.100D+00-0.512D-01 0.417D+00 0.526D+00
 Coeff-En:   0.000D+00 0.000D+00 0.000D+00 0.000D+00 0.000D+00 0.100D+01
 Coeff:     -0.493D-02 0.130D-01 0.994D-01-0.508D-01 0.413D+00 0.530D+00
 Gap=     0.255 Goal=   None    Shift=    0.000
 RMSDP=9.13D-05 MaxDP=6.84D-04 DE=-3.29D-03 OVMax= 2.02D-03

 Cycle   7  Pass 0  IDiag  1:
 E= -228.736452557788     Delta-E=       -0.000018065438 Rises=F Damp=F
 DIIS: error= 1.67D-04 at cycle   7 NSaved=   7.
 NSaved= 7 IEnMin= 7 EnMin= -228.736452557788     IErMin= 7 ErrMin= 1.67D-04
 ErrMax= 1.67D-04  0.00D+00 EMaxC= 1.00D-01 BMatC= 8.13D-07 BMatP= 2.04D-05
 IDIUse=3 WtCom= 9.98D-01 WtEn= 1.67D-03
 Coeff-Com: -0.226D-02 0.478D-02 0.206D-01-0.193D-01 0.130D+00 0.316D+00
 Coeff-Com:  0.550D+00
 Coeff-En:   0.000D+00 0.000D+00 0.000D+00 0.000D+00 0.000D+00 0.000D+00
 Coeff-En:   0.100D+01
 Coeff:     -0.225D-02 0.478D-02 0.205D-01-0.193D-01 0.130D+00 0.315D+00
 Coeff:      0.551D+00
 Gap=     0.255 Goal=   None    Shift=    0.000
 RMSDP=1.72D-05 MaxDP=2.16D-04 DE=-1.81D-05 OVMax= 3.92D-04

 Cycle   8  Pass 0  IDiag  1:
 E= -228.736453346646     Delta-E=       -0.000000788858 Rises=F Damp=F
 DIIS: error= 2.20D-05 at cycle   8 NSaved=   8.
 NSaved= 8 IEnMin= 8 EnMin= -228.736453346646     IErMin= 8 ErrMin= 2.20D-05
 ErrMax= 2.20D-05  0.00D+00 EMaxC= 1.00D-01 BMatC= 1.78D-08 BMatP= 8.13D-07
 IDIUse=1 WtCom= 1.00D+00 WtEn= 0.00D+00
 Coeff-Com: -0.343D-03 0.361D-03 0.398D-02-0.339D-02 0.277D-01 0.109D+00
 Coeff-Com:  0.216D+00 0.647D+00
 Coeff:     -0.343D-03 0.361D-03 0.398D-02-0.339D-02 0.277D-01 0.109D+00
 Coeff:      0.216D+00 0.647D+00
 Gap=     0.255 Goal=   None    Shift=    0.000
 RMSDP=2.43D-06 MaxDP=2.97D-05 DE=-7.89D-07 OVMax= 3.31D-05

 Initial convergence to 1.0D-05 achieved.  Increase integral accuracy.
 Cycle   9  Pass 1  IDiag  1:
 E= -228.736470630672     Delta-E=       -0.000017284026 Rises=F Damp=F
 DIIS: error= 1.23D-05 at cycle   1 NSaved=   1.
 NSaved= 1 IEnMin= 1 EnMin= -228.736470630672     IErMin= 1 ErrMin= 1.23D-05
 ErrMax= 1.23D-05  0.00D+00 EMaxC= 1.00D-01 BMatC= 7.55D-09 BMatP= 7.55D-09
 IDIUse=1 WtCom= 1.00D+00 WtEn= 0.00D+00
 Coeff-Com:  0.100D+01
 Coeff:      0.100D+01
 Gap=     0.255 Goal=   None    Shift=    0.000
 RMSDP=2.43D-06 MaxDP=2.97D-05 DE=-1.73D-05 OVMax= 3.75D-05

 Cycle  10  Pass 1  IDiag  1:
 E= -228.736470637983     Delta-E=       -0.000000007311 Rises=F Damp=F
 DIIS: error= 5.87D-06 at cycle   2 NSaved=   2.
 NSaved= 2 IEnMin= 2 EnMin= -228.736470637983     IErMin= 2 ErrMin= 5.87D-06
 ErrMax= 5.87D-06  0.00D+00 EMaxC= 1.00D-01 BMatC= 2.62D-09 BMatP= 7.55D-09
 IDIUse=1 WtCom= 1.00D+00 WtEn= 0.00D+00
 Coeff-Com:  0.318D+00 0.682D+00
 Coeff:      0.318D+00 0.682D+00
 Gap=     0.255 Goal=   None    Shift=    0.000
 RMSDP=1.70D-06 MaxDP=2.09D-05 DE=-7.31D-09 OVMax= 2.64D-05

 Cycle  11  Pass 1  IDiag  1:
 E= -228.736470639000     Delta-E=       -0.000000001017 Rises=F Damp=F
 DIIS: error= 6.39D-06 at cycle   3 NSaved=   3.
 NSaved= 3 IEnMin= 3 EnMin= -228.736470639000     IErMin= 2 ErrMin= 5.87D-06
 ErrMax= 6.39D-06  0.00D+00 EMaxC= 1.00D-01 BMatC= 1.68D-09 BMatP= 2.62D-09
 IDIUse=1 WtCom= 1.00D+00 WtEn= 0.00D+00
 Coeff-Com:  0.477D-02 0.442D+00 0.553D+00
 Coeff:      0.477D-02 0.442D+00 0.553D+00
 Gap=     0.255 Goal=   None    Shift=    0.000
 RMSDP=8.28D-07 MaxDP=1.05D-05 DE=-1.02D-09 OVMax= 1.38D-05

 Cycle  12  Pass 1  IDiag  1:
 E= -228.736470640293     Delta-E=       -0.000000001294 Rises=F Damp=F
 DIIS: error= 2.28D-06 at cycle   4 NSaved=   4.
 NSaved= 4 IEnMin= 4 EnMin= -228.736470640293     IErMin= 4 ErrMin= 2.28D-06
 ErrMax= 2.28D-06  0.00D+00 EMaxC= 1.00D-01 BMatC= 1.65D-10 BMatP= 1.68D-09
 IDIUse=1 WtCom= 1.00D+00 WtEn= 0.00D+00
 Coeff-Com: -0.200D-01 0.249D+00 0.364D+00 0.407D+00
 Coeff:     -0.200D-01 0.249D+00 0.364D+00 0.407D+00
 Gap=     0.255 Goal=   None    Shift=    0.000
 RMSDP=2.48D-07 MaxDP=3.96D-06 DE=-1.29D-09 OVMax= 4.49D-06

 Cycle  13  Pass 1  IDiag  1:
 E= -228.736470640442     Delta-E=       -0.000000000148 Rises=F Damp=F
 DIIS: error= 1.77D-07 at cycle   5 NSaved=   5.
 NSaved= 5 IEnMin= 5 EnMin= -228.736470640442     IErMin= 5 ErrMin= 1.77D-07
 ErrMax= 1.77D-07  0.00D+00 EMaxC= 1.00D-01 BMatC= 1.81D-12 BMatP= 1.65D-10
 IDIUse=1 WtCom= 1.00D+00 WtEn= 0.00D+00
 Coeff-Com: -0.825D-02 0.877D-01 0.133D+00 0.182D+00 0.606D+00
 Coeff:     -0.825D-02 0.877D-01 0.133D+00 0.182D+00 0.606D+00
 Gap=     0.255 Goal=   None    Shift=    0.000
 RMSDP=4.09D-08 MaxDP=4.19D-07 DE=-1.48D-10 OVMax= 7.84D-07

 Cycle  14  Pass 1  IDiag  1:
 E= -228.736470640442     Delta-E=        0.000000000000 Rises=F Damp=F
 DIIS: error= 9.40D-08 at cycle   6 NSaved=   6.
 NSaved= 6 IEnMin= 6 EnMin= -228.736470640442     IErMin= 6 ErrMin= 9.40D-08
 ErrMax= 9.40D-08  0.00D+00 EMaxC= 1.00D-01 BMatC= 3.00D-13 BMatP= 1.81D-12
 IDIUse=1 WtCom= 1.00D+00 WtEn= 0.00D+00
 Coeff-Com: -0.128D-02 0.936D-02 0.177D-01 0.364D-01 0.315D+00 0.623D+00
 Coeff:     -0.128D-02 0.936D-02 0.177D-01 0.364D-01 0.315D+00 0.623D+00
 Gap=     0.255 Goal=   None    Shift=    0.000
 RMSDP=1.19D-08 MaxDP=1.45D-07 DE=-4.55D-13 OVMax= 2.74D-07

 Cycle  15  Pass 1  IDiag  1:
 E= -228.736470640442     Delta-E=        0.000000000000 Rises=F Damp=F
 DIIS: error= 2.00D-08 at cycle   7 NSaved=   7.
 NSaved= 7 IEnMin= 6 EnMin= -228.736470640442     IErMin= 7 ErrMin= 2.00D-08
 ErrMax= 2.00D-08  0.00D+00 EMaxC= 1.00D-01 BMatC= 2.60D-14 BMatP= 3.00D-13
 IDIUse=1 WtCom= 1.00D+00 WtEn= 0.00D+00
 Coeff-Com:  0.120D-03-0.412D-02-0.391D-02-0.266D-03 0.103D+00 0.306D+00
 Coeff-Com:  0.599D+00
 Coeff:      0.120D-03-0.412D-02-0.391D-02-0.266D-03 0.103D+00 0.306D+00
 Coeff:      0.599D+00
 Gap=     0.255 Goal=   None    Shift=    0.000
 RMSDP=3.36D-09 MaxDP=4.55D-08 DE= 1.71D-13 OVMax= 5.58D-08

 SCF Done:  E(RB3LYP) =  -228.736470640     A.U. after   15 cycles
            NFock= 15  Conv=0.34D-08     -V/T= 2.0073
 KE= 2.270835513654D+02 PE=-8.540409333368D+02 EE= 2.376346283282D+02
 Leave Link  502 at Fri Dec 11 13:18:17 2015, MaxMem=    33554432 cpu:         3.2
 (Enter /home/Applications/g09/g09/l801.exe)
 DoSCS=F DFT=T ScalE2(SS,OS)=  1.000000  1.000000
 ExpMin= 1.83D-01 ExpMax= 3.22D+02 ExpMxC= 3.22D+02 IAcc=3 IRadAn=         5 AccDes= 0.00D+00
 HarFok:  IExCor=  205 AccDes= 0.00D+00 IRadAn=         5 IDoV=-2 UseB2=F ITyADJ=14
 ICtDFT= 12500011 ScaDFX=  1.000000  1.000000  1.000000  1.000000
 Largest valence mixing into a core orbital is  1.79D-04
 Largest core mixing into a valence orbital is  5.01D-05
 Range of M.O.s used for correlation:     6    53
 NBasis=    53 NAE=    18 NBE=    18 NFC=     5 NFV=     0
 NROrb=     48 NOA=    13 NOB=    13 NVA=    35 NVB=    35
 Leave Link  801 at Fri Dec 11 13:18:17 2015, MaxMem=    33554432 cpu:         0.2
 (Enter /home/Applications/g09/g09/l914.exe)
 RHF ground state
 MDV=    33554432 DFT=T DoStab=F Mixed=T DoRPA=F DoScal=F NonHer=F
 Keep R1, R2, and R3 ints in memory in canonical form, NReq=5596273.
 FoFCou: FMM=F IPFlag=           0 FMFlag=           0 FMFlg1=           0
         NFxFlg=           0 DoJE=F BraDBF=F KetDBF=F FulRan=T
         wScrn=  0.000000 ICntrl=     600 IOpCl=  0 I1Cent=           0 NGrid=           0
         NMat0=    1 NMatS0=   1431 NMatT0=    0 NMatD0=    1 NMtDS0=    0 NMtDT0=    0
 Symmetry not used in FoFCou.
 Making orbital integer symmetry assigments:
 Orbital symmetries:
       Occupied  (A) (A) (A) (A) (A) (A) (A) (A) (A) (A) (A) (A)
                 (A) (A) (A) (A) (A) (A)
       Virtual   (A) (A) (A) (A) (A) (A) (A) (A) (A) (A) (A) (A)
                 (A) (A) (A) (A) (A) (A) (A) (A) (A) (A) (A) (A)
                 (A) (A) (A) (A) (A) (A) (A) (A) (A) (A) (A)
    60 initial guesses have been made.
 Convergence on wavefunction:    0.000001000000000
 Davidson Disk Diagonalization:  ConvIn= 1.00D-06 SkipCon=T Conv= 1.00D-06.
 Max sub-space:   240 roots to seek:    60 dimension of matrix:          910
 Iteration     1 Dimension    60 NMult     0 NNew     60
 CISAX will form    60 AO SS matrices at one time.
 NMat=    60 NSing=    60 JSym2X= 0.
 New state      1 was old state      3
 New state      2 was old state      1
 New state      3 was old state      6
 New state      5 was old state      7
 New state      6 was old state      9
 New state      7 was old state      8
 New state      8 was old state      5
 New state      9 was old state     10
 New state     10 was old state     13
 New state     13 was old state      2
 New state     15 was old state     19
 Excitation Energies [eV] at current iteration:
 Root      1 :     7.439274580010490
 Root      2 :     8.020399641304529
 Root      3 :     8.533993616741657
 Root      4 :     8.547978446517268
 Root      5 :     9.484038754521901
 Root      6 :     9.624267347707862
 Root      7 :     9.713683404201568
 Root      8 :     9.835640594806268
 Root      9 :    10.048782709881200
 Root     10 :    10.483699837919400
 Root     11 :    10.584598735879170
 Root     12 :    10.695852707969980
 Root     13 :    10.764504911522300
 Root     14 :    10.850581588762130
 Root     15 :    10.985999214397880
 Root     16 :    11.031341255515540
 Root     17 :    11.074287123100050
 Root     18 :    11.239652843463970
 Root     19 :    11.591376061248560
 Root     20 :    11.708203891823630
 Root     21 :    11.936469004869080
 Root     22 :    12.011381555176460
 Root     23 :    12.340391318053090
 Root     24 :    12.557892742327050
 Root     25 :    12.625507311089490
 Root     26 :    12.778698753433390
 Root     27 :    13.069896212850940
 Root     28 :    13.383104352737840
 Root     29 :    13.551935625115820
 Root     30 :    13.780403575337420
 Root     31 :    13.946902506750300
 Root     32 :    14.067637611020660
 Root     33 :    14.114618107214030
 Root     34 :    14.198377220186780
 Root     35 :    14.337905234373460
 Root     36 :    14.376114129938890
 Root     37 :    14.629631030085990
 Root     38 :    14.681854603848310
 Root     39 :    14.736047038242180
 Root     40 :    14.767144161915320
 Root     41 :    14.944309535473040
 Root     42 :    15.012570062477410
 Root     43 :    15.101310252964150
 Root     44 :    15.286569827913300
 Root     45 :    15.321001079821050
 Root     46 :    15.561613713842580
 Root     47 :    15.652028422837150
 Root     48 :    15.714279158125920
 Root     49 :    15.837370381972440
 Root     50 :    15.902119224628500
 Root     51 :    16.019100823955480
 Root     52 :    16.126761739945000
 Root     53 :    16.158043989780560
 Root     54 :    16.239401369113400
 Root     55 :    16.407262427382110
 Root     56 :    16.575761942577600
 Root     57 :    16.903398320724150
 Root     58 :    17.496510250464040
 Root     59 :    17.727040776275070
 Root     60 :    19.566222440263470
 Iteration     2 Dimension   120 NMult    60 NNew     60
 CISAX will form    60 AO SS matrices at one time.
 NMat=    60 NSing=    60 JSym2X= 0.
 Root      1 not converged, maximum delta is    0.259029501074962
 Root      2 not converged, maximum delta is    0.242839165838865
 Root      3 not converged, maximum delta is    0.230225757026443
 Root      4 not converged, maximum delta is    0.230147171548440
 New state      5 was old state      8
 Root      5 not converged, maximum delta is    0.226495509755934
 New state      6 was old state      5
 Root      6 not converged, maximum delta is    0.161707777039688
 New state      7 was old state      6
 Root      7 not converged, maximum delta is    0.223366229576139
 New state      8 was old state      7
 Root      8 not converged, maximum delta is    0.023032529858089
 Root      9 not converged, maximum delta is    0.066277810823366
 New state     10 was old state     12
 Root     10 not converged, maximum delta is    0.487348849400171
 New state     11 was old state     10
 Root     11 not converged, maximum delta is    0.070442384732354
 New state     12 was old state     11
 Root     12 not converged, maximum delta is    0.107994068328470
 Root     13 not converged, maximum delta is    0.236283623472387
 Root     14 not converged, maximum delta is    0.074809785534190
 Root     15 not converged, maximum delta is    0.101101608695303
 Excitation Energies [eV] at current iteration:
 Root      1 :     7.159601606909970   Change is   -0.279672973100520
 Root      2 :     7.496020611796047   Change is   -0.524379029508482
 Root      3 :     8.509607350535781   Change is   -0.024386266205877
 Root      4 :     8.534293626375590   Change is   -0.013684820141678
 Root      5 :     9.253179431186144   Change is   -0.582461163620125
 Root      6 :     9.475696061915867   Change is   -0.008342692606034
 Root      7 :     9.632467556592024   Change is    0.008200208884162
 Root      8 :     9.700009330897769   Change is   -0.013674073303799
 Root      9 :    10.019141880343000   Change is   -0.029640829538200
 Root     10 :    10.038505252174910   Change is   -0.657347455795068
 Root     11 :    10.465680329238510   Change is   -0.018019508680894
 Root     12 :    10.577352161415480   Change is   -0.007246574463686
 Root     13 :    10.710765750376470   Change is   -0.053739161145831
 Root     14 :    10.832240434562560   Change is   -0.018341154199571
 Root     15 :    10.949258992764800   Change is   -0.036740221633080
 Root     16 :    11.007970478376400   Change is   -0.023370777139143
 Root     17 :    11.034042443028720   Change is   -0.040244680071324
 Root     18 :    11.218686872037240   Change is   -0.020965971426723
 Root     19 :    11.453615345838120   Change is   -0.254588545985505
 Root     20 :    11.549741762950730   Change is   -0.041634298297823
 Root     21 :    11.918921090451580   Change is   -0.017547914417493
 Root     22 :    11.980075885666050   Change is   -0.031305669510418
 Root     23 :    12.287415610880870   Change is   -0.491283142552525
 Root     24 :    12.331577206178100   Change is   -0.008814111874984
 Root     25 :    12.546744814256020   Change is   -0.078762496833463
 Root     26 :    12.588467444095750   Change is    0.030574701768700
 Root     27 :    12.998564553091120   Change is   -0.384539799646713
 Root     28 :    13.044597830675630   Change is   -0.025298382175313
 Root     29 :    13.223732502664970   Change is   -0.328203122450845
 Root     30 :    13.605171251247280   Change is   -0.341731255503016
 Root     31 :    13.753686350539760   Change is   -0.026717224797657
 Root     32 :    14.033431200678630   Change is   -0.034206410342033
 Root     33 :    14.055336413545360   Change is   -0.059281693668666
 Root     34 :    14.100791981721300   Change is   -0.097585238465482
 Root     35 :    14.159712223427500   Change is   -0.216401906511386
 Root     36 :    14.253978980491270   Change is   -0.083926253882187
 Root     37 :    14.444844655885920   Change is   -0.322299506029404
 Root     38 :    14.555416685636920   Change is   -0.126437918211396
 Root     39 :    14.617619912314460   Change is   -0.012011117771530
 Root     40 :    14.686335643569840   Change is   -0.049711394672345
 Root     41 :    14.838389113510690   Change is   -0.105920421962347
 Root     42 :    14.931275845858600   Change is   -0.170034407105547
 Root     43 :    14.970405542747850   Change is   -0.042164519729564
 Root     44 :    15.173165219113510   Change is   -0.113404608799789
 Root     45 :    15.263707240165210   Change is   -0.057293839655845
 Root     46 :    15.377339868814070   Change is   -0.184273845028520
 Root     47 :    15.501715207472830   Change is   -0.150313215364324
 Root     48 :    15.569358985210690   Change is   -0.144920172915236
 Root     49 :    15.687062343916710   Change is   -0.332038480038771
 Root     50 :    15.755128068175920   Change is   -0.082242313796523
 Root     51 :    15.846073968490920   Change is   -0.056045256137579
 Root     52 :    15.997310881259170   Change is   -0.160733108521394
 Root     53 :    16.010946724522300   Change is   -0.115815015422701
 Root     54 :    16.036265146803320   Change is   -0.370997280578782
 Root     55 :    16.163836637713790   Change is   -0.075564731399609
 Root     56 :    16.449951757591130   Change is   -0.125810184986472
 Root     57 :    16.466141729838640   Change is   -1.030368520625400
 Root     58 :    16.565115167093540   Change is   -0.338283153630611
 Root     59 :    16.703423186885740   Change is   -1.023617589389332
 Root     60 :    17.055435455529740
 Iteration     3 Dimension   135 NMult   120 NNew     15
 CISAX will form    15 AO SS matrices at one time.
 NMat=    15 NSing=    15 JSym2X= 0.
 Root      1 not converged, maximum delta is    0.001983034961634
 Root      2 not converged, maximum delta is    0.001471510753148
 Root      3 not converged, maximum delta is    0.000308952675997
 Root      4 not converged, maximum delta is    0.000320011551307
 Root      5 not converged, maximum delta is    0.001894638718529
 Root      6 not converged, maximum delta is    0.000793777830265
 Root      7 not converged, maximum delta is    0.000418192494177
 Root      8 not converged, maximum delta is    0.000291567798836
 Root      9 not converged, maximum delta is    0.011634986186682
 Root     10 not converged, maximum delta is    0.015461026969448
 Root     11 not converged, maximum delta is    0.000280134924714
 Root     12 not converged, maximum delta is    0.000367684440963
 Root     13 not converged, maximum delta is    0.000334190182417
 Root     14 not converged, maximum delta is    0.000289702723072
 Root     15 not converged, maximum delta is    0.000410731419230
 Excitation Energies [eV] at current iteration:
 Root      1 :     7.158283259765938   Change is   -0.001318347144032
 Root      2 :     7.494788253605904   Change is   -0.001232358190144
 Root      3 :     8.509580338164975   Change is   -0.000027012370805
 Root      4 :     8.534277924200596   Change is   -0.000015702174994
 Root      5 :     9.250989817794714   Change is   -0.002189613391429
 Root      6 :     9.475607454428543   Change is   -0.000088607487325
 Root      7 :     9.632404526957856   Change is   -0.000063029634169
 Root      8 :     9.699987305328174   Change is   -0.000022025569595
 Root      9 :    10.018995126884230   Change is   -0.000146753458769
 Root     10 :    10.035878868723420   Change is   -0.002626383451493
 Root     11 :    10.465634261099790   Change is   -0.000046068138726
 Root     12 :    10.577311791592740   Change is   -0.000040369822739
 Root     13 :    10.710714466370760   Change is   -0.000051284005706
 Root     14 :    10.832215293015710   Change is   -0.000025141546854
 Root     15 :    10.949198015820270   Change is   -0.000060976944525
 Iteration     4 Dimension   150 NMult   135 NNew     15
 CISAX will form    15 AO SS matrices at one time.
 NMat=    15 NSing=    15 JSym2X= 0.
 Root      1 not converged, maximum delta is    0.000035829651419
 Root      2 not converged, maximum delta is    0.000043825574108
 Root      3 not converged, maximum delta is    0.000006215779267
 Root      4 not converged, maximum delta is    0.000004054925329
 Root      5 not converged, maximum delta is    0.000066872762666
 Root      6 not converged, maximum delta is    0.000013769679340
 Root      7 not converged, maximum delta is    0.000012646770922
 Root      8 not converged, maximum delta is    0.000005583869644
 Root      9 not converged, maximum delta is    0.000021628105196
 Root     10 not converged, maximum delta is    0.000081144863643
 Root     11 not converged, maximum delta is    0.000011753992680
 Root     12 not converged, maximum delta is    0.000006174682630
 Root     13 not converged, maximum delta is    0.000006483594743
 Root     14 not converged, maximum delta is    0.000006205727656
 Root     15 not converged, maximum delta is    0.000010778743341
 Excitation Energies [eV] at current iteration:
 Root      1 :     7.158281665988562   Change is   -0.000001593777377
 Root      2 :     7.494787066656698   Change is   -0.000001186949206
 Root      3 :     8.509580316551041   Change is   -0.000000021613933
 Root      4 :     8.534277911728921   Change is   -0.000000012471675
 Root      5 :     9.250986271634911   Change is   -0.000003546159803
 Root      6 :     9.475607339364839   Change is   -0.000000115063704
 Root      7 :     9.632404420992460   Change is   -0.000000105965396
 Root      8 :     9.699987278562148   Change is   -0.000000026766026
 Root      9 :    10.018994930083150   Change is   -0.000000196801084
 Root     10 :    10.035874953995210   Change is   -0.000003914728204
 Root     11 :    10.465634182432400   Change is   -0.000000078667383
 Root     12 :    10.577311741818270   Change is   -0.000000049774475
 Root     13 :    10.710714424494540   Change is   -0.000000041876223
 Root     14 :    10.832215261469650   Change is   -0.000000031546053
 Root     15 :    10.949197937850530   Change is   -0.000000077969740
 Iteration     5 Dimension   165 NMult   150 NNew     15
 CISAX will form    15 AO SS matrices at one time.
 NMat=    15 NSing=    15 JSym2X= 0.
 Root      1 not converged, maximum delta is    0.000001793291542
 Root      2 not converged, maximum delta is    0.000001157117628
 Root      3 has converged.
 Root      4 has converged.
 Root      5 not converged, maximum delta is    0.000002408448904
 Root      6 has converged.
 Root      7 has converged.
 Root      8 has converged.
 Root      9 has converged.
 Root     10 not converged, maximum delta is    0.000002472667551
 Root     11 has converged.
 Root     12 has converged.
 Root     13 has converged.
 Root     14 has converged.
 Root     15 has converged.
 Excitation Energies [eV] at current iteration:
 Root      1 :     7.158281664418030   Change is   -0.000000001570531
 Root      2 :     7.494787065841511   Change is   -0.000000000815186
 Root      3 :     8.509580316535844   Change is   -0.000000000015197
 Root      4 :     8.534277911721571   Change is   -0.000000000007350
 Root      5 :     9.250986268713767   Change is   -0.000000002921146
 Root      6 :     9.475607339266306   Change is   -0.000000000098532
 Root      7 :     9.632404420885665   Change is   -0.000000000106795
 Root      8 :     9.699987278544169   Change is   -0.000000000017978
 Root      9 :    10.018994929902630   Change is   -0.000000000180512
 Root     10 :    10.035874949716780   Change is   -0.000000004278429
 Root     11 :    10.465634182347550   Change is   -0.000000000084853
 Root     12 :    10.577311741754450   Change is   -0.000000000063822
 Root     13 :    10.710714424453760   Change is   -0.000000000040780
 Root     14 :    10.832215261434430   Change is   -0.000000000035221
 Root     15 :    10.949197937775620   Change is   -0.000000000074909
 Iteration     6 Dimension   169 NMult   165 NNew      4
 CISAX will form     4 AO SS matrices at one time.
 NMat=     4 NSing=     4 JSym2X= 0.
 Root      1 has converged.
 Root      2 has converged.
 Root      3 has converged.
 Root      4 has converged.
 Root      5 has converged.
 Root      6 has converged.
 Root      7 has converged.
 Root      8 has converged.
 Root      9 has converged.
 Root     10 has converged.
 Root     11 has converged.
 Root     12 has converged.
 Root     13 has converged.
 Root     14 has converged.
 Root     15 has converged.
 Excitation Energies [eV] at current iteration:
 Root      1 :     7.158281664417437   Change is   -0.000000000000594
 Root      2 :     7.494787065841283   Change is   -0.000000000000228
 Root      3 :     8.509580316535819   Change is   -0.000000000000026
 Root      4 :     8.534277911721574   Change is    0.000000000000003
 Root      5 :     9.250986268712223   Change is   -0.000000000001542
 Root      6 :     9.475607339266253   Change is   -0.000000000000054
 Root      7 :     9.632404420885589   Change is   -0.000000000000076
 Root      8 :     9.699987278544151   Change is   -0.000000000000018
 Root      9 :    10.018994929902500   Change is   -0.000000000000136
 Root     10 :    10.035874949712810   Change is   -0.000000000003970
 Root     11 :    10.465634182347480   Change is   -0.000000000000071
 Root     12 :    10.577311741754380   Change is   -0.000000000000069
 Root     13 :    10.710714424453740   Change is   -0.000000000000015
 Root     14 :    10.832215261434430   Change is    0.000000000000003
 Root     15 :    10.949197937775560   Change is   -0.000000000000065
 Convergence achieved on expansion vectors.
 ***********************************************************************
 Excited states from <AA,BB:AA,BB> singles matrix:
 ***********************************************************************
 
 1PDM for each excited state written to RWF  633
 Ground to excited state transition densities written to RWF  633
 Ground to excited state transition electric dipole moments (Au):
       state          X           Y           Z        Dip. S.      Osc.
         1        -0.8291      0.1675     -0.0105      0.7156      0.1255
         2        -0.6220     -0.0469      0.0011      0.3891      0.0715
         3        -0.0712     -0.0724     -0.1161      0.0238      0.0050
         4        -0.0234     -0.0358      0.0917      0.0102      0.0021
         5        -0.6334     -0.8028      0.0238      1.0462      0.2371
         6         0.1112      0.1082     -0.0559      0.0272      0.0063
         7        -0.1345     -0.0750      0.0571      0.0270      0.0064
         8         0.0171     -0.0682     -0.0517      0.0076      0.0018
         9        -0.0737      0.1912     -0.0027      0.0420      0.0103
        10        -0.3227      1.0697      0.0469      1.2507      0.3075
        11         0.0792      0.0749      0.0556      0.0150      0.0038
        12        -0.0713      0.0437     -0.0698      0.0119      0.0031
        13        -0.0472      0.0775     -0.0462      0.0104      0.0027
        14         0.0441      0.0118     -0.0213      0.0025      0.0007
        15        -0.0134      0.1454     -0.1500      0.0438      0.0118
 Ground to excited state transition velocity dipole moments (Au):
       state          X           Y           Z        Dip. S.      Osc.
         1        -0.0085      0.0558     -0.0041      0.0032      0.0081
         2         0.0035     -0.0357      0.0022      0.0013      0.0031
         3         0.0043      0.0028      0.0668      0.0045      0.0096
         4         0.0009     -0.0014     -0.0124      0.0002      0.0003
         5         0.0780      0.0073     -0.0055      0.0062      0.0121
         6        -0.0076     -0.0008      0.0267      0.0008      0.0015
         7         0.0157      0.0084     -0.0045      0.0003      0.0006
         8        -0.0015      0.0008      0.0342      0.0012      0.0022
         9         0.0086     -0.0039      0.0100      0.0002      0.0003
        10         0.0168     -0.0153      0.0025      0.0005      0.0009
        11        -0.0154     -0.0055     -0.0554      0.0033      0.0058
        12         0.0119      0.0007     -0.0420      0.0019      0.0033
        13         0.0076     -0.0049      0.0183      0.0004      0.0007
        14        -0.0099      0.0080     -0.0505      0.0027      0.0045
        15        -0.0013     -0.0176      0.0133      0.0005      0.0008
 Ground to excited state transition magnetic dipole moments (Au):
       state          X           Y           Z
         1         0.0909      0.0065     -0.5200
         2        -0.0311      0.0052     -0.3469
         3        -1.4429     -0.3478     -0.0345
         4         0.1850     -0.4840     -0.0249
         5         0.1149      0.0032      0.1987
         6         0.1000     -0.1079     -0.0247
         7        -0.1433     -0.0155      0.0270
         8        -0.1705     -0.2670     -0.0596
         9        -0.5327      0.0760     -0.0027
        10         0.0433     -0.0526      0.1956
        11         0.0850      0.0978     -0.0740
        12        -0.0047     -0.4127      0.0630
        13         0.1106      0.0805     -0.0501
        14         0.0881      0.2699     -0.0480
        15        -0.1863      0.6630     -0.0164
 Ground to excited state transition velocity quadrupole moments (Au):
       state          XX          YY          ZZ          XY          XZ          YZ
         1         0.0935     -0.0539     -0.0285     -0.1345      0.0009      0.0085
         2         0.0059     -0.0786      0.0259     -0.1543     -0.0010     -0.0030
         3        -0.0088     -0.0045      0.0057     -0.0115      0.0221     -0.1780
         4        -0.0023      0.0083      0.0017     -0.0198     -0.0155      0.0794
         5        -0.1855      0.1546      0.0317      0.1821      0.0259      0.0047
         6         0.0388     -0.0361      0.0030     -0.0504      0.1803      0.0061
         7        -0.0340      0.0250     -0.0009      0.0432      0.0088     -0.0069
         8         0.0168      0.0035      0.0034     -0.0022     -0.0902     -0.1409
         9         0.0374     -0.0210     -0.0144      0.0418     -0.0282     -0.0196
        10         0.2129     -0.1324     -0.0688      0.2533      0.0084     -0.0106
        11         0.0254     -0.0210     -0.0048     -0.0309     -0.0256      0.0095
        12         0.0246      0.0058     -0.0090      0.0321      0.1085     -0.0056
        13         0.0256     -0.0247      0.0014      0.0267      0.0230      0.1116
        14         0.0111     -0.0210     -0.0049     -0.0176     -0.1530      0.0066
        15         0.0278     -0.0352      0.0093      0.0035     -0.0584     -0.0656
 <0|del|b> * <b|rxdel|0> + <0|del|b> * <b|delr+rdel|0>
 Rotatory Strengths (R) in cgs (10**-40 erg-esu-cm/Gauss)
       state          XX          YY          ZZ    R(velocity)    E-M Angle
         1         3.9842      0.9649     -0.3815      1.5225       86.74
         2        -1.6750     -0.6880     -0.3186     -0.8939       94.79
         3        -4.6404     -9.5427     -7.1144     -7.0992       95.43
         4         1.3486      0.3401      0.8762      0.8550       79.94
         5        -2.3559      9.6082      9.1580      5.4701       64.05
         6        -1.7917     -0.1262     -0.7892     -0.9023      108.75
         7        -0.5224     -2.2849     -2.1971     -1.6681      158.24
         8        -2.2482     -1.4812     -0.2554     -1.3283      100.47
         9        -0.0165     -5.0056     -4.4338     -3.1520      131.69
        10         1.9938      0.3848      1.5189      1.2992       64.60
        11         4.7128      0.8556     -1.4329      1.3785       74.86
        12        -3.9466     -1.2938     -0.1740     -1.8048       99.40
        13        -0.6400      0.2537     -0.4663     -0.2842       99.17
        14         5.9562      0.5281      0.1154      2.1999       75.65
        15       -11.3048      0.0598     -9.2083     -6.8178      139.85
 1/2[<0|r|b>*<b|rxdel|0> + (<0|rxdel|b>*<b|r|0>)*]
 Rotatory Strengths (R) in cgs (10**-40 erg-esu-cm/Gauss)
       state          XX          YY          ZZ     R(length)
         1        53.2765     -0.7739     -3.8480     16.2182
         2       -13.6902      0.1719      0.2772     -4.4137
         3       -72.6798    -17.8094     -2.8362    -31.1085
         4         3.0652    -12.2437      1.6146     -2.5213
         5        51.4577      1.8282     -3.3437     16.6474
         6        -7.8680      8.2572     -0.9766     -0.1958
         7       -13.6331     -0.8222     -1.0899     -5.1817
         8         2.0593    -12.8790     -2.1781     -4.3326
         9       -27.7663    -10.2783     -0.0051    -12.6832
        10         9.8852     39.8007     -6.4837     14.4007
        11        -4.7559     -5.1825      2.9074     -2.3437
        12        -0.2383     12.7486      3.1106      5.2070
        13         3.6959     -4.4146     -1.6363     -0.7850
        14        -2.7474     -2.2430     -0.7227     -1.9044
        15        -1.7708    -68.1738     -1.7425    -23.8957
  1/2[<0|del|b>*<b|r|0> + (<0|r|b>*<b|del|0>)*] (Au)
       state          X           Y           Z        Dip. S.   Osc.(frdel)
         1         0.0070      0.0093      0.0000     -0.0164     -0.0110
         2        -0.0022      0.0017      0.0000      0.0005      0.0003
         3        -0.0003     -0.0002     -0.0078      0.0083      0.0055
         4         0.0000      0.0000     -0.0011      0.0011      0.0007
         5        -0.0494     -0.0059     -0.0001      0.0554      0.0369
         6        -0.0008     -0.0001     -0.0015      0.0024      0.0016
         7        -0.0021     -0.0006     -0.0003      0.0030      0.0020
         8         0.0000     -0.0001     -0.0018      0.0019      0.0012
         9        -0.0006     -0.0007      0.0000      0.0014      0.0009
        10        -0.0054     -0.0164      0.0001      0.0217      0.0145
        11        -0.0012     -0.0004     -0.0031      0.0047      0.0031
        12        -0.0008      0.0000      0.0029     -0.0021     -0.0014
        13        -0.0004     -0.0004     -0.0008      0.0016      0.0011
        14        -0.0004      0.0001      0.0011     -0.0007     -0.0005
        15         0.0000     -0.0026     -0.0020      0.0045      0.0030

 Excitation energies and oscillator strengths:
 
 Excited State   1:      Singlet-A      7.1583 eV  173.20 nm  f=0.1255  <S**2>=0.000
      17 -> 19        -0.22033
      18 -> 19         0.58449
      18 -> 20        -0.27711
 This state for optimization and/or second-order correction.
 Total Energy, E(CIS) =  -228.473408618    
 Copying the excited state density for this state as the 1-particle RhoCI density.
 
 Excited State   2:      Singlet-A      7.4948 eV  165.43 nm  f=0.0715  <S**2>=0.000
      17 -> 19         0.49945
      18 -> 19         0.33455
      18 -> 20         0.34175
 
 Excited State   3:      Singlet-A      8.5096 eV  145.70 nm  f=0.0050  <S**2>=0.000
      16 -> 19         0.69905
 
 Excited State   4:      Singlet-A      8.5343 eV  145.28 nm  f=0.0021  <S**2>=0.000
      18 -> 21         0.69906
 
 Excited State   5:      Singlet-A      9.2510 eV  134.02 nm  f=0.2371  <S**2>=0.000
      15 -> 21         0.10268
      17 -> 19         0.27501
      17 -> 20         0.43977
      18 -> 20        -0.40108
 
 Excited State   6:      Singlet-A      9.4756 eV  130.85 nm  f=0.0063  <S**2>=0.000
      18 -> 22         0.66117
      18 -> 23         0.17789
 
 Excited State   7:      Singlet-A      9.6324 eV  128.72 nm  f=0.0064  <S**2>=0.000
      17 -> 21         0.53457
      18 -> 23        -0.42580
 
 Excited State   8:      Singlet-A      9.7000 eV  127.82 nm  f=0.0018  <S**2>=0.000
      15 -> 19         0.20794
      17 -> 21         0.42926
      18 -> 22        -0.15932
      18 -> 23         0.47447
 
 Excited State   9:      Singlet-A     10.0190 eV  123.75 nm  f=0.0103  <S**2>=0.000
      15 -> 19         0.64490
      16 -> 20         0.13043
      18 -> 23        -0.15386
 
 Excited State  10:      Singlet-A     10.0359 eV  123.54 nm  f=0.3075  <S**2>=0.000
      15 -> 19        -0.10808
      15 -> 21        -0.10084
      17 -> 19        -0.27025
      17 -> 20         0.47927
      18 -> 20         0.29312
      18 -> 23         0.10135
 
 Excited State  11:      Singlet-A     10.4656 eV  118.47 nm  f=0.0038  <S**2>=0.000
      13 -> 19         0.20699
      14 -> 19        -0.18704
      15 -> 19        -0.11701
      16 -> 20         0.58246
      17 -> 22         0.22913
 
 Excited State  12:      Singlet-A     10.5773 eV  117.22 nm  f=0.0031  <S**2>=0.000
      12 -> 19         0.10445
      13 -> 19        -0.11973
      16 -> 20        -0.20657
      17 -> 22         0.60862
      18 -> 24        -0.20516
 
 Excited State  13:      Singlet-A     10.7107 eV  115.76 nm  f=0.0027  <S**2>=0.000
      17 -> 22         0.21215
      18 -> 24         0.64444
      18 -> 25         0.10637
 
 Excited State  14:      Singlet-A     10.8322 eV  114.46 nm  f=0.0007  <S**2>=0.000
      13 -> 19         0.30317
      14 -> 19        -0.28541
      16 -> 20        -0.22726
      17 -> 23        -0.26674
      18 -> 25         0.41638
 
 Excited State  15:      Singlet-A     10.9492 eV  113.24 nm  f=0.0118  <S**2>=0.000
      12 -> 19        -0.39235
      13 -> 19        -0.15998
      14 -> 19         0.24552
      16 -> 20         0.14920
      17 -> 23         0.13403
      18 -> 24        -0.11030
      18 -> 25         0.43538
 SavETr:  write IOETrn=   770 NScale= 10 NData=  16 NLR=1 NState=   15 LETran=     280.
 The selected state is a singlet
 CISAX will form     1 AO SS matrices at one time.
 NMat=     1 NSing=     1 JSym2X= 0.
 CISAX will form     1 AO SS matrices at one time.
 NMat=     1 NSing=     1 JSym2X= 0.
 Leave Link  914 at Fri Dec 11 13:18:42 2015, MaxMem=    33554432 cpu:        25.0
 (Enter /home/Applications/g09/g09/l1002.exe)
 Minotr:  Closed shell wavefunction.
          Computing CIS/TD-HF/TD-KS derivatives.
          Using Z-Vector for PSCF gradient.
          Skipping F1 and S1 gradient terms here.
          IDoAtm=111111111
          Frozen-core window.
          Direct CPHF calculation.
          Differentiating once with respect to electric field.
                with respect to dipole field.
          Differentiating once with respect to nuclear coordinates.
          Requested convergence is 1.0D-10 RMS, and 1.0D-09 maximum.
          NewPWx=F KeepS1=T KeepF1=T KeepIn=T MapXYZ=F SortEE=F KeepMc=T.
          MDV=      33554290 using IRadAn=       0.
 Using stored XC quadrature information.
 Keep R1 ints in memory in canonical form, NReq=1898913.
 FoFCou: FMM=F IPFlag=           0 FMFlag=           0 FMFlg1=           0
         NFxFlg=           0 DoJE=F BraDBF=F KetDBF=F FulRan=T
         wScrn=  0.000000 ICntrl=     600 IOpCl=  0 I1Cent=           0 NGrid=           0
         NMat0=    1 NMatS0=   1431 NMatT0=    0 NMatD0=    1 NMtDS0=    0 NMtDT0=    0
 Symmetry not used in FoFCou.
          Solving linear equations separately, MaxMat=       0.
          There are     1 degrees of freedom in the 1st order CPHF.  IDoFFX=0 NUNeed=     1.
 LinEq1:  Iter=  0 NonCon=     1 RMS=4.11D-02 Max=5.75D-01 NDo=     1
 AX will form     1 AO Fock derivatives at one time.
 LinEq1:  Iter=  1 NonCon=     1 RMS=1.75D-02 Max=2.77D-01 NDo=     1
 LinEq1:  Iter=  2 NonCon=     1 RMS=1.43D-02 Max=2.01D-01 NDo=     1
 LinEq1:  Iter=  3 NonCon=     1 RMS=6.87D-03 Max=9.61D-02 NDo=     1
 LinEq1:  Iter=  4 NonCon=     1 RMS=4.73D-03 Max=5.19D-02 NDo=     1
 LinEq1:  Iter=  5 NonCon=     1 RMS=1.07D-03 Max=7.33D-03 NDo=     1
 LinEq1:  Iter=  6 NonCon=     1 RMS=7.81D-04 Max=7.84D-03 NDo=     1
 LinEq1:  Iter=  7 NonCon=     1 RMS=3.04D-04 Max=1.94D-03 NDo=     1
 LinEq1:  Iter=  8 NonCon=     1 RMS=9.30D-05 Max=5.80D-04 NDo=     1
 LinEq1:  Iter=  9 NonCon=     1 RMS=1.19D-05 Max=7.08D-05 NDo=     1
 LinEq1:  Iter= 10 NonCon=     1 RMS=1.22D-06 Max=8.53D-06 NDo=     1
 LinEq1:  Iter= 11 NonCon=     1 RMS=1.78D-07 Max=1.62D-06 NDo=     1
 LinEq1:  Iter= 12 NonCon=     1 RMS=2.20D-08 Max=1.54D-07 NDo=     1
 LinEq1:  Iter= 13 NonCon=     1 RMS=3.18D-09 Max=1.76D-08 NDo=     1
 LinEq1:  Iter= 14 NonCon=     1 RMS=4.03D-10 Max=2.24D-09 NDo=     1
 LinEq1:  Iter= 15 NonCon=     0 RMS=4.08D-11 Max=2.24D-10 NDo=     1
 Linear equations converged to 1.000D-10 1.000D-09 after    15 iterations.
 End of Minotr F.D. properties file   721 does not exist.
 End of Minotr F.D. properties file   722 does not exist.
 End of Minotr F.D. properties file   788 does not exist.
 Leave Link 1002 at Fri Dec 11 13:18:54 2015, MaxMem=    33554432 cpu:        11.1
 (Enter /home/Applications/g09/g09/l601.exe)
 Copying SCF densities to generalized density rwf, IOpCl= 0 IROHF=0.

 **********************************************************************

            Population analysis using the SCF density.

 **********************************************************************

 Orbital symmetries:
       Occupied  (A) (A) (A) (A) (A) (A) (A) (A) (A) (A) (A) (A)
                 (A) (A) (A) (A) (A) (A)
       Virtual   (A) (A) (A) (A) (A) (A) (A) (A) (A) (A) (A) (A)
                 (A) (A) (A) (A) (A) (A) (A) (A) (A) (A) (A) (A)
                 (A) (A) (A) (A) (A) (A) (A) (A) (A) (A) (A)
 The electronic state is 1-A.
 Alpha  occ. eigenvalues --  -19.09559 -10.17282 -10.16941 -10.12339 -10.11854
 Alpha  occ. eigenvalues --   -1.09140  -0.81063  -0.74580  -0.60096  -0.57718
 Alpha  occ. eigenvalues --   -0.54522  -0.44290  -0.43365  -0.42750  -0.40220
 Alpha  occ. eigenvalues --   -0.35249  -0.27887  -0.23520
 Alpha virt. eigenvalues --    0.01976   0.08596   0.12959   0.15374   0.17016
 Alpha virt. eigenvalues --    0.19929   0.20972   0.22293   0.35814   0.42379
 Alpha virt. eigenvalues --    0.47940   0.66177   0.69831   0.70591   0.76545
 Alpha virt. eigenvalues --    0.76679   0.79449   0.80772   0.82717   0.84128
 Alpha virt. eigenvalues --    0.92633   1.01361   1.03115   1.07228   1.17821
 Alpha virt. eigenvalues --    1.24407   1.31433   1.36189   1.50822   1.56129
 Alpha virt. eigenvalues --    1.65648   1.75619   1.96999   2.16722   3.12409
     Molecular Orbital Coefficients:
                           1         2         3         4         5
                           O         O         O         O         O
     Eigenvalues --   -19.09559 -10.17282 -10.16941 -10.12339 -10.11854
   1 1   C  1S          0.00013  -0.00018  -0.00563  -0.11697   0.97903
   2        2S          0.00052   0.00028  -0.00656  -0.01694   0.11008
   3        2PX         0.00083  -0.00043   0.00076  -0.00105   0.00104
   4        2PY         0.00094   0.00030   0.00411   0.00037  -0.00166
   5        2PZ         0.00002   0.00000   0.00006   0.00001  -0.00019
   6        3S         -0.00728  -0.02315   0.04490   0.04964  -0.10983
   7        3PX        -0.00614  -0.00296   0.00092   0.02386  -0.01964
   8        3PY         0.00807   0.01300  -0.02444  -0.00926   0.02823
   9        3PZ        -0.00016   0.00039  -0.00047  -0.00047   0.00130
  10 2   C  1S         -0.00063  -0.07454   0.98264   0.00022   0.00504
  11        2S         -0.00158  -0.01144   0.10648  -0.00008  -0.00560
  12        2PX         0.00164  -0.00145   0.00217   0.00017  -0.00100
  13        2PY        -0.00104  -0.00075   0.00088  -0.00066  -0.00351
  14        2PZ         0.00002   0.00001   0.00012   0.00001  -0.00010
  15        3S          0.01889   0.02471  -0.08242  -0.01433   0.05016
  16        3PX         0.01458   0.01452  -0.00885  -0.00567   0.01546
  17        3PY         0.00366   0.01722  -0.02115  -0.00501   0.02754
  18        3PZ         0.00063   0.00028  -0.00073  -0.00025   0.00072
  19 3   O  1S          0.98271   0.00020   0.00010   0.00007   0.00009
  20        2S          0.10698   0.00142   0.00131   0.00028   0.00036
  21        2PX        -0.00037   0.00063  -0.00105   0.00001   0.00002
  22        2PY         0.00409   0.00072   0.00078  -0.00009  -0.00010
  23        2PZ        -0.00019  -0.00004  -0.00008  -0.00001  -0.00002
  24        3S         -0.05772   0.00107   0.00215  -0.00338  -0.00392
  25        3PX         0.00108  -0.00051   0.00013  -0.00196   0.00224
  26        3PY        -0.01297  -0.00286  -0.00226  -0.00188  -0.00163
  27        3PZ         0.00056   0.00017   0.00029   0.00009   0.00010
  28 4   C  1S         -0.00049   0.98264   0.07349   0.01101   0.00192
  29        2S         -0.00097   0.10621   0.00472  -0.00303  -0.00078
  30        2PX        -0.00154  -0.00208   0.00124   0.00127   0.00043
  31        2PY        -0.00198  -0.00081  -0.00037  -0.00158  -0.00126
  32        2PZ         0.00006   0.00012   0.00007   0.00003  -0.00004
  33        3S          0.01653  -0.07305   0.00894   0.03819  -0.00430
  34        3PX        -0.01398   0.01312  -0.01631  -0.02071   0.00235
  35        3PY        -0.00355  -0.01420   0.00749   0.01657   0.00096
  36        3PZ         0.00040  -0.00033  -0.00026   0.00019   0.00019
  37 5   C  1S          0.00014  -0.01140  -0.00173   0.97911   0.11639
  38        2S          0.00059  -0.00520  -0.00058   0.10972   0.00944
  39        2PX        -0.00122  -0.00153   0.00011  -0.00085   0.00063
  40        2PY         0.00071   0.00204   0.00078  -0.00168   0.00059
  41        2PZ        -0.00004   0.00004  -0.00001   0.00011   0.00005
  42        3S         -0.00452   0.03495  -0.01401  -0.10495   0.02361
  43        3PX         0.00348   0.00670   0.00058   0.01465  -0.01700
  44        3PY         0.00578  -0.01832   0.00929   0.03068  -0.01202
  45        3PZ         0.00026  -0.00014   0.00019  -0.00028  -0.00015
  46 6   H  1S         -0.00077  -0.00111  -0.00043  -0.00407  -0.00034
  47        2S         -0.00205   0.00221  -0.00109   0.00442   0.00634
  48 7   H  1S         -0.00013  -0.00460   0.00099  -0.00002  -0.00014
  49        2S          0.00336   0.00878   0.00852   0.00678   0.00032
  50 8   H  1S          0.00007   0.00168  -0.00376  -0.00010  -0.00004
  51        2S          0.00368   0.00705   0.00789  -0.00087   0.00714
  52 9   H  1S         -0.00101  -0.00026  -0.00099   0.00008  -0.00444
  53        2S         -0.00361  -0.00142   0.00366   0.00404   0.00508
                           6         7         8         9        10
                           O         O         O         O         O
     Eigenvalues --    -1.09140  -0.81063  -0.74580  -0.60096  -0.57718
   1 1   C  1S         -0.03323  -0.16702   0.04020   0.09090   0.06823
   2        2S          0.03377   0.17954  -0.04538  -0.09277  -0.06497
   3        2PX         0.01713   0.04042   0.07283   0.13083  -0.07612
   4        2PY        -0.03609  -0.07616   0.08640   0.03224  -0.15470
   5        2PZ        -0.00079  -0.00556   0.00159   0.00530   0.00132
   6        3S          0.06306   0.33417  -0.06095  -0.33184  -0.25146
   7        3PX         0.02833   0.03007  -0.00106   0.03311  -0.04123
   8        3PY        -0.04148  -0.02552  -0.01522   0.04381  -0.03287
   9        3PZ         0.00003  -0.00365   0.00003   0.00431   0.00191
  10 2   C  1S         -0.06906  -0.09641   0.12804  -0.00971  -0.11404
  11        2S          0.08025   0.11040  -0.13582   0.00194   0.12402
  12        2PX         0.07502   0.00312  -0.01371   0.07719  -0.11284
  13        2PY        -0.00726   0.14199  -0.00037  -0.19207  -0.05235
  14        2PZ         0.00217   0.00192  -0.00349   0.00113  -0.00071
  15        3S          0.05561   0.16190  -0.33711   0.10439   0.37283
  16        3PX        -0.02955   0.00247  -0.01923   0.06243  -0.05799
  17        3PY        -0.02626   0.04033  -0.03204  -0.03543  -0.00189
  18        3PZ        -0.00111   0.00106  -0.00193   0.00178  -0.00022
  19 3   O  1S         -0.20824   0.09056   0.02914  -0.01073   0.05384
  20        2S          0.19023  -0.08738  -0.02733   0.00959  -0.05317
  21        2PX        -0.00303  -0.04278   0.15826  -0.23630  -0.04434
  22        2PY         0.10652   0.00849   0.03404  -0.02411  -0.00898
  23        2PZ        -0.00470   0.00157  -0.00023   0.00075  -0.00132
  24        3S          0.65832  -0.32075  -0.10691   0.04608  -0.22877
  25        3PX        -0.00854  -0.03318   0.13094  -0.20634  -0.03784
  26        3PY         0.13498  -0.00630   0.02191  -0.01857  -0.01387
  27        3PZ        -0.00615   0.00143   0.00006   0.00050  -0.00146
  28 4   C  1S         -0.07950  -0.01497  -0.14971   0.05456  -0.10061
  29        2S          0.08959   0.02069   0.16318  -0.05611   0.11258
  30        2PX        -0.07767  -0.01839  -0.01989  -0.06357   0.14220
  31        2PY        -0.04728   0.10742   0.04141   0.20378   0.05385
  32        2PZ         0.00299  -0.00091   0.00396  -0.00293  -0.00099
  33        3S          0.07857  -0.00276   0.35091  -0.20980   0.29591
  34        3PX         0.03491  -0.00636  -0.02636  -0.00826   0.07894
  35        3PY        -0.00421   0.02122   0.03874   0.06036   0.03014
  36        3PZ        -0.00001  -0.00043   0.00145  -0.00163   0.00035
  37 5   C  1S         -0.03055  -0.11610  -0.11664  -0.11003   0.02570
  38        2S          0.03016   0.12381   0.12474   0.11197  -0.02551
  39        2PX        -0.00430  -0.05752   0.06075   0.06760   0.15919
  40        2PY        -0.03689  -0.04618  -0.06364   0.01830  -0.06700
  41        2PZ         0.00048   0.00177   0.00204   0.00451  -0.00325
  42        3S          0.05251   0.23013   0.25017   0.37447  -0.07249
  43        3PX        -0.01972  -0.00618  -0.01514   0.01609   0.06238
  44        3PY        -0.03444  -0.03134  -0.00883  -0.03798  -0.02666
  45        3PZ        -0.00088   0.00135   0.00217   0.00267  -0.00213
  46 6   H  1S          0.00826   0.04634   0.06616   0.11175  -0.01018
  47        2S          0.01109   0.00898   0.01761   0.06454  -0.00483
  48 7   H  1S          0.01905  -0.00460   0.09224  -0.10877   0.15179
  49        2S         -0.02060  -0.00280   0.03211  -0.06245   0.07127
  50 8   H  1S          0.01416   0.03031  -0.07788   0.03732   0.15804
  51        2S         -0.01991   0.00245  -0.03019   0.03871   0.08265
  52 9   H  1S          0.00951   0.07461  -0.02119  -0.10567  -0.09078
  53        2S          0.01619   0.01189  -0.00051  -0.05402  -0.05573
                          11        12        13        14        15
                           O         O         O         O         O
     Eigenvalues --    -0.54522  -0.44290  -0.43365  -0.42750  -0.40220
   1 1   C  1S         -0.03262  -0.02840   0.01526  -0.00863  -0.00311
   2        2S          0.02901   0.03342  -0.01441   0.00617   0.00411
   3        2PX        -0.10653   0.06362  -0.03699   0.00625   0.33601
   4        2PY         0.22395  -0.08341  -0.20184   0.15994   0.00428
   5        2PZ         0.00048   0.02093   0.08557   0.11404   0.00557
   6        3S          0.16569   0.07582  -0.05706   0.04226   0.03305
   7        3PX        -0.07981   0.03528   0.00138  -0.00339   0.23920
   8        3PY         0.11684  -0.01902  -0.11348   0.07485  -0.02331
   9        3PZ        -0.00208   0.01500   0.06272   0.08437   0.00466
  10 2   C  1S          0.00526   0.00931  -0.02633   0.02049  -0.01680
  11        2S         -0.00924  -0.00900   0.03451  -0.02641   0.01714
  12        2PX        -0.12821   0.25208  -0.05132  -0.01461  -0.08256
  13        2PY        -0.15029   0.11100   0.17707  -0.14719  -0.10268
  14        2PZ        -0.00299   0.03677   0.11510   0.15375  -0.00115
  15        3S          0.01695  -0.01816   0.06710  -0.06386   0.04200
  16        3PX        -0.07944   0.18542  -0.04059  -0.01565  -0.07353
  17        3PY        -0.12110   0.06221   0.09253  -0.08240  -0.08344
  18        3PZ        -0.00084   0.03212   0.10691   0.14748  -0.00009
  19 3   O  1S         -0.04753  -0.01273  -0.01571   0.01086   0.01846
  20        2S          0.04659   0.01196   0.01498  -0.01038  -0.01374
  21        2PX        -0.00332  -0.22323   0.15589  -0.07679   0.10084
  22        2PY        -0.15250  -0.09142   0.00574   0.02041  -0.05080
  23        2PZ         0.00270   0.05093   0.20396   0.28364   0.00730
  24        3S          0.18320   0.04730   0.07062  -0.04757  -0.09746
  25        3PX        -0.00280  -0.20735   0.15288  -0.07892   0.09975
  26        3PY        -0.13880  -0.08602   0.00581   0.01981  -0.05350
  27        3PZ         0.00289   0.05096   0.20594   0.28733   0.00826
  28 4   C  1S          0.01144   0.00511   0.04031  -0.03004   0.01951
  29        2S         -0.01467  -0.00841  -0.04611   0.03472  -0.02295
  30        2PX         0.14667   0.30107  -0.04296  -0.01983   0.07547
  31        2PY        -0.05023  -0.02155  -0.09095   0.08584  -0.18950
  32        2PZ         0.00127   0.02218   0.11792   0.15378   0.00815
  33        3S         -0.01696  -0.02694  -0.13145   0.10557  -0.08159
  34        3PX         0.10820   0.20644  -0.02314  -0.01861   0.06180
  35        3PY        -0.07125  -0.03741  -0.06339   0.06394  -0.14526
  36        3PZ         0.00080   0.02278   0.11089   0.14971   0.00708
  37 5   C  1S         -0.04276   0.01865  -0.02231   0.01570  -0.02907
  38        2S          0.03937  -0.02376   0.02068  -0.01361   0.02989
  39        2PX         0.03490  -0.03582   0.10159  -0.05774  -0.31700
  40        2PY         0.19908   0.08674   0.19216  -0.16913   0.05499
  41        2PZ         0.00711   0.01898   0.08547   0.09357   0.00979
  42        3S          0.18819  -0.03243   0.08992  -0.07432   0.11649
  43        3PX         0.04223  -0.00238   0.09086  -0.05793  -0.18467
  44        3PY         0.10470   0.02286   0.12794  -0.09990   0.00752
  45        3PZ         0.00534   0.01281   0.06406   0.07166   0.00547
  46 6   H  1S          0.13342   0.01698   0.17484  -0.13447  -0.04133
  47        2S          0.07106   0.02475   0.13335  -0.11167  -0.03297
  48 7   H  1S          0.06861   0.19156  -0.06201   0.01072   0.07843
  49        2S          0.02413   0.14412  -0.04758   0.00660   0.06607
  50 8   H  1S          0.09273  -0.18471  -0.01721   0.04374   0.12666
  51        2S          0.04509  -0.14291  -0.02419   0.04053   0.10775
  52 9   H  1S          0.15427  -0.03483  -0.10597   0.08794  -0.16196
  53        2S          0.08002  -0.04316  -0.07958   0.07804  -0.13146
                          16        17        18        19        20
                           O         O         O         V         V
     Eigenvalues --    -0.35249  -0.27887  -0.23520   0.01976   0.08596
   1 1   C  1S          0.02337   0.00550  -0.00050   0.00159  -0.00521
   2        2S         -0.02442  -0.00716   0.00061  -0.00176   0.00072
   3        2PX        -0.02495   0.00061   0.00120  -0.00326  -0.00789
   4        2PY         0.11165   0.00414   0.00061  -0.00519   0.00730
   5        2PZ         0.01293  -0.32329  -0.09588  -0.13325   0.35758
   6        3S         -0.18394  -0.01986   0.01030   0.01291   0.06469
   7        3PX         0.03329   0.01341  -0.00219   0.00167  -0.00602
   8        3PY         0.09633   0.00139  -0.00554  -0.02172   0.03123
   9        3PZ         0.01511  -0.33090  -0.08799  -0.24991   0.73797
  10 2   C  1S         -0.02260  -0.00259  -0.00106   0.00119  -0.00437
  11        2S          0.02584   0.00279   0.00191   0.00193   0.00143
  12        2PX         0.10168   0.00580   0.00874  -0.00598   0.00543
  13        2PY        -0.12633   0.00112   0.00397  -0.00158  -0.00379
  14        2PZ         0.00392  -0.17796  -0.28217   0.28686  -0.25353
  15        3S          0.13132   0.01029  -0.00366  -0.03097   0.06162
  16        3PX         0.05169   0.00007   0.00727  -0.01999   0.01059
  17        3PY         0.05270   0.00713  -0.00563  -0.02017   0.00600
  18        3PZ         0.00155  -0.11936  -0.31357   0.43237  -0.53094
  19 3   O  1S          0.06702  -0.00032  -0.00055  -0.00047  -0.00302
  20        2S         -0.06844   0.00001   0.00059   0.00099   0.00253
  21        2PX        -0.07674  -0.00244  -0.00260   0.00016   0.01221
  22        2PY         0.43297   0.02486  -0.01364   0.00070   0.01038
  23        2PZ        -0.01727   0.32389  -0.11143  -0.27634   0.02264
  24        3S         -0.24944   0.00436   0.00122   0.00206   0.02106
  25        3PX        -0.08309  -0.00345  -0.00435  -0.00069   0.02145
  26        3PY         0.46788   0.02729  -0.01541   0.00041   0.01472
  27        3PZ        -0.01992   0.36205  -0.13094  -0.38178   0.03081
  28 4   C  1S         -0.01153   0.00211   0.00201   0.00385   0.00507
  29        2S          0.01638  -0.00302  -0.00192  -0.00237  -0.00692
  30        2PX        -0.00175   0.00562   0.00443   0.00155   0.01438
  31        2PY        -0.19326  -0.00641   0.01299   0.00263   0.01177
  32        2PZ         0.00930   0.05211   0.31548   0.35007   0.18187
  33        3S          0.05133  -0.00273  -0.01282  -0.02091  -0.01625
  34        3PX        -0.01291   0.00031   0.00307  -0.00987   0.00715
  35        3PY         0.00379   0.00522   0.00607   0.01351   0.03420
  36        3PZ         0.00507   0.09324   0.31881   0.53262   0.35557
  37 5   C  1S          0.02924  -0.00110   0.00322  -0.00675  -0.00497
  38        2S         -0.02890   0.00203  -0.00290   0.00789   0.00302
  39        2PX        -0.01457  -0.00264   0.00480  -0.00285   0.01171
  40        2PY         0.18721   0.01712  -0.01783   0.00487   0.02103
  41        2PZ         0.01888  -0.19229   0.28496  -0.21096  -0.30771
  42        3S         -0.18447  -0.01139  -0.01323   0.03240   0.03868
  43        3PX        -0.05854  -0.00004   0.00570   0.00530   0.03247
  44        3PY         0.13347   0.01763  -0.01778   0.03491   0.06382
  45        3PZ         0.01454  -0.20182   0.31205  -0.36222  -0.61969
  46 6   H  1S          0.09166   0.00477  -0.00089  -0.00919  -0.01846
  47        2S          0.12050   0.00711  -0.00292  -0.03702  -0.08447
  48 7   H  1S          0.06563   0.00456   0.00204   0.00594   0.00078
  49        2S          0.06682   0.00749   0.00276   0.02032   0.00518
  50 8   H  1S          0.02820   0.00141  -0.00357  -0.00003  -0.00391
  51        2S          0.03200   0.00046  -0.00578  -0.00828  -0.03034
  52 9   H  1S          0.05546   0.00139   0.00385   0.00014  -0.01337
  53        2S          0.08519   0.00577   0.00388   0.00371  -0.05789
                          21        22        23        24        25
                           V         V         V         V         V
     Eigenvalues --     0.12959   0.15374   0.17016   0.19929   0.20972
   1 1   C  1S          0.01115  -0.00448   0.07325  -0.07564   0.07734
   2        2S         -0.00447   0.02471  -0.06436   0.06761  -0.02532
   3        2PX         0.12063   0.01992  -0.07319  -0.03237  -0.01053
   4        2PY        -0.09941  -0.06180  -0.03228   0.13115  -0.14451
   5        2PZ         0.01499   0.00896   0.01477  -0.00176   0.01811
   6        3S         -0.17997  -0.32266  -0.54025   0.72710  -1.37187
   7        3PX         0.43848  -0.13625  -0.11671  -0.47688  -0.29866
   8        3PY        -0.30657  -0.04446  -0.45624   0.70440  -0.58132
   9        3PZ         0.03994   0.03085   0.03441   0.00646   0.06740
  10 2   C  1S         -0.02106   0.12568  -0.04149   0.01133   0.05423
  11        2S          0.02826  -0.09698   0.02867  -0.02851  -0.04419
  12        2PX         0.30917  -0.02965  -0.15221  -0.13008  -0.08179
  13        2PY        -0.07428   0.19474  -0.09388  -0.05224   0.13684
  14        2PZ         0.00262  -0.00882  -0.00823  -0.00210  -0.01174
  15        3S         -0.15151  -1.21646   0.38307   0.31601  -0.65222
  16        3PX         0.60643   0.19055  -0.63938  -0.09356  -0.17622
  17        3PY        -0.20169   0.66443  -0.48506  -0.07041   0.29192
  18        3PZ        -0.00483  -0.01486  -0.03280   0.00407  -0.04457
  19 3   O  1S          0.07708  -0.07156   0.03151  -0.00328   0.00687
  20        2S         -0.05354   0.05016  -0.02030  -0.00167  -0.00840
  21        2PX         0.14816  -0.09209  -0.08121  -0.06758  -0.25331
  22        2PY        -0.14859   0.09182  -0.07608  -0.01907  -0.07658
  23        2PZ         0.00523  -0.00540   0.00684  -0.00258   0.00094
  24        3S         -0.62169   0.58562  -0.27682   0.05961  -0.03912
  25        3PX         0.25232  -0.13996  -0.16766  -0.05565  -0.50064
  26        3PY        -0.26343   0.13301  -0.14941   0.00263  -0.11679
  27        3PZ         0.00923  -0.01098   0.01330  -0.00839   0.00016
  28 4   C  1S         -0.00007   0.08232   0.03648  -0.04418  -0.11820
  29        2S          0.00358  -0.05766  -0.02466   0.04410   0.08044
  30        2PX        -0.06542  -0.06601  -0.27456  -0.04468   0.04536
  31        2PY        -0.07419   0.10495  -0.05988   0.00871  -0.12641
  32        2PZ         0.01359  -0.00441   0.00293   0.01078   0.01661
  33        3S         -0.14600  -0.91869  -0.62931   0.24285   1.52711
  34        3PX         0.00654  -0.34331  -0.92947   0.22930   0.31465
  35        3PY        -0.30080   0.42168  -0.08790   0.10306  -0.24973
  36        3PZ         0.03597  -0.00816   0.00510   0.03557   0.04862
  37 5   C  1S          0.06556   0.00854  -0.04322   0.10946  -0.00507
  38        2S         -0.04507   0.00336   0.04076  -0.08094  -0.01715
  39        2PX         0.08189  -0.04684  -0.08681  -0.11051  -0.18370
  40        2PY        -0.12749  -0.07541  -0.11720  -0.16813   0.02049
  41        2PZ        -0.02602  -0.00968  -0.00895  -0.02584  -0.01507
  42        3S         -0.66419  -0.25870   0.22547  -1.26412   0.22691
  43        3PX         0.20024  -0.21389  -0.33228  -0.56304  -0.99816
  44        3PY        -0.40305  -0.18480  -0.09410  -0.96796   0.02237
  45        3PZ        -0.07760  -0.01984  -0.02007  -0.08126  -0.04264
  46 6   H  1S          0.07965   0.01861   0.03488   0.05114   0.01882
  47        2S          0.77834   0.43115   0.30155   1.83966   0.44722
  48 7   H  1S         -0.02921   0.07833   0.07361  -0.02058   0.01818
  49        2S         -0.05001   1.10606   1.33622  -0.29001  -1.19712
  50 8   H  1S          0.04660   0.08036  -0.07425  -0.00143  -0.03673
  51        2S          0.50786   1.34351  -1.13833  -0.31735   0.37065
  52 9   H  1S          0.11501  -0.01156   0.01348  -0.03917  -0.03898
  53        2S          0.92760   0.08078   0.54099  -1.30301   0.84097
                          26        27        28        29        30
                           V         V         V         V         V
     Eigenvalues --     0.22293   0.35814   0.42379   0.47940   0.66177
   1 1   C  1S          0.05726  -0.05135  -0.01526  -0.13344   0.03107
   2        2S         -0.03734   0.00994   0.02316   0.02576   0.10910
   3        2PX         0.23375   0.14531   0.22890   0.10797  -0.42655
   4        2PY        -0.02661  -0.00738   0.13769  -0.22049  -0.40253
   5        2PZ         0.00393   0.00568   0.00507   0.01321  -0.02792
   6        3S         -1.02447   1.07738  -0.31705   4.09747  -0.23612
   7        3PX         1.06235   0.12135   1.72310   1.40123   0.21199
   8        3PY        -0.11721  -1.05345   1.61024  -2.61029   0.70089
   9        3PZ         0.03102   0.00056   0.01493  -0.07263   0.02881
  10 2   C  1S         -0.05809   0.05960  -0.02443   0.10688   0.01896
  11        2S          0.03948  -0.01684  -0.00587   0.00257   0.11617
  12        2PX        -0.14114  -0.10868  -0.15064  -0.27255  -0.36893
  13        2PY         0.01807  -0.16220   0.20139   0.05667   0.41863
  14        2PZ         0.00231  -0.00813  -0.00106  -0.00430  -0.01688
  15        3S          0.90577  -1.25690   1.42840  -2.98452   0.40901
  16        3PX        -0.66167  -0.70034  -0.51283  -1.11206   0.47264
  17        3PY         0.22973  -0.80282   1.54186  -2.65028  -0.48803
  18        3PZ        -0.00466  -0.04600   0.02829  -0.07271   0.01342
  19 3   O  1S         -0.07629  -0.04350   0.01150  -0.00104  -0.01788
  20        2S          0.03579   0.01967   0.00041   0.00239   0.07656
  21        2PX         0.13817  -0.06426  -0.25365  -0.12577  -0.04721
  22        2PY         0.07903   0.13033  -0.06747   0.01019   0.17312
  23        2PZ        -0.01035  -0.00151  -0.00368   0.00035  -0.00263
[...]
     1  C    5.251727   0.431520  -0.077025  -0.113037   0.442352  -0.023959
     2  C    0.431520   5.109832   0.294877  -0.143349  -0.132386   0.005399
     3  O   -0.077025   0.294877   8.100717   0.288117  -0.085058   0.002279
     4  C   -0.113037  -0.143349   0.288117   5.067653   0.452956  -0.035249
     5  C    0.442352  -0.132386  -0.085058   0.452956   5.254517   0.381452
     6  H   -0.023959   0.005399   0.002279  -0.035249   0.381452   0.484660
     7  H    0.002258   0.004167  -0.030105   0.389813  -0.034338  -0.000143
     8  H   -0.040880   0.390359  -0.024589   0.003014   0.003230  -0.000030
     9  H    0.385445  -0.032609   0.002515   0.005654  -0.030577  -0.000932
               7          8          9
     1  C    0.002258  -0.040880   0.385445
     2  C    0.004167   0.390359  -0.032609
     3  O   -0.030105  -0.024589   0.002515
     4  C    0.389813   0.003014   0.005654
     5  C   -0.034338   0.003230  -0.030577
     6  H   -0.000143  -0.000030  -0.000932
     7  H    0.445973  -0.000055  -0.000022
     8  H   -0.000055   0.450327  -0.000907
     9  H   -0.000022  -0.000907   0.474278
 Mulliken charges:
               1
     1  C   -0.258401
     2  C    0.072189
     3  O   -0.471729
     4  C    0.084427
     5  C   -0.252149
     6  H    0.186523
     7  H    0.222453
     8  H    0.219531
     9  H    0.197156
 Sum of Mulliken charges =   0.00000
 Mulliken charges with hydrogens summed into heavy atoms:
               1
     1  C   -0.061245
     2  C    0.291720
     3  O   -0.471729
     4  C    0.306881
     5  C   -0.065626
 Electronic spatial extent (au):  <R**2>=            290.2928
 Charge=              0.0000 electrons
 Dipole moment (field-independent basis, Debye):
    X=             -0.1669    Y=              0.7957    Z=             -0.0043  Tot=              0.8130
 Quadrupole moment (field-independent basis, Debye-Ang):
   XX=            -23.2943   YY=            -28.0528   ZZ=            -31.5997
   XY=              0.6473   XZ=              0.1645   YZ=              0.1791
 Traceless Quadrupole moment (field-independent basis, Debye-Ang):
   XX=              4.3546   YY=             -0.4039   ZZ=             -3.9507
   XY=              0.6473   XZ=              0.1645   YZ=              0.1791
 Octapole moment (field-independent basis, Debye-Ang**2):
  XXX=              2.5123  YYY=              1.4176  ZZZ=              0.2239  XYY=             -1.8605
  XXY=             -4.2672  XXZ=             -0.0229  XZZ=              0.4179  YZZ=             -3.2254
  YYZ=              0.2143  XYZ=              0.1515
 Hexadecapole moment (field-independent basis, Debye-Ang**3):
 XXXX=           -158.8406 YYYY=           -153.9493 ZZZZ=            -30.5739 XXXY=             -2.1887
 XXXZ=              0.6082 YYYX=              3.3245 YYYZ=              0.5963 ZZZX=              0.2348
 ZZZY=             -0.0235 XXYY=            -46.0247 XXZZ=            -39.2016 YYZZ=            -33.7113
 XXYZ=              0.1265 YYXZ=              0.4987 ZZXY=             -0.8763
 N-N= 1.605862830028D+02 E-N=-8.540409347816D+02  KE= 2.270835513654D+02
 Orbital energies and kinetic energies (alpha):
                                 1                 2
   1         O               -19.095593         28.830056
   2         O               -10.172819         15.800922
   3         O               -10.169405         15.798000
   4         O               -10.123388         15.806046
   5         O               -10.118538         15.801336
   6         O                -1.091404          2.459264
   7         O                -0.810627          1.866436
   8         O                -0.745799          1.746670
   9         O                -0.600960          1.609408
  10         O                -0.577178          1.460379
  11         O                -0.545216          1.234949
  12         O                -0.442903          1.516418
  13         O                -0.433652          1.489528
  14         O                -0.427505          1.484827
  15         O                -0.402200          1.424262
  16         O                -0.352495          2.337718
  17         O                -0.278872          1.617941
  18         O                -0.235201          1.257616
  19         V                 0.019758          1.790807
  20         V                 0.085955          1.490651
  21         V                 0.129590          1.709319
  22         V                 0.153743          1.568903
  23         V                 0.170158          1.319551
  24         V                 0.199289          1.232677
  25         V                 0.209722          1.820912
  26         V                 0.222931          1.665200
  27         V                 0.358139          1.887116
  28         V                 0.423790          2.037984
  29         V                 0.479404          2.332199
  30         V                 0.661770          2.511005
  31         V                 0.698314          2.494185
  32         V                 0.705914          2.700243
  33         V                 0.765455          2.632974
  34         V                 0.766789          2.496462
  35         V                 0.794490          2.603649
  36         V                 0.807716          2.466224
  37         V                 0.827169          2.700499
  38         V                 0.841280          2.612361
  39         V                 0.926332          2.722079
  40         V                 1.013607          3.287683
  41         V                 1.031154          3.145053
  42         V                 1.072279          3.351866
  43         V                 1.178215          2.791763
  44         V                 1.244070          2.890540
  45         V                 1.314334          2.547068
  46         V                 1.361895          2.967403
  47         V                 1.508223          4.949007
  48         V                 1.561288          3.330395
  49         V                 1.656480          3.986578
  50         V                 1.756190          4.246153
  51         V                 1.969992          4.197608
  52         V                 2.167221          4.247234
  53         V                 3.124087          6.797530
 Total kinetic energy from orbitals= 2.270835513654D+02
 No NMR shielding tensors so no spin-rotation constants.
 Leave Link  601 at Fri Dec 11 13:18:54 2015, MaxMem=    33554432 cpu:         0.1
 (Enter /home/Applications/g09/g09/l701.exe)
 Compute integral first derivatives.
 ... and contract with generalized density number  6.
 Leave Link  701 at Fri Dec 11 13:18:54 2015, MaxMem=    33554432 cpu:         0.1
 (Enter /home/Applications/g09/g09/l702.exe)
 L702 exits ... SP integral derivatives will be done elsewhere.
 Leave Link  702 at Fri Dec 11 13:18:54 2015, MaxMem=    33554432 cpu:         0.0
 (Enter /home/Applications/g09/g09/l703.exe)
 Compute integral first derivatives, UseDBF=F ICtDFT=           0.
 Integral derivatives from FoFJK, PRISM(SPDF).
 Calling FoFJK, ICntrl=  10005127 FMM=F ISym2X=0 I1Cent= 0 IOpClX= 0 NMat=1 NMatS=1 NMatT=0.
 FoFJK:  IHMeth= 1 ICntrl=10005127 DoSepK=F KAlg= 0 I1Cent=   0 FoldK=F
 IRaf=         0 NMat=   1 IRICut=       1 DoRegI=T DoRafI=F ISym2E= 0.
 FoFCou: FMM=F IPFlag=           0 FMFlag=      100000 FMFlg1=         800
         NFxFlg=           0 DoJE=F BraDBF=F KetDBF=F FulRan=T
         wScrn=  0.000000 ICntrl=10005127 IOpCl=  0 I1Cent=           0 NGrid=           0
         NMat0=    1 NMatS0=      1 NMatT0=    0 NMatD0=    1 NMtDS0=    0 NMtDT0=    0
 Symmetry not used in FoFCou.
 Leave Link  703 at Fri Dec 11 13:18:55 2015, MaxMem=    33554432 cpu:         1.5
 (Enter /home/Applications/g09/g09/l716.exe)
 Dipole        = 6.21262496D-01 4.86702708D-01 6.13418966D-03
 ***** Axes restored to original set *****
 -------------------------------------------------------------------
 Center     Atomic                   Forces (Hartrees/Bohr)
 Number     Number              X              Y              Z
 -------------------------------------------------------------------
      1        6           0.145219491    0.062422749   -0.002478518
      2        6          -0.123198387   -0.083636037    0.004186853
      3        8          -0.058463231    0.043827538   -0.004616186
      4        6          -0.043221359   -0.013280782    0.004113340
      5        6           0.026852953   -0.018319800   -0.001402557
      6        1           0.021417042    0.005112311    0.000045217
      7        1          -0.008818767    0.035113378   -0.001287576
      8        1           0.004579683   -0.003084794    0.000772454
      9        1           0.035632574   -0.028154563    0.000666973
 -------------------------------------------------------------------
 Cartesian Forces:  Max     0.145219491 RMS     0.046964548
 Z-matrix is all fixed cartesians, so copy forces.
 Force constants in Cartesian coordinates: 
                1             2             3             4             5 
      1  0.118573D+01
      2  0.152022D-01  0.824555D+00
      3  0.532513D-02 -0.123950D-02  0.262267D+00
      4 -0.705710D+00 -0.162700D+00  0.715361D-02  0.109430D+01
      5 -0.139111D+00 -0.259675D+00  0.353426D-02  0.151639D+00  0.819776D+00
      6  0.919951D-02  0.203767D-02 -0.154821D+00  0.147185D-02 -0.115973D-01
      7 -0.884232D-02  0.292848D-01 -0.126070D-02 -0.226564D+00  0.109353D+00
      8 -0.649627D-02  0.215183D-01 -0.549861D-03  0.151879D+00 -0.281742D+00
      9  0.534674D-03 -0.131602D-02  0.352325D-02 -0.914280D-02  0.796361D-02
     10  0.112245D-01 -0.493797D-03  0.538074D-04  0.223608D-01  0.165328D-01
     11  0.331349D-01 -0.147034D-02 -0.159073D-03 -0.171411D-01 -0.126779D-01
     12  0.136003D-02 -0.174632D-03  0.529236D-05  0.119812D-02  0.100743D-02
     13 -0.166831D+00  0.295976D-03  0.549180D-03  0.109025D-01 -0.362449D-01
     14 -0.215458D-01 -0.382098D+00 -0.953702D-02 -0.486231D-03  0.158892D-02
     15  0.762719D-03 -0.963002D-02 -0.788414D-01 -0.127384D-03  0.104899D-02
     16  0.184708D-01 -0.811200D-03 -0.481179D-03  0.663596D-05 -0.879064D-05
     17 -0.225254D-01  0.958443D-03  0.194006D-02 -0.201427D-05  0.266830D-05
     18 -0.205681D-02 -0.296101D-03  0.170173D-01  0.754565D-04 -0.999571D-04
     19  0.000000D+00  0.000000D+00  0.433274D-04  0.150387D-04  0.194614D-05
     20 -0.180004D-05 -0.399720D-05  0.178987D-03  0.283964D-05  0.000000D+00
     21 -0.699872D-04 -0.155415D-03  0.695920D-02 -0.259333D-03 -0.335600D-04
     22  0.800184D-02 -0.265412D-01  0.154962D-03 -0.189790D+00 -0.120419D+00
     23 -0.507630D-02  0.168429D-01  0.520776D-04 -0.114951D+00 -0.294628D+00
     24 -0.230332D-03  0.254507D-02  0.502210D-01 -0.116723D-02 -0.756856D-03
     25 -0.342047D+00  0.145765D+00 -0.115381D-01 -0.552130D-02  0.182569D-01
     26  0.146420D+00 -0.220627D+00  0.578007D-02 -0.823981D-02  0.273547D-01
     27 -0.148249D-01  0.822895D-02 -0.106330D+00  0.797703D-03 -0.106663D-02
                6             7             8             9            10 
      6  0.258687D+00
      7 -0.841371D-02  0.481622D+00
      8  0.904703D-02  0.482482D-01  0.604985D+00
      9 -0.439128D-01  0.242837D-01  0.699540D-02  0.490086D-01
     10  0.165380D-02 -0.278112D+00 -0.198709D+00 -0.165166D-01  0.908095D+00
     11 -0.123492D-02 -0.159095D+00 -0.347286D+00 -0.146673D-01 -0.616699D-01
     12 -0.165436D-02 -0.148174D-01 -0.157048D-01 -0.405168D-01  0.193748D-01
     13 -0.175315D-02 -0.938325D-02  0.717371D-02 -0.330894D-03 -0.459664D+00
     14  0.226450D-03 -0.277044D-01  0.211920D-01 -0.466896D-03  0.108118D+00
     15 -0.378446D-02 -0.180604D-02  0.571641D-03  0.520649D-02  0.139526D-02
     16  0.372927D-03 -0.166076D-05 -0.417680D-05  0.985880D-04 -0.630391D-02
     17 -0.113198D-03 -0.560210D-05 -0.140893D-04  0.332559D-03  0.763252D-02
     18  0.424050D-02 -0.954286D-04 -0.240003D-03  0.566495D-02  0.102422D-04
     19 -0.243155D-03  0.216316D-01 -0.165709D-01  0.974808D-03 -0.197606D+00
     20 -0.459129D-04  0.123816D-01 -0.949122D-02  0.671868D-03  0.128592D+00
     21  0.419304D-02  0.132039D-02 -0.129531D-02  0.519853D-02 -0.579524D-02
     22 -0.582366D-03  0.196505D-01  0.144823D-01  0.167155D-03  0.356383D-05
     23  0.115840D-02 -0.124621D-01 -0.918375D-02 -0.879504D-04 -0.268381D-05
     24 -0.107497D+00  0.794268D-03  0.811864D-03  0.603732D-02 -0.141359D-03
     25 -0.170571D-02  0.000000D+00 -0.255039D-05 -0.686010D-04  0.206342D-05
     26  0.521760D-03  0.000000D+00  0.213686D-04  0.574778D-03  0.000000D+00
     27  0.445496D-01 -0.506243D-05  0.363984D-03  0.979051D-02 -0.346888D-04
               11            12            13            14            15 
     11  0.899842D+00
     12  0.100916D-01  0.194554D+00
     13  0.866803D-01 -0.412515D-02  0.878606D+00
     14 -0.216108D+00  0.240694D-03  0.509041D-01  0.792990D+00
     15 -0.109770D-02 -0.999731D-01 -0.129884D-01 -0.167133D-02  0.195874D+00
     16 -0.185895D-01  0.189635D-02 -0.279016D+00 -0.134420D+00  0.133345D-01
     17  0.225218D-01 -0.336766D-03 -0.138914D+00 -0.231213D+00  0.923207D-02
     18  0.210630D-03  0.245573D-01  0.163107D-01  0.111621D-01 -0.767450D-01
     19  0.136676D+00 -0.462394D-02  0.877224D-02  0.258812D-01 -0.892171D-03
     20 -0.344823D+00  0.490245D-02  0.501329D-02  0.147960D-01  0.172492D-03
     21  0.695211D-02 -0.827076D-01  0.183713D-03  0.768184D-03  0.307679D-01
     22  0.000000D+00 -0.576221D-04  0.236797D-05 -0.313685D-05  0.133075D-03
     23  0.000000D+00  0.433935D-04  0.000000D+00  0.121350D-05 -0.514806D-04
     24 -0.182932D-04  0.228558D-02  0.195700D-03 -0.259244D-03  0.109980D-01
     25  0.458208D-05 -0.205177D-03  0.166119D-01 -0.743712D-03  0.188471D-03
     26  0.155080D-05 -0.694419D-04  0.250928D-01 -0.114939D-02  0.142535D-02
     27 -0.770305D-04  0.344929D-02  0.195828D-02 -0.462977D-03  0.164975D-01
               16            17            18            19            20 
     16  0.266815D+00
     17  0.153828D+00  0.207764D+00
     18 -0.145225D-01 -0.105760D-01  0.418698D-01
     19 -0.116981D-05 -0.394602D-05 -0.672183D-04  0.167189D+00
     20 -0.483254D-05 -0.163012D-04 -0.277682D-03 -0.145983D+00  0.339538D+00
     21 -0.187894D-03 -0.633806D-03 -0.107965D-01  0.480835D-02 -0.560221D-02
     22  0.000000D+00  0.000000D+00  0.000000D+00  0.000000D+00  0.000000D+00
     23  0.000000D+00  0.000000D+00  0.000000D+00  0.000000D+00  0.000000D+00
     24  0.000000D+00  0.000000D+00  0.000000D+00  0.000000D+00  0.000000D+00
     25  0.303847D-04 -0.922295D-05  0.345501D-03  0.000000D+00  0.000000D+00
     26  0.102837D-04 -0.312149D-05  0.116934D-03  0.000000D+00  0.000000D+00
     27 -0.510806D-03  0.155050D-03 -0.580830D-02  0.000000D+00  0.000000D+00
               21            22            23            24            25 
     21  0.463855D-01
     22  0.000000D+00  0.162130D+00
     23  0.000000D+00  0.132494D+00  0.286963D+00
     24  0.000000D+00  0.415407D-03 -0.120365D-02  0.570138D-01
     25  0.000000D+00  0.161586D-05  0.000000D+00  0.133542D-03  0.330923D+00
     26  0.000000D+00 -0.135386D-04  0.523745D-05 -0.111889D-02 -0.163270D+00
     27  0.000000D+00 -0.230610D-03  0.892123D-04 -0.190587D-01  0.128501D-01
               26            27 
     26  0.194397D+00
     27 -0.723056D-02  0.569103D-01
 Leave Link  716 at Fri Dec 11 13:18:55 2015, MaxMem=    33554432 cpu:         0.0
 (Enter /home/Applications/g09/g09/l103.exe)

 GradGradGradGradGradGradGradGradGradGradGradGradGradGradGradGradGradGrad
 Berny optimization.
 Search for a local minimum.
 Step number   1 out of a maximum of    2
 All quantities printed in internal units (Hartrees-Bohrs-Radians)
 Second derivative matrix not updated -- first step.
 ITU=  0
     Eigenvalues ---    0.01975   0.02867   0.07425   0.07563   0.08266
     Eigenvalues ---    0.08629   0.13357   0.14112   0.16513   0.22895
     Eigenvalues ---    0.27656   0.32843   0.45621   0.48296   0.65836
     Eigenvalues ---    0.88113   1.00207   1.32653   1.37807   1.53062
     Eigenvalues ---    2.00355
 Quadratic step=4.585D-01 exceeds max=3.000D-01 adjusted using Lamda=-1.336D-01.
 Angle between NR and scaled steps=  11.93 degrees.
 Angle between quadratic step and forces=  41.20 degrees.
 Linear search not attempted -- first point.
 TrRot= -0.016165  0.002389 -0.000981  0.676932 -0.000350 -0.676511
 Variable       Old X    -DE/DX   Delta X   Delta X   Delta X     New X
                                 (Linear)    (Quad)   (Total)
    X1        1.73637   0.14522   0.00000   0.12868   0.11312   1.84949
    Y1       -1.43764   0.06242   0.00000   0.00398   0.00715  -1.43049
    Z1       -0.01606  -0.00248   0.00000  -0.00099  -0.00178  -0.01783
    X2       -0.56721  -0.12320   0.00000  -0.05316  -0.06841  -0.63563
    Y2       -2.13200  -0.08364   0.00000  -0.04615  -0.04402  -2.17602
    Z2        0.00857   0.00419   0.00000   0.00497   0.00334   0.01191
    X3       -2.18738  -0.05846   0.00000  -0.12926  -0.14545  -2.33282
    Y3        0.06731   0.04383   0.00000   0.04841   0.04984   0.11715
    Z3       -0.07403  -0.00462   0.00000  -0.01126  -0.01285  -0.08689
    X4       -0.60901  -0.04322   0.00000  -0.05607  -0.07314  -0.68215
    Y4        2.13442  -0.01328   0.00000   0.00248   0.00458   2.13900
    Z4        0.04013   0.00411   0.00000   0.00844   0.00775   0.04788
    X5        1.85816   0.02685   0.00000   0.04324   0.02652   1.88468
    Y5        1.29840  -0.01832   0.00000  -0.00541  -0.00223   1.29617
    Z5        0.04627  -0.00140   0.00000  -0.00357  -0.00375   0.04252
    X6        3.39015   0.02142   0.00000   0.07738   0.06015   3.45030
    Y6        2.56385   0.00511   0.00000   0.00280   0.00666   2.57052
    Z6       -0.05468   0.00005   0.00000   0.00184   0.00237  -0.05231
    X7       -1.57698  -0.00882   0.00000  -0.00627  -0.02409  -1.60107
    Y7        3.82955   0.03511   0.00000   0.09310   0.09482   3.92438
    Z7        0.00256  -0.00129   0.00000   0.00030  -0.00025   0.00231
    X8       -1.65131   0.00458   0.00000  -0.00697  -0.02150  -1.67281
    Y8       -3.84111  -0.00308   0.00000  -0.05360  -0.05191  -3.89302
    Z8        0.01369   0.00077   0.00000   0.00759   0.00530   0.01899
    X9        3.34293   0.03563   0.00000   0.14791   0.13281   3.47574
    Y9       -2.50699  -0.02815   0.00000  -0.06873  -0.06488  -2.57187
    Z9        0.05798   0.00067   0.00000   0.00047  -0.00012   0.05786
         Item               Value     Threshold  Converged?
 Maximum Force            0.145219     0.000450     NO 
 RMS     Force            0.046965     0.000300     NO 
 Maximum Displacement     0.145447     0.001800     NO 
 RMS     Displacement     0.056996     0.001200     NO 
 Predicted change in Energy=-3.358851D-02
 GradGradGradGradGradGradGradGradGradGradGradGradGradGradGradGradGradGrad

 Leave Link  103 at Fri Dec 11 13:18:55 2015, MaxMem=    33554432 cpu:         0.0
 (Enter /home/Applications/g09/g09/l9999.exe)
 1\1\GINC-DUSTIN-DESKTOP\Force\RB3LYP-FC\3-21G\C4H4O1\DUSTIN\11-Dec-201
 5\0\\#P B3LYP/3-21G CIS(Singlets,NStates=15) pop(full) force\\FuranDFT
 \\0,1\C,0.918849,-0.760767,-0.008496\C,-0.300155,-1.128205,0.004534\O,
 -1.157509,0.035618,-0.039177\C,-0.322273,1.129487,0.021236\C,0.983295,
 0.687086,0.024486\H,1.79399,1.356733,-0.028934\H,-0.834503,2.026513,0.
 001354\H,-0.873835,-2.032627,0.007242\H,1.769,-1.32664,0.030682\\Versi
 on=ES64L-G09RevD.01\State=1-A\HF=-228.7364706\RMSD=3.356e-09\RMSF=4.69
 6e-02\Dipole=0.3881753,0.6871674,0.0022583\PG=C01 [X(C4H4O1)]\\@


 THE FIRST AND LAST THING REQUIRED OF GENIUS IS THE LOVE OF TRUTH.

                          -- GOETHE
 Job cpu time:       0 days  0 hours  0 minutes 41.8 seconds.
 File lengths (MBytes):  RWF=     14 Int=      0 D2E=      0 Chk=      3 Scr=      1
 Normal termination of Gaussian 09 at Fri Dec 11 13:18:55 2015.
