 Entering Gaussian System, Link 0=g09
 Input=FuranDFT_78.com
 Output=FuranDFT_78.log
 Initial command:
 /home/Applications/g09/g09/l1.exe "/home/Applications/g09/scratch/Gau-6253.inp" -scrdir="/home/Applications/g09/scratch/"
 Entering Link 1 = /home/Applications/g09/g09/l1.exe PID=      6255.
  
 Copyright (c) 1988,1990,1992,1993,1995,1998,2003,2009,2013,
            Gaussian, Inc.  All Rights Reserved.
  
 This is part of the Gaussian(R) 09 program.  It is based on
 the Gaussian(R) 03 system (copyright 2003, Gaussian, Inc.),
 the Gaussian(R) 98 system (copyright 1998, Gaussian, Inc.),
 the Gaussian(R) 94 system (copyright 1995, Gaussian, Inc.),
 the Gaussian 92(TM) system (copyright 1992, Gaussian, Inc.),
 the Gaussian 90(TM) system (copyright 1990, Gaussian, Inc.),
 the Gaussian 88(TM) system (copyright 1988, Gaussian, Inc.),
 the Gaussian 86(TM) system (copyright 1986, Carnegie Mellon
 University), and the Gaussian 82(TM) system (copyright 1983,
 Carnegie Mellon University). Gaussian is a federally registered
 trademark of Gaussian, Inc.
  
 This software contains proprietary and confidential information,
 including trade secrets, belonging to Gaussian, Inc.
  
 This software is provided under written license and may be
 used, copied, transmitted, or stored only in accord with that
 written license.
  
 The following legend is applicable only to US Government
 contracts under FAR:
  
                    RESTRICTED RIGHTS LEGEND
  
 Use, reproduction and disclosure by the US Government is
 subject to restrictions as set forth in subparagraphs (a)
 and (c) of the Commercial Computer Software - Restricted
 Rights clause in FAR 52.227-19.
  
 Gaussian, Inc.
 340 Quinnipiac St., Bldg. 40, Wallingford CT 06492
  
  
 ---------------------------------------------------------------
 Warning -- This program may not be used in any manner that
 competes with the business of Gaussian, Inc. or will provide
 assistance to any competitor of Gaussian, Inc.  The licensee
 of this program is prohibited from giving any competitor of
 Gaussian, Inc. access to this program.  By using this program,
 the user acknowledges that Gaussian, Inc. is engaged in the
 business of creating and licensing software in the field of
 computational chemistry and represents and warrants to the
 licensee that it is not a competitor of Gaussian, Inc. and that
 it will not use this program in any manner prohibited above.
 ---------------------------------------------------------------
  

 Cite this work as:
 Gaussian 09, Revision D.01,
 M. J. Frisch, G. W. Trucks, H. B. Schlegel, G. E. Scuseria, 
 M. A. Robb, J. R. Cheeseman, G. Scalmani, V. Barone, B. Mennucci, 
 G. A. Petersson, H. Nakatsuji, M. Caricato, X. Li, H. P. Hratchian, 
 A. F. Izmaylov, J. Bloino, G. Zheng, J. L. Sonnenberg, M. Hada, 
 M. Ehara, K. Toyota, R. Fukuda, J. Hasegawa, M. Ishida, T. Nakajima, 
 Y. Honda, O. Kitao, H. Nakai, T. Vreven, J. A. Montgomery, Jr., 
 J. E. Peralta, F. Ogliaro, M. Bearpark, J. J. Heyd, E. Brothers, 
 K. N. Kudin, V. N. Staroverov, T. Keith, R. Kobayashi, J. Normand, 
 K. Raghavachari, A. Rendell, J. C. Burant, S. S. Iyengar, J. Tomasi, 
 M. Cossi, N. Rega, J. M. Millam, M. Klene, J. E. Knox, J. B. Cross, 
 V. Bakken, C. Adamo, J. Jaramillo, R. Gomperts, R. E. Stratmann, 
 O. Yazyev, A. J. Austin, R. Cammi, C. Pomelli, J. W. Ochterski, 
 R. L. Martin, K. Morokuma, V. G. Zakrzewski, G. A. Voth, 
 P. Salvador, J. J. Dannenberg, S. Dapprich, A. D. Daniels, 
 O. Farkas, J. B. Foresman, J. V. Ortiz, J. Cioslowski, 
 and D. J. Fox, Gaussian, Inc., Wallingford CT, 2013.
 
 ******************************************
 Gaussian 09:  ES64L-G09RevD.01 24-Apr-2013
                15-Dec-2015 
 ******************************************
 -------------------------------------------------------
 #P B3LYP/3-21G CIS(Singlets,NStates=15) pop(full) force
 -------------------------------------------------------
 1/10=7,30=1,38=1/1,3;
 2/12=2,17=6,18=5,40=1/2;
 3/5=5,11=9,16=1,25=1,30=1,71=1,74=-5/1,2,8,3;
 4//1;
 5/5=2,38=5/2;
 8/6=1,10=1,108=15/1;
 9/15=2,41=15,42=1,48=1/14;
 10/5=4/2;
 6/7=3,18=1/1;
 7/12=6,13=5,29=1/1,2,3,16;
 1/10=7,30=1/3;
 99//99;
 Leave Link    1 at Tue Dec 15 16:26:30 2015, MaxMem=           0 cpu:         0.0
 (Enter /home/Applications/g09/g09/l101.exe)
 --------
 FuranDFT
 --------
 Symbolic Z-matrix:
 Charge =  0 Multiplicity = 1
 6                     0.96818  -0.67204  -0.03912 
 6                    -0.36841  -1.05669   0.02649 
 8                    -1.1784    0.01677  -0.0232 
 6                    -0.37955   1.07395  -0.01485 
 6                     0.96678   0.73121  -0.04243 
 1                     1.79787   1.3697   -0.02909 
 1                    -0.81161   2.07645  -0.04065 
 1                    -0.84618  -2.05977   0.04572 
 1                     1.81973  -1.41688   0.00815 
 
 NAtoms=      9 NQM=        9 NQMF=       0 NMMI=      0 NMMIF=      0
                NMic=       0 NMicF=      0.
                    Isotopes and Nuclear Properties:
 (Nuclear quadrupole moments (NQMom) in fm**2, nuclear magnetic moments (NMagM)
  in nuclear magnetons)

  Atom         1           2           3           4           5           6           7           8           9
 IAtWgt=          12          12          16          12          12           1           1           1           1
 AtmWgt=  12.0000000  12.0000000  15.9949146  12.0000000  12.0000000   1.0078250   1.0078250   1.0078250   1.0078250
 NucSpn=           0           0           0           0           0           1           1           1           1
 AtZEff=   0.0000000   0.0000000   0.0000000   0.0000000   0.0000000   0.0000000   0.0000000   0.0000000   0.0000000
 NQMom=    0.0000000   0.0000000   0.0000000   0.0000000   0.0000000   0.0000000   0.0000000   0.0000000   0.0000000
 NMagM=    0.0000000   0.0000000   0.0000000   0.0000000   0.0000000   2.7928460   2.7928460   2.7928460   2.7928460
 AtZNuc=   6.0000000   6.0000000   8.0000000   6.0000000   6.0000000   1.0000000   1.0000000   1.0000000   1.0000000
 Leave Link  101 at Tue Dec 15 16:26:30 2015, MaxMem=    33554432 cpu:         0.0
 (Enter /home/Applications/g09/g09/l103.exe)

 GradGradGradGradGradGradGradGradGradGradGradGradGradGradGradGradGradGrad
 Berny optimization.
 Initialization pass.
 Trust Radius=3.00D-01 FncErr=1.00D-07 GrdErr=1.00D-07
 Number of steps in this run=      2 maximum allowed number of steps=      2.
 GradGradGradGradGradGradGradGradGradGradGradGradGradGradGradGradGradGrad

 Leave Link  103 at Tue Dec 15 16:26:30 2015, MaxMem=    33554432 cpu:         0.0
 (Enter /home/Applications/g09/g09/l202.exe)
                          Input orientation:                          
 ---------------------------------------------------------------------
 Center     Atomic      Atomic             Coordinates (Angstroms)
 Number     Number       Type             X           Y           Z
 ---------------------------------------------------------------------
      1          6           0        0.968179   -0.672040   -0.039123
      2          6           0       -0.368414   -1.056688    0.026487
      3          8           0       -1.178403    0.016771   -0.023202
      4          6           0       -0.379545    1.073953   -0.014847
      5          6           0        0.966778    0.731209   -0.042425
      6          1           0        1.797873    1.369697   -0.029087
      7          1           0       -0.811606    2.076450   -0.040652
      8          1           0       -0.846182   -2.059772    0.045720
      9          1           0        1.819733   -1.416881    0.008146
 ---------------------------------------------------------------------
                    Distance matrix (angstroms):
                    1          2          3          4          5
     1  C    0.000000
     2  C    1.392386   0.000000
     3  O    2.254446   1.345684   0.000000
     4  C    2.205774   2.131071   1.325095   0.000000
     5  C    1.403254   2.232501   2.261104   1.389539   0.000000
     6  H    2.203902   3.253188   3.269352   2.197457   1.048124
     7  H    3.274421   3.165040   2.092157   1.091945   2.229871
     8  H    2.285805   1.111220   2.104080   3.168856   3.329289
     9  H    1.132328   2.217671   3.323426   3.322891   2.311792
                    6          7          8          9
     6  H    0.000000
     7  H    2.703519   0.000000
     8  H    4.331037   4.137268   0.000000
     9  H    2.786912   4.373750   2.742594   0.000000
 Stoichiometry    C4H4O
 Framework group  C1[X(C4H4O)]
 Deg. of freedom    21
 Full point group                 C1      NOp   1
 Largest Abelian subgroup         C1      NOp   1
 Largest concise Abelian subgroup C1      NOp   1
                         Standard orientation:                         
 ---------------------------------------------------------------------
 Center     Atomic      Atomic             Coordinates (Angstroms)
 Number     Number       Type             X           Y           Z
 ---------------------------------------------------------------------
      1          6           0        0.222048    1.174549   -0.022903
      2          6           0        1.125406    0.115966    0.022755
      3          8           0        0.481424   -1.064922   -0.017949
      4          6           0       -0.810911   -0.774028    0.015656
      5          6           0       -1.055215    0.593731   -0.003601
      6          1           0       -1.979509    1.086894    0.028569
      7          1           0       -1.545866   -1.581484    0.001573
      8          1           0        2.236428    0.095079    0.020905
      9          1           0        0.549588    2.257576    0.021105
 ---------------------------------------------------------------------
 Rotational constants (GHZ):      9.7892604      9.0333819      4.7000191
 Leave Link  202 at Tue Dec 15 16:26:30 2015, MaxMem=    33554432 cpu:         0.0
 (Enter /home/Applications/g09/g09/l301.exe)
 Standard basis: 3-21G (6D, 7F)
 Ernie: Thresh=  0.10000D-02 Tol=  0.10000D-05 Strict=F.
 There are    53 symmetry adapted cartesian basis functions of A   symmetry.
 There are    53 symmetry adapted basis functions of A   symmetry.
    53 basis functions,    87 primitive gaussians,    53 cartesian basis functions
    18 alpha electrons       18 beta electrons
       nuclear repulsion energy       161.1371771607 Hartrees.
 IExCor=  402 DFT=T Ex+Corr=B3LYP ExCW=0 ScaHFX=  0.200000
 ScaDFX=  0.800000  0.720000  1.000000  0.810000 ScalE2=  1.000000  1.000000
 IRadAn=      0 IRanWt=     -1 IRanGd=            0 ICorTp=0 IEmpDi=  4
 NAtoms=    9 NActive=    9 NUniq=    9 SFac= 1.00D+00 NAtFMM=   60 NAOKFM=F Big=F
 Integral buffers will be    131072 words long.
 Regular integral format.
 Two-electron integral symmetry is turned on.
 Leave Link  301 at Tue Dec 15 16:26:30 2015, MaxMem=    33554432 cpu:         0.0
 (Enter /home/Applications/g09/g09/l302.exe)
 NPDir=0 NMtPBC=     1 NCelOv=     1 NCel=       1 NClECP=     1 NCelD=      1
         NCelK=      1 NCelE2=     1 NClLst=     1 CellRange=     0.0.
 One-electron integrals computed using PRISM.
 NBasis=    53 RedAO= T EigKep=  3.42D-03  NBF=    53
 NBsUse=    53 1.00D-06 EigRej= -1.00D+00 NBFU=    53
 Precomputing XC quadrature grid using
 IXCGrd= 4 IRadAn=           0 IRanWt=          -1 IRanGd=           0 AccXCQ= 0.00D+00.
 Generated NRdTot=       0 NPtTot=           0 NUsed=           0 NTot=          32
 NSgBfM=    53    53    53    53    53 MxSgAt=     9 MxSgA2=     9.
 Leave Link  302 at Tue Dec 15 16:26:30 2015, MaxMem=    33554432 cpu:         0.1
 (Enter /home/Applications/g09/g09/l308.exe)
 Leave Link  308 at Tue Dec 15 16:26:30 2015, MaxMem=    33554432 cpu:         0.0
 (Enter /home/Applications/g09/g09/l303.exe)
 DipDrv:  MaxL=1.
 Leave Link  303 at Tue Dec 15 16:26:30 2015, MaxMem=    33554432 cpu:         0.0
 (Enter /home/Applications/g09/g09/l401.exe)
 ExpMin= 1.83D-01 ExpMax= 3.22D+02 ExpMxC= 3.22D+02 IAcc=1 IRadAn=         1 AccDes= 0.00D+00
 Harris functional with IExCor=  402 and IRadAn=       1 diagonalized for initial guess.
 HarFok:  IExCor=  402 AccDes= 0.00D+00 IRadAn=         1 IDoV= 1 UseB2=F ITyADJ=14
 ICtDFT=  3500011 ScaDFX=  1.000000  1.000000  1.000000  1.000000
 FoFCou: FMM=F IPFlag=           0 FMFlag=      100000 FMFlg1=           0
         NFxFlg=           0 DoJE=T BraDBF=F KetDBF=T FulRan=T
         wScrn=  0.000000 ICntrl=     500 IOpCl=  0 I1Cent=   200000004 NGrid=           0
         NMat0=    1 NMatS0=      1 NMatT0=    0 NMatD0=    1 NMtDS0=    0 NMtDT0=    0
 Petite list used in FoFCou.
 Harris En= -228.724160716719    
 JPrj=0 DoOrth=F DoCkMO=F.
 Leave Link  401 at Tue Dec 15 16:26:30 2015, MaxMem=    33554432 cpu:         0.2
 (Enter /home/Applications/g09/g09/l502.exe)
 Closed shell SCF:
 Using DIIS extrapolation, IDIIS=  1040.
 Integral symmetry usage will be decided dynamically.
 Keep R1 ints in memory in canonical form, NReq=1925595.
 IVT=       27707 IEndB=       27707 NGot=    33554432 MDV=    32502130
 LenX=    32502130 LenY=    32498880
 Requested convergence on RMS density matrix=1.00D-08 within 128 cycles.
 Requested convergence on MAX density matrix=1.00D-06.
 Requested convergence on             energy=1.00D-06.
 No special actions if energy rises.
 FoFCou: FMM=F IPFlag=           0 FMFlag=           0 FMFlg1=           0
         NFxFlg=           0 DoJE=F BraDBF=F KetDBF=F FulRan=T
         wScrn=  0.000000 ICntrl=     600 IOpCl=  0 I1Cent=           0 NGrid=           0
         NMat0=    1 NMatS0=   1431 NMatT0=    0 NMatD0=    1 NMtDS0=    0 NMtDT0=    0
 Symmetry not used in FoFCou.
 Integral accuracy reduced to 1.0D-05 until final iterations.

 Cycle   1  Pass 0  IDiag  1:
 E= -228.658342672328    
 DIIS: error= 3.20D-02 at cycle   1 NSaved=   1.
 NSaved= 1 IEnMin= 1 EnMin= -228.658342672328     IErMin= 1 ErrMin= 3.20D-02
 ErrMax= 3.20D-02  0.00D+00 EMaxC= 1.00D-01 BMatC= 7.65D-02 BMatP= 7.65D-02
 IDIUse=3 WtCom= 6.80D-01 WtEn= 3.20D-01
 Coeff-Com:  0.100D+01
 Coeff-En:   0.100D+01
 Coeff:      0.100D+01
 Gap=     0.217 Goal=   None    Shift=    0.000
 GapD=    0.217 DampG=1.000 DampE=0.500 DampFc=0.5000 IDamp=-1.
 Damping current iteration by 5.00D-01
 RMSDP=1.26D-02 MaxDP=1.21D-01              OVMax= 2.18D-01

 Cycle   2  Pass 0  IDiag  1:
 E= -228.686212872859     Delta-E=       -0.027870200531 Rises=F Damp=T
 DIIS: error= 1.64D-02 at cycle   2 NSaved=   2.
 NSaved= 2 IEnMin= 2 EnMin= -228.686212872859     IErMin= 2 ErrMin= 1.64D-02
 ErrMax= 1.64D-02  0.00D+00 EMaxC= 1.00D-01 BMatC= 1.04D-02 BMatP= 7.65D-02
 IDIUse=3 WtCom= 8.36D-01 WtEn= 1.64D-01
 Coeff-Com:  0.152D+00 0.848D+00
 Coeff-En:   0.262D+00 0.738D+00
 Coeff:      0.170D+00 0.830D+00
 Gap=     0.234 Goal=   None    Shift=    0.000
 RMSDP=4.25D-03 MaxDP=3.28D-02 DE=-2.79D-02 OVMax= 1.82D-01

 Cycle   3  Pass 0  IDiag  1:
 E= -228.729655417486     Delta-E=       -0.043442544627 Rises=F Damp=F
 DIIS: error= 1.89D-02 at cycle   3 NSaved=   3.
 NSaved= 3 IEnMin= 3 EnMin= -228.729655417486     IErMin= 2 ErrMin= 1.64D-02
 ErrMax= 1.89D-02  0.00D+00 EMaxC= 1.00D-01 BMatC= 1.01D-02 BMatP= 1.04D-02
 IDIUse=3 WtCom= 8.11D-01 WtEn= 1.89D-01
 Coeff-Com:  0.900D-02 0.495D+00 0.496D+00
 Coeff-En:   0.000D+00 0.000D+00 0.100D+01
 Coeff:      0.730D-02 0.401D+00 0.591D+00
 Gap=     0.239 Goal=   None    Shift=    0.000
 RMSDP=2.68D-03 MaxDP=2.18D-02 DE=-4.34D-02 OVMax= 5.30D-02

 Cycle   4  Pass 0  IDiag  1:
 E= -228.737060648553     Delta-E=       -0.007405231067 Rises=F Damp=F
 DIIS: error= 9.70D-03 at cycle   4 NSaved=   4.
 NSaved= 4 IEnMin= 4 EnMin= -228.737060648553     IErMin= 4 ErrMin= 9.70D-03
 ErrMax= 9.70D-03  0.00D+00 EMaxC= 1.00D-01 BMatC= 2.20D-03 BMatP= 1.01D-02
 IDIUse=3 WtCom= 9.03D-01 WtEn= 9.70D-02
 Coeff-Com:  0.900D-02 0.470D-01 0.321D+00 0.623D+00
 Coeff-En:   0.000D+00 0.000D+00 0.201D+00 0.799D+00
 Coeff:      0.813D-02 0.425D-01 0.310D+00 0.640D+00
 Gap=     0.244 Goal=   None    Shift=    0.000
 RMSDP=8.74D-04 MaxDP=8.55D-03 DE=-7.41D-03 OVMax= 1.86D-02

 Cycle   5  Pass 0  IDiag  1:
 E= -228.738890521265     Delta-E=       -0.001829872712 Rises=F Damp=F
 DIIS: error= 1.38D-03 at cycle   5 NSaved=   5.
 NSaved= 5 IEnMin= 5 EnMin= -228.738890521265     IErMin= 5 ErrMin= 1.38D-03
 ErrMax= 1.38D-03  0.00D+00 EMaxC= 1.00D-01 BMatC= 8.65D-05 BMatP= 2.20D-03
 IDIUse=3 WtCom= 9.86D-01 WtEn= 1.38D-02
 Coeff-Com:  0.547D-02 0.344D-02 0.155D+00 0.377D+00 0.458D+00
 Coeff-En:   0.000D+00 0.000D+00 0.000D+00 0.000D+00 0.100D+01
 Coeff:      0.539D-02 0.339D-02 0.153D+00 0.372D+00 0.466D+00
 Gap=     0.243 Goal=   None    Shift=    0.000
 RMSDP=1.28D-04 MaxDP=1.32D-03 DE=-1.83D-03 OVMax= 2.65D-03

 Cycle   6  Pass 0  IDiag  1:
 E= -228.738953353065     Delta-E=       -0.000062831800 Rises=F Damp=F
 DIIS: error= 1.18D-04 at cycle   6 NSaved=   6.
 NSaved= 6 IEnMin= 6 EnMin= -228.738953353065     IErMin= 6 ErrMin= 1.18D-04
 ErrMax= 1.18D-04  0.00D+00 EMaxC= 1.00D-01 BMatC= 7.85D-07 BMatP= 8.65D-05
 IDIUse=3 WtCom= 9.99D-01 WtEn= 1.18D-03
 Coeff-Com:  0.128D-02-0.419D-02 0.900D-02 0.399D-01 0.119D+00 0.835D+00
 Coeff-En:   0.000D+00 0.000D+00 0.000D+00 0.000D+00 0.000D+00 0.100D+01
 Coeff:      0.128D-02-0.419D-02 0.899D-02 0.399D-01 0.118D+00 0.836D+00
 Gap=     0.243 Goal=   None    Shift=    0.000
 RMSDP=2.34D-05 MaxDP=2.47D-04 DE=-6.28D-05 OVMax= 3.85D-04

 Cycle   7  Pass 0  IDiag  1:
 E= -228.738954176648     Delta-E=       -0.000000823583 Rises=F Damp=F
 DIIS: error= 1.93D-05 at cycle   7 NSaved=   7.
 NSaved= 7 IEnMin= 7 EnMin= -228.738954176648     IErMin= 7 ErrMin= 1.93D-05
 ErrMax= 1.93D-05  0.00D+00 EMaxC= 1.00D-01 BMatC= 1.58D-08 BMatP= 7.85D-07
 IDIUse=1 WtCom= 1.00D+00 WtEn= 0.00D+00
 Coeff-Com:  0.432D-03-0.145D-02 0.203D-02 0.102D-01 0.343D-01 0.277D+00
 Coeff-Com:  0.677D+00
 Coeff:      0.432D-03-0.145D-02 0.203D-02 0.102D-01 0.343D-01 0.277D+00
 Coeff:      0.677D+00
 Gap=     0.243 Goal=   None    Shift=    0.000
 RMSDP=3.52D-06 MaxDP=5.50D-05 DE=-8.24D-07 OVMax= 8.53D-05

 Initial convergence to 1.0D-05 achieved.  Increase integral accuracy.
 Cycle   8  Pass 1  IDiag  1:
 E= -228.738934222470     Delta-E=        0.000019954179 Rises=F Damp=F
 DIIS: error= 1.10D-05 at cycle   1 NSaved=   1.
 NSaved= 1 IEnMin= 1 EnMin= -228.738934222470     IErMin= 1 ErrMin= 1.10D-05
 ErrMax= 1.10D-05  0.00D+00 EMaxC= 1.00D-01 BMatC= 9.36D-09 BMatP= 9.36D-09
 IDIUse=1 WtCom= 1.00D+00 WtEn= 0.00D+00
 Coeff-Com:  0.100D+01
 Coeff:      0.100D+01
 Gap=     0.243 Goal=   None    Shift=    0.000
 RMSDP=3.52D-06 MaxDP=5.50D-05 DE= 2.00D-05 OVMax= 7.69D-05

 Cycle   9  Pass 1  IDiag  1:
 E= -228.738934224411     Delta-E=       -0.000000001942 Rises=F Damp=F
 DIIS: error= 1.60D-05 at cycle   2 NSaved=   2.
 NSaved= 2 IEnMin= 2 EnMin= -228.738934224411     IErMin= 1 ErrMin= 1.10D-05
 ErrMax= 1.60D-05  0.00D+00 EMaxC= 1.00D-01 BMatC= 1.05D-08 BMatP= 9.36D-09
 IDIUse=1 WtCom= 1.00D+00 WtEn= 0.00D+00
 Coeff-Com:  0.517D+00 0.483D+00
 Coeff:      0.517D+00 0.483D+00
 Gap=     0.243 Goal=   None    Shift=    0.000
 RMSDP=2.12D-06 MaxDP=2.72D-05 DE=-1.94D-09 OVMax= 4.44D-05

 Cycle  10  Pass 1  IDiag  1:
 E= -228.738934234348     Delta-E=       -0.000000009936 Rises=F Damp=F
 DIIS: error= 3.94D-06 at cycle   3 NSaved=   3.
 NSaved= 3 IEnMin= 3 EnMin= -228.738934234348     IErMin= 3 ErrMin= 3.94D-06
 ErrMax= 3.94D-06  0.00D+00 EMaxC= 1.00D-01 BMatC= 6.08D-10 BMatP= 9.36D-09
 IDIUse=1 WtCom= 1.00D+00 WtEn= 0.00D+00
 Coeff-Com:  0.275D-01 0.190D+00 0.782D+00
 Coeff:      0.275D-01 0.190D+00 0.782D+00
 Gap=     0.243 Goal=   None    Shift=    0.000
 RMSDP=6.64D-07 MaxDP=6.33D-06 DE=-9.94D-09 OVMax= 1.67D-05

 Cycle  11  Pass 1  IDiag  1:
 E= -228.738934234737     Delta-E=       -0.000000000389 Rises=F Damp=F
 DIIS: error= 2.04D-06 at cycle   4 NSaved=   4.
 NSaved= 4 IEnMin= 4 EnMin= -228.738934234737     IErMin= 4 ErrMin= 2.04D-06
 ErrMax= 2.04D-06  0.00D+00 EMaxC= 1.00D-01 BMatC= 2.36D-10 BMatP= 6.08D-10
 IDIUse=1 WtCom= 1.00D+00 WtEn= 0.00D+00
 Coeff-Com: -0.172D-01 0.932D-01 0.513D+00 0.411D+00
 Coeff:     -0.172D-01 0.932D-01 0.513D+00 0.411D+00
 Gap=     0.243 Goal=   None    Shift=    0.000
 RMSDP=3.09D-07 MaxDP=4.00D-06 DE=-3.89D-10 OVMax= 6.10D-06

 Cycle  12  Pass 1  IDiag  1:
 E= -228.738934234967     Delta-E=       -0.000000000230 Rises=F Damp=F
 DIIS: error= 3.42D-07 at cycle   5 NSaved=   5.
 NSaved= 5 IEnMin= 5 EnMin= -228.738934234967     IErMin= 5 ErrMin= 3.42D-07
 ErrMax= 3.42D-07  0.00D+00 EMaxC= 1.00D-01 BMatC= 2.15D-12 BMatP= 2.36D-10
 IDIUse=1 WtCom= 1.00D+00 WtEn= 0.00D+00
 Coeff-Com: -0.814D-02 0.338D-01 0.189D+00 0.172D+00 0.613D+00
 Coeff:     -0.814D-02 0.338D-01 0.189D+00 0.172D+00 0.613D+00
 Gap=     0.243 Goal=   None    Shift=    0.000
 RMSDP=4.70D-08 MaxDP=3.84D-07 DE=-2.30D-10 OVMax= 9.85D-07

 Cycle  13  Pass 1  IDiag  1:
 E= -228.738934234971     Delta-E=       -0.000000000004 Rises=F Damp=F
 DIIS: error= 1.58D-07 at cycle   6 NSaved=   6.
 NSaved= 6 IEnMin= 6 EnMin= -228.738934234971     IErMin= 6 ErrMin= 1.58D-07
 ErrMax= 1.58D-07  0.00D+00 EMaxC= 1.00D-01 BMatC= 1.10D-12 BMatP= 2.15D-12
 IDIUse=1 WtCom= 1.00D+00 WtEn= 0.00D+00
 Coeff-Com: -0.164D-02 0.401D-02 0.209D-01 0.294D-01 0.427D+00 0.520D+00
 Coeff:     -0.164D-02 0.401D-02 0.209D-01 0.294D-01 0.427D+00 0.520D+00
 Gap=     0.243 Goal=   None    Shift=    0.000
 RMSDP=2.04D-08 MaxDP=2.14D-07 DE=-3.92D-12 OVMax= 5.35D-07

 Cycle  14  Pass 1  IDiag  1:
 E= -228.738934234971     Delta-E=        0.000000000000 Rises=F Damp=F
 DIIS: error= 1.58D-08 at cycle   7 NSaved=   7.
 NSaved= 7 IEnMin= 6 EnMin= -228.738934234971     IErMin= 7 ErrMin= 1.58D-08
 ErrMax= 1.58D-08  0.00D+00 EMaxC= 1.00D-01 BMatC= 1.37D-14 BMatP= 1.10D-12
 IDIUse=1 WtCom= 1.00D+00 WtEn= 0.00D+00
 Coeff-Com: -0.163D-03-0.372D-03-0.234D-02-0.483D-03 0.119D+00 0.146D+00
 Coeff-Com:  0.738D+00
 Coeff:     -0.163D-03-0.372D-03-0.234D-02-0.483D-03 0.119D+00 0.146D+00
 Coeff:      0.738D+00
 Gap=     0.243 Goal=   None    Shift=    0.000
 RMSDP=3.33D-09 MaxDP=3.36D-08 DE= 0.00D+00 OVMax= 4.23D-08

 SCF Done:  E(RB3LYP) =  -228.738934235     A.U. after   14 cycles
            NFock= 14  Conv=0.33D-08     -V/T= 2.0084
 KE= 2.268360352292D+02 PE=-8.546586888839D+02 EE= 2.379465422590D+02
 Leave Link  502 at Tue Dec 15 16:26:35 2015, MaxMem=    33554432 cpu:         5.2
 (Enter /home/Applications/g09/g09/l801.exe)
 DoSCS=F DFT=T ScalE2(SS,OS)=  1.000000  1.000000
 ExpMin= 1.83D-01 ExpMax= 3.22D+02 ExpMxC= 3.22D+02 IAcc=3 IRadAn=         5 AccDes= 0.00D+00
 HarFok:  IExCor=  205 AccDes= 0.00D+00 IRadAn=         5 IDoV=-2 UseB2=F ITyADJ=14
 ICtDFT= 12500011 ScaDFX=  1.000000  1.000000  1.000000  1.000000
 Largest valence mixing into a core orbital is  1.75D-04
 Largest core mixing into a valence orbital is  4.29D-05
 Range of M.O.s used for correlation:     6    53
 NBasis=    53 NAE=    18 NBE=    18 NFC=     5 NFV=     0
 NROrb=     48 NOA=    13 NOB=    13 NVA=    35 NVB=    35
 Leave Link  801 at Tue Dec 15 16:26:36 2015, MaxMem=    33554432 cpu:         0.3
 (Enter /home/Applications/g09/g09/l914.exe)
 RHF ground state
 MDV=    33554432 DFT=T DoStab=F Mixed=T DoRPA=F DoScal=F NonHer=F
 Keep R1, R2, and R3 ints in memory in canonical form, NReq=5596273.
 FoFCou: FMM=F IPFlag=           0 FMFlag=           0 FMFlg1=           0
         NFxFlg=           0 DoJE=F BraDBF=F KetDBF=F FulRan=T
         wScrn=  0.000000 ICntrl=     600 IOpCl=  0 I1Cent=           0 NGrid=           0
         NMat0=    1 NMatS0=   1431 NMatT0=    0 NMatD0=    1 NMtDS0=    0 NMtDT0=    0
 Symmetry not used in FoFCou.
 Making orbital integer symmetry assigments:
 Orbital symmetries:
       Occupied  (A) (A) (A) (A) (A) (A) (A) (A) (A) (A) (A) (A)
                 (A) (A) (A) (A) (A) (A)
       Virtual   (A) (A) (A) (A) (A) (A) (A) (A) (A) (A) (A) (A)
                 (A) (A) (A) (A) (A) (A) (A) (A) (A) (A) (A) (A)
                 (A) (A) (A) (A) (A) (A) (A) (A) (A) (A) (A)
    60 initial guesses have been made.
 Convergence on wavefunction:    0.000001000000000
 Davidson Disk Diagonalization:  ConvIn= 1.00D-06 SkipCon=T Conv= 1.00D-06.
 Max sub-space:   240 roots to seek:    60 dimension of matrix:          910
 Iteration     1 Dimension    60 NMult     0 NNew     60
 CISAX will form    60 AO SS matrices at one time.
 NMat=    60 NSing=    60 JSym2X= 0.
 New state      1 was old state      3
 New state      2 was old state      1
 New state      3 was old state      4
 New state      4 was old state      7
 New state      5 was old state      6
 New state      6 was old state      8
 New state      7 was old state     11
 New state      8 was old state      9
 New state      9 was old state     10
 New state     10 was old state     13
 New state     11 was old state      5
 New state     13 was old state     14
 New state     14 was old state     15
 New state     15 was old state      2
 Excitation Energies [eV] at current iteration:
 Root      1 :     7.264081134348557
 Root      2 :     7.999688600705617
 Root      3 :     8.342045627148698
 Root      4 :     8.886215014569961
 Root      5 :     9.061575896280244
 Root      6 :     9.572429742080869
 Root      7 :     9.885600590660529
 Root      8 :     9.909956170607606
 Root      9 :    10.129614792390910
 Root     10 :    10.271492728674440
 Root     11 :    10.437696061401420
 Root     12 :    10.590825200195870
 Root     13 :    10.655487542796590
 Root     14 :    10.949395342761890
 Root     15 :    11.040308208139300
 Root     16 :    11.303830799671540
 Root     17 :    11.320075860295760
 Root     18 :    11.360792989333560
 Root     19 :    11.486279098116840
 Root     20 :    11.655786222922880
 Root     21 :    11.811182759528150
 Root     22 :    12.303127544725140
 Root     23 :    12.475016828058420
 Root     24 :    12.767518191138600
 Root     25 :    12.823784045773330
 Root     26 :    13.204732864509600
 Root     27 :    13.541066786219460
 Root     28 :    13.654016271477620
 Root     29 :    13.708074796150940
 Root     30 :    13.870420041214860
 Root     31 :    13.929284352151890
 Root     32 :    13.976221067978080
 Root     33 :    13.981323996255690
 Root     34 :    14.151376054433730
 Root     35 :    14.177844118543900
 Root     36 :    14.751021552464150
 Root     37 :    14.814799845526840
 Root     38 :    14.862677232540190
 Root     39 :    14.973354923807080
 Root     40 :    15.120435929534230
 Root     41 :    15.158800308144010
 Root     42 :    15.181225540447440
 Root     43 :    15.359396131795050
 Root     44 :    15.405874619915070
 Root     45 :    15.430311355626710
 Root     46 :    15.516282792645100
 Root     47 :    15.641103634099150
 Root     48 :    15.676546724590850
 Root     49 :    15.708040771408190
 Root     50 :    15.747715304044240
 Root     51 :    15.999600570850910
 Root     52 :    16.058883780911720
 Root     53 :    16.168262656641130
 Root     54 :    16.256794292211780
 Root     55 :    16.367343046567260
 Root     56 :    16.582223510180420
 Root     57 :    16.704095130345320
 Root     58 :    17.206603534265450
 Root     59 :    17.571987556577320
 Root     60 :    17.856083559513370
 Iteration     2 Dimension   120 NMult    60 NNew     60
 CISAX will form    60 AO SS matrices at one time.
 NMat=    60 NSing=    60 JSym2X= 0.
 New state      1 was old state      2
 Root      1 not converged, maximum delta is    0.072257270858736
 New state      2 was old state      1
 Root      2 not converged, maximum delta is    0.099505705258433
 Root      3 not converged, maximum delta is    0.054059093170357
 Root      4 not converged, maximum delta is    0.025201513906672
 Root      5 not converged, maximum delta is    0.022129700718147
 Root      6 not converged, maximum delta is    0.195313751837658
 New state      7 was old state     14
 Root      7 not converged, maximum delta is    0.374885818981254
 New state      8 was old state     11
 Root      8 not converged, maximum delta is    0.300507832379019
 New state      9 was old state      7
 Root      9 not converged, maximum delta is    0.301547102748357
 New state     10 was old state      8
 Root     10 not converged, maximum delta is    0.092538343756261
 New state     11 was old state      9
 Root     11 not converged, maximum delta is    0.090569208167989
 New state     12 was old state     10
 Root     12 not converged, maximum delta is    0.218653477067191
 New state     13 was old state     12
 Root     13 not converged, maximum delta is    0.054426740459392
 New state     14 was old state     13
 Root     14 not converged, maximum delta is    0.209354128964402
 Root     15 not converged, maximum delta is    0.269975796506113
 Excitation Energies [eV] at current iteration:
 Root      1 :     7.102307962876116   Change is   -0.897380637829500
 Root      2 :     7.138028990416779   Change is   -0.126052143931778
 Root      3 :     8.331643335090115   Change is   -0.010402292058583
 Root      4 :     8.852998334862532   Change is   -0.033216679707429
 Root      5 :     9.038480405993948   Change is   -0.023095490286296
 Root      6 :     9.544541483434550   Change is   -0.027888258646320
 Root      7 :     9.626427776013557   Change is   -1.322967566748332
 Root      8 :     9.769901264257234   Change is   -0.667794797144185
 Root      9 :     9.892514808759948   Change is    0.006914218099421
 Root     10 :     9.903953334119770   Change is   -0.006002836487836
 Root     11 :    10.133161667758200   Change is    0.003546875367288
 Root     12 :    10.266207888682360   Change is   -0.005284839992075
 Root     13 :    10.581870611659720   Change is   -0.008954588536154
 Root     14 :    10.621161284508390   Change is   -0.034326258288196
 Root     15 :    10.982764343569770   Change is   -0.057543864569532
 Root     16 :    11.272985516892260   Change is   -0.030845282779281
 Root     17 :    11.303623154821750   Change is   -0.016452705474016
 Root     18 :    11.329064575607000   Change is   -0.031728413726561
 Root     19 :    11.458140636054460   Change is   -0.028138462062377
 Root     20 :    11.638356058214290   Change is   -0.017430164708596
 Root     21 :    11.779319706778050   Change is   -0.031863052750100
 Root     22 :    12.189235736664560   Change is   -0.113891808060586
 Root     23 :    12.441916539421860   Change is   -0.033100288636561
 Root     24 :    12.642919204933530   Change is   -0.124598986205071
 Root     25 :    12.801050738456900   Change is   -0.022733307316427
 Root     26 :    13.058524723040660   Change is   -0.595491548436955
 Root     27 :    13.156827377043170   Change is   -0.047905487466436
 Root     28 :    13.524392394984230   Change is   -0.016674391235236
 Root     29 :    13.576800483728880   Change is   -0.131274312422063
 Root     30 :    13.728416530968260   Change is   -0.422959523465465
 Root     31 :    13.756100883446150   Change is   -0.173183468705743
 Root     32 :    13.837587885638450   Change is   -0.032832155576415
 Root     33 :    13.931212119531680   Change is   -0.050111876724010
 Root     34 :    13.941194389661470   Change is   -0.035026678316616
 Root     35 :    14.012485939250980   Change is   -0.165358179292918
 Root     36 :    14.297375033460270   Change is   -0.675979890346806
 Root     37 :    14.685994069395350   Change is   -0.065027483068803
 Root     38 :    14.796400110017300   Change is   -0.018399735509536
 Root     39 :    14.821022394375210   Change is   -0.041654838164985
 Root     40 :    14.954421536337500   Change is   -0.204378771806502
 Root     41 :    15.018401775891200   Change is   -0.102034153643034
 Root     42 :    15.084955987716490   Change is   -0.096269552730954
 Root     43 :    15.101158787937050   Change is   -0.329152567689663
 Root     44 :    15.251853518692630   Change is   -0.264429273952473
 Root     45 :    15.313910066202970   Change is   -0.045486065592079
 Root     46 :    15.354976136039960   Change is   -0.050898483875113
 Root     47 :    15.442518424154150   Change is   -0.265522347254043
 Root     48 :    15.464706211726660   Change is   -0.211840512864183
 Root     49 :    15.510271963909030   Change is   -0.237443340135205
 Root     50 :    15.600781481600110   Change is   -0.040322152499043
 Root     51 :    15.952461867111950   Change is   -0.215800789529177
 Root     52 :    15.966181932056150   Change is   -0.033418638794755
 Root     53 :    16.037094705412080   Change is   -0.021789075499642
 Root     54 :    16.148757118859300   Change is   -0.108037173352476
 Root     55 :    16.302345140487510   Change is   -0.064997906079757
 Root     56 :    16.351648116611600   Change is   -0.854955417653855
 Root     57 :    16.383954583352120   Change is   -0.198268926828298
 Root     58 :    16.453480331333300   Change is   -1.118507225244019
 Root     59 :    16.665598946618910   Change is   -0.038496183726402
 Root     60 :    16.750006099273530   Change is   -1.106077460239847
 Iteration     3 Dimension   135 NMult   120 NNew     15
 CISAX will form    15 AO SS matrices at one time.
 NMat=    15 NSing=    15 JSym2X= 0.
 Root      1 not converged, maximum delta is    0.002887193682375
 Root      2 not converged, maximum delta is    0.003178722501365
 Root      3 not converged, maximum delta is    0.000123322853502
 Root      4 not converged, maximum delta is    0.000319313621377
 Root      5 not converged, maximum delta is    0.000177949372011
 Root      6 not converged, maximum delta is    0.011017152399964
 Root      7 not converged, maximum delta is    0.014338626878807
 Root      8 not converged, maximum delta is    0.003664407121828
 Root      9 not converged, maximum delta is    0.003597082727953
 Root     10 not converged, maximum delta is    0.001567497260820
 Root     11 not converged, maximum delta is    0.000650964191985
 Root     12 not converged, maximum delta is    0.000477979245549
 Root     13 not converged, maximum delta is    0.000238759161473
 Root     14 not converged, maximum delta is    0.000458028395233
 Root     15 not converged, maximum delta is    0.000290684197258
 Excitation Energies [eV] at current iteration:
 Root      1 :     7.100208727780901   Change is   -0.002099235095216
 Root      2 :     7.137179707480186   Change is   -0.000849282936593
 Root      3 :     8.331635812033808   Change is   -0.000007523056309
 Root      4 :     8.852927928618497   Change is   -0.000070406244036
 Root      5 :     9.038464771480095   Change is   -0.000015634513852
 Root      6 :     9.543365476962055   Change is   -0.001176006472494
 Root      7 :     9.622226053382352   Change is   -0.004201722631205
 Root      8 :     9.767993010139451   Change is   -0.001908254117784
 Root      9 :     9.892170546781907   Change is   -0.000344261978042
 Root     10 :     9.903778704596391   Change is   -0.000174629523379
 Root     11 :    10.133067730372720   Change is   -0.000093937385482
 Root     12 :    10.266150627945360   Change is   -0.000057260737004
 Root     13 :    10.581849355763030   Change is   -0.000021255896690
 Root     14 :    10.621121121171860   Change is   -0.000040163336538
 Root     15 :    10.982731121536600   Change is   -0.000033222033168
 Iteration     4 Dimension   150 NMult   135 NNew     15
 CISAX will form    15 AO SS matrices at one time.
 NMat=    15 NSing=    15 JSym2X= 0.
 Root      1 not converged, maximum delta is    0.000100835029415
 Root      2 not converged, maximum delta is    0.000065408177602
 Root      3 not converged, maximum delta is    0.000006087685715
 Root      4 not converged, maximum delta is    0.000010660136637
 Root      5 not converged, maximum delta is    0.000006233108706
 Root      6 not converged, maximum delta is    0.000058967770008
 Root      7 not converged, maximum delta is    0.000108589241097
 Root      8 not converged, maximum delta is    0.000073114071226
 Root      9 not converged, maximum delta is    0.000026586797927
 Root     10 not converged, maximum delta is    0.000019137047669
 Root     11 not converged, maximum delta is    0.000016612559860
 Root     12 not converged, maximum delta is    0.000008936430394
 Root     13 not converged, maximum delta is    0.000007923626855
 Root     14 not converged, maximum delta is    0.000012603583657
 Root     15 not converged, maximum delta is    0.000013896854684
 Excitation Energies [eV] at current iteration:
 Root      1 :     7.100206201324030   Change is   -0.000002526456870
 Root      2 :     7.137178474601775   Change is   -0.000001232878411
 Root      3 :     8.331635804536136   Change is   -0.000000007497672
 Root      4 :     8.852927856190920   Change is   -0.000000072427577
 Root      5 :     9.038464760807672   Change is   -0.000000010672424
 Root      6 :     9.543363665542911   Change is   -0.000001811419144
 Root      7 :     9.622219941536541   Change is   -0.000006111845812
 Root      8 :     9.767990032169356   Change is   -0.000002977970094
 Root      9 :     9.892170057762712   Change is   -0.000000489019195
 Root     10 :     9.903778457553132   Change is   -0.000000247043258
 Root     11 :    10.133067595577800   Change is   -0.000000134794918
 Root     12 :    10.266150565202060   Change is   -0.000000062743297
 Root     13 :    10.581849332982740   Change is   -0.000000022780288
 Root     14 :    10.621121048717650   Change is   -0.000000072454210
 Root     15 :    10.982731086392650   Change is   -0.000000035143950
 Iteration     5 Dimension   165 NMult   150 NNew     15
 CISAX will form    15 AO SS matrices at one time.
 NMat=    15 NSing=    15 JSym2X= 0.
 Root      1 not converged, maximum delta is    0.000001845726413
 Root      2 not converged, maximum delta is    0.000001535115669
 Root      3 has converged.
 Root      4 has converged.
 Root      5 has converged.
 Root      6 not converged, maximum delta is    0.000001453070241
 Root      7 not converged, maximum delta is    0.000002530992449
 Root      8 not converged, maximum delta is    0.000002753111468
 Root      9 not converged, maximum delta is    0.000001068255109
 Root     10 has converged.
 Root     11 has converged.
 Root     12 has converged.
 Root     13 has converged.
 Root     14 has converged.
 Root     15 has converged.
 Excitation Energies [eV] at current iteration:
 Root      1 :     7.100206199266080   Change is   -0.000000002057950
 Root      2 :     7.137178473307316   Change is   -0.000000001294459
 Root      3 :     8.331635804529803   Change is   -0.000000000006332
 Root      4 :     8.852927856132265   Change is   -0.000000000058656
 Root      5 :     9.038464760798613   Change is   -0.000000000009059
 Root      6 :     9.543363663925490   Change is   -0.000000001617422
 Root      7 :     9.622219936268559   Change is   -0.000000005267981
 Root      8 :     9.767990029211292   Change is   -0.000000002958063
 Root      9 :     9.892170057266775   Change is   -0.000000000495937
 Root     10 :     9.903778457305107   Change is   -0.000000000248025
 Root     11 :    10.133067595426390   Change is   -0.000000000151407
 Root     12 :    10.266150565136390   Change is   -0.000000000065678
 Root     13 :    10.581849332946040   Change is   -0.000000000036704
 Root     14 :    10.621121048631880   Change is   -0.000000000085764
 Root     15 :    10.982731086339590   Change is   -0.000000000053062
 Iteration     6 Dimension   171 NMult   165 NNew      6
 CISAX will form     6 AO SS matrices at one time.
 NMat=     6 NSing=     6 JSym2X= 0.
 Root      1 has converged.
 Root      2 has converged.
 Root      3 has converged.
 Root      4 has converged.
 Root      5 has converged.
 Root      6 has converged.
 Root      7 has converged.
 Root      8 has converged.
 Root      9 has converged.
 Root     10 has converged.
 Root     11 has converged.
 Root     12 has converged.
 Root     13 has converged.
 Root     14 has converged.
 Root     15 has converged.
 Excitation Energies [eV] at current iteration:
 Root      1 :     7.100206199265328   Change is   -0.000000000000752
 Root      2 :     7.137178473306849   Change is   -0.000000000000467
 Root      3 :     8.331635804529828   Change is    0.000000000000024
 Root      4 :     8.852927856132224   Change is   -0.000000000000041
 Root      5 :     9.038464760798602   Change is   -0.000000000000011
 Root      6 :     9.543363663924167   Change is   -0.000000000001323
 Root      7 :     9.622219936263932   Change is   -0.000000000004627
 Root      8 :     9.767990029208285   Change is   -0.000000000003007
 Root      9 :     9.892170057266322   Change is   -0.000000000000453
 Root     10 :     9.903778457304879   Change is   -0.000000000000228
 Root     11 :    10.133067595426230   Change is   -0.000000000000163
 Root     12 :    10.266150565136340   Change is   -0.000000000000048
 Root     13 :    10.581849332946010   Change is   -0.000000000000029
 Root     14 :    10.621121048631760   Change is   -0.000000000000118
 Root     15 :    10.982731086339530   Change is   -0.000000000000057
 Convergence achieved on expansion vectors.
 ***********************************************************************
 Excited states from <AA,BB:AA,BB> singles matrix:
 ***********************************************************************
 
 1PDM for each excited state written to RWF  633
 Ground to excited state transition densities written to RWF  633
 Ground to excited state transition electric dipole moments (Au):
       state          X           Y           Z        Dip. S.      Osc.
         1        -1.0610     -0.4786     -0.0186      1.3552      0.2357
         2         0.1214      0.1064     -0.0193      0.0264      0.0046
         3        -0.0012     -0.0337      0.0149      0.0014      0.0003
         4        -0.0616      0.1136     -0.1588      0.0419      0.0091
         5        -0.0416      0.0018     -0.0082      0.0018      0.0004
         6        -0.2588      0.7107     -0.0428      0.5739      0.1342
         7         0.5250     -1.2405      0.0417      1.8163      0.4282
         8        -0.8061     -0.2300      0.0033      0.7027      0.1682
         9        -0.2131     -0.2316      0.0254      0.0997      0.0242
        10         0.1873     -0.1750     -0.0532      0.0685      0.0166
        11         0.1114     -0.1454      0.0158      0.0338      0.0084
        12        -0.0493     -0.0846     -0.0561      0.0127      0.0032
        13        -0.0264      0.0694      0.0311      0.0065      0.0017
        14        -0.0995      0.0145      0.0299      0.0110      0.0029
        15         0.0569     -0.0243     -0.1036      0.0146      0.0039
 Ground to excited state transition velocity dipole moments (Au):
       state          X           Y           Z        Dip. S.      Osc.
         1         0.0066     -0.0079     -0.0017      0.0001      0.0003
         2         0.0189     -0.0420     -0.0006      0.0021      0.0054
         3        -0.0043      0.0007      0.0082      0.0001      0.0002
         4        -0.0005      0.0004      0.0824      0.0068      0.0139
         5         0.0089      0.0022      0.0026      0.0001      0.0002
         6         0.0013     -0.0261     -0.0479      0.0030      0.0057
         7        -0.0047      0.0414     -0.0130      0.0019      0.0036
         8         0.0854      0.0366      0.0053      0.0087      0.0161
         9         0.0256      0.0171     -0.0229      0.0015      0.0027
        10        -0.0128      0.0039     -0.0097      0.0003      0.0005
        11        -0.0098      0.0046     -0.0177      0.0004      0.0008
        12         0.0086      0.0101      0.0073      0.0002      0.0004
        13         0.0032     -0.0104      0.0317      0.0011      0.0019
        14         0.0167      0.0032     -0.0063      0.0003      0.0006
        15        -0.0091     -0.0020     -0.0009      0.0001      0.0001
 Ground to excited state transition magnetic dipole moments (Au):
       state          X           Y           Z
         1         0.0220      0.0116     -0.3641
         2         0.0425      0.0141      0.0368
         3         0.2650     -0.3894     -0.0155
         4        -1.5133     -0.6354     -0.0011
         5         0.0954     -0.1713      0.0238
         6        -0.0996     -0.0443     -0.0121
         7        -0.2077     -0.0772     -0.0278
         8        -0.0843      0.2507      0.1747
         9        -0.0556     -0.4083      0.0740
        10        -0.2605      0.2774     -0.0380
        11         0.1148     -0.2704      0.0068
        12         0.3414     -0.2612     -0.0122
        13        -0.1758     -0.0437     -0.0222
        14         0.2017     -0.5150     -0.0304
        15         0.1008     -0.2300      0.0147
 Ground to excited state transition velocity quadrupole moments (Au):
       state          XX          YY          ZZ          XY          XZ          YZ
         1         0.1629     -0.1720      0.0051     -0.1479     -0.0011      0.0004
         2        -0.0202      0.0109      0.0175      0.0336     -0.0017      0.0009
         3        -0.0100      0.0114      0.0018     -0.0014      0.0941      0.0572
         4         0.0188     -0.0086     -0.0058      0.0045      0.0697     -0.1839
         5         0.0193     -0.0059     -0.0021     -0.0038     -0.1578     -0.0612
         6         0.1606     -0.1290     -0.0239      0.0826      0.0001      0.0340
         7        -0.1916      0.1811      0.0379     -0.1594     -0.0021      0.0245
         8        -0.2273      0.2713     -0.0073      0.2592     -0.0158      0.0094
         9        -0.1274      0.1145      0.0032      0.0715      0.0323     -0.0996
        10        -0.0133     -0.0194      0.0087     -0.0707     -0.0034     -0.0657
        11        -0.0173      0.0116      0.0031     -0.0394      0.0286     -0.0585
        12        -0.0506      0.0353      0.0102      0.0194     -0.0028      0.0957
        13         0.0388     -0.0158     -0.0052      0.0195      0.0201     -0.0625
        14        -0.0167      0.0244     -0.0037      0.0433      0.0534     -0.0011
        15         0.0102     -0.0041     -0.0021     -0.0186     -0.0392     -0.0614
 <0|del|b> * <b|rxdel|0> + <0|del|b> * <b|delr+rdel|0>
 Rotatory Strengths (R) in cgs (10**-40 erg-esu-cm/Gauss)
       state          XX          YY          ZZ    R(velocity)    E-M Angle
         1         1.0252      0.6922      0.0809      0.5994       79.97
         2        -0.9528      1.1015      0.3592      0.1693       85.95
         3        -0.5564     -1.7355     -1.2738     -1.1886      110.57
         4         0.0187      0.3261      0.4233      0.2560       89.85
         5         0.0236      0.3998      0.7290      0.3841       73.27
         6        -2.2346      4.4860      0.9861      1.0792       74.44
         7        -0.6742     -0.8491     -2.1878     -1.2370      100.99
         8        11.8609     -6.7319      0.5947      1.9079       84.35
         9       -10.5626     -3.9191     -5.1526     -6.5448      128.94
        10         2.0960      3.7392      3.4644      3.0999       40.65
        11        -0.7560     -1.3016     -2.6723     -1.5766      114.13
        12        -2.4038      3.2944     -0.5323      0.1194       88.32
        13         0.5270     -1.8922     -0.1057     -0.4903       97.60
        14        -1.6975      3.4568      1.7497      1.1696       78.88
        15         0.3448     -0.3378     -0.8066     -0.2665      101.21
 1/2[<0|r|b>*<b|rxdel|0> + (<0|rxdel|b>*<b|r|0>)*]
 Rotatory Strengths (R) in cgs (10**-40 erg-esu-cm/Gauss)
       state          XX          YY          ZZ     R(length)
         1        16.5264      3.9426     -4.7903      5.2262
         2        -3.6494     -1.0605      0.5025     -1.4025
         3         0.2315     -9.2732      0.1641     -2.9592
         4       -65.9595     51.0668     -0.1270     -5.0066
         5         2.8055      0.2196      0.1371      1.0541
         6       -18.2322     22.2589     -0.3654      1.2204
         7        77.1251    -67.6900      0.8196      3.4182
         8       -48.0537     40.7762     -0.4073     -2.5616
         9        -8.3854    -66.8621     -1.3293    -25.5256
        10        34.4951     34.3369     -1.4314     22.4669
        11        -9.0448    -27.8043     -0.0763    -12.3085
        12        11.8944    -15.6377     -0.4857     -1.4097
        13        -3.2807      2.1449      0.4868     -0.2163
        14        14.1927      5.2848      0.6419      6.7064
        15        -4.0557     -3.9490      1.0762     -2.3095
  1/2[<0|del|b>*<b|r|0> + (<0|r|b>*<b|del|0>)*] (Au)
       state          X           Y           Z        Dip. S.   Osc.(frdel)
         1        -0.0070      0.0038      0.0000      0.0032      0.0022
         2         0.0023     -0.0045      0.0000      0.0022      0.0014
         3         0.0000      0.0000      0.0001     -0.0001     -0.0001
         4         0.0000      0.0000     -0.0131      0.0130      0.0087
         5        -0.0004      0.0000      0.0000      0.0004      0.0003
         6        -0.0003     -0.0186      0.0020      0.0169      0.0112
         7        -0.0025     -0.0513     -0.0005      0.0543      0.0362
         8        -0.0688     -0.0084      0.0000      0.0772      0.0515
         9        -0.0055     -0.0040     -0.0006      0.0100      0.0067
        10        -0.0024     -0.0007      0.0005      0.0026      0.0017
        11        -0.0011     -0.0007     -0.0003      0.0020      0.0014
        12        -0.0004     -0.0009     -0.0004      0.0017      0.0011
        13        -0.0001     -0.0007      0.0010     -0.0002     -0.0001
        14        -0.0017      0.0000     -0.0002      0.0018      0.0012
        15        -0.0005      0.0000      0.0001      0.0004      0.0003

 Excitation energies and oscillator strengths:
 
 Excited State   1:      Singlet-A      7.1002 eV  174.62 nm  f=0.2357  <S**2>=0.000
      18 -> 19         0.67873
 This state for optimization and/or second-order correction.
 Total Energy, E(CIS) =  -228.478006447    
 Copying the excited state density for this state as the 1-particle RhoCI density.
 
 Excited State   2:      Singlet-A      7.1372 eV  173.72 nm  f=0.0046  <S**2>=0.000
      17 -> 19         0.48392
      18 -> 20         0.49999
 
 Excited State   3:      Singlet-A      8.3316 eV  148.81 nm  f=0.0003  <S**2>=0.000
      18 -> 21         0.69453
      18 -> 22         0.10681
 
 Excited State   4:      Singlet-A      8.8529 eV  140.05 nm  f=0.0091  <S**2>=0.000
      16 -> 19         0.69476
 
 Excited State   5:      Singlet-A      9.0385 eV  137.17 nm  f=0.0004  <S**2>=0.000
      18 -> 21        -0.10540
      18 -> 22         0.69108
 
 Excited State   6:      Singlet-A      9.5434 eV  129.92 nm  f=0.1342  <S**2>=0.000
      17 -> 19        -0.22635
      17 -> 21         0.21652
      18 -> 20         0.22296
      18 -> 23         0.54799
      18 -> 24         0.15711
 
 Excited State   7:      Singlet-A      9.6222 eV  128.85 nm  f=0.4282  <S**2>=0.000
      17 -> 19         0.40053
      18 -> 20        -0.39196
      18 -> 23         0.34812
 
 Excited State   8:      Singlet-A      9.7680 eV  126.93 nm  f=0.1682  <S**2>=0.000
      15 -> 19        -0.19331
      16 -> 20        -0.10679
      17 -> 20         0.63416
 
 Excited State   9:      Singlet-A      9.8922 eV  125.34 nm  f=0.0242  <S**2>=0.000
      15 -> 19         0.45237
      16 -> 20         0.11482
      17 -> 20         0.21956
      17 -> 21         0.42138
      18 -> 23        -0.16843
 
 Excited State  10:      Singlet-A      9.9038 eV  125.19 nm  f=0.0166  <S**2>=0.000
      15 -> 19        -0.45017
      16 -> 20        -0.12291
      17 -> 21         0.47883
      18 -> 23        -0.12948
 
 Excited State  11:      Singlet-A     10.1331 eV  122.36 nm  f=0.0084  <S**2>=0.000
      14 -> 19         0.11473
      17 -> 21        -0.16072
      18 -> 24         0.66419
 
 Excited State  12:      Singlet-A     10.2662 eV  120.77 nm  f=0.0032  <S**2>=0.000
      14 -> 19         0.66117
      15 -> 19        -0.12737
      16 -> 20         0.12894
      18 -> 24        -0.10758
 
 Excited State  13:      Singlet-A     10.5818 eV  117.17 nm  f=0.0017  <S**2>=0.000
      17 -> 22         0.68920
 
 Excited State  14:      Singlet-A     10.6211 eV  116.73 nm  f=0.0029  <S**2>=0.000
      14 -> 19        -0.15964
      15 -> 19        -0.16410
      16 -> 20         0.64894
 
 Excited State  15:      Singlet-A     10.9827 eV  112.89 nm  f=0.0039  <S**2>=0.000
      18 -> 25         0.67540
      18 -> 26         0.14107
 SavETr:  write IOETrn=   770 NScale= 10 NData=  16 NLR=1 NState=   15 LETran=     280.
 The selected state is a singlet
 CISAX will form     1 AO SS matrices at one time.
 NMat=     1 NSing=     1 JSym2X= 0.
 CISAX will form     1 AO SS matrices at one time.
 NMat=     1 NSing=     1 JSym2X= 0.
 Leave Link  914 at Tue Dec 15 16:27:10 2015, MaxMem=    33554432 cpu:        33.9
 (Enter /home/Applications/g09/g09/l1002.exe)
 Minotr:  Closed shell wavefunction.
          Computing CIS/TD-HF/TD-KS derivatives.
          Using Z-Vector for PSCF gradient.
          Skipping F1 and S1 gradient terms here.
          IDoAtm=111111111
          Frozen-core window.
          Direct CPHF calculation.
          Differentiating once with respect to electric field.
                with respect to dipole field.
          Differentiating once with respect to nuclear coordinates.
          Requested convergence is 1.0D-10 RMS, and 1.0D-09 maximum.
          NewPWx=F KeepS1=T KeepF1=T KeepIn=T MapXYZ=F SortEE=F KeepMc=T.
          MDV=      33554290 using IRadAn=       0.
 Using stored XC quadrature information.
 Keep R1 ints in memory in canonical form, NReq=1898913.
 FoFCou: FMM=F IPFlag=           0 FMFlag=           0 FMFlg1=           0
         NFxFlg=           0 DoJE=F BraDBF=F KetDBF=F FulRan=T
         wScrn=  0.000000 ICntrl=     600 IOpCl=  0 I1Cent=           0 NGrid=           0
         NMat0=    1 NMatS0=   1431 NMatT0=    0 NMatD0=    1 NMtDS0=    0 NMtDT0=    0
 Symmetry not used in FoFCou.
          Solving linear equations separately, MaxMat=       0.
          There are     1 degrees of freedom in the 1st order CPHF.  IDoFFX=0 NUNeed=     1.
 LinEq1:  Iter=  0 NonCon=     1 RMS=2.84D-02 Max=4.50D-01 NDo=     1
 AX will form     1 AO Fock derivatives at one time.
 LinEq1:  Iter=  1 NonCon=     1 RMS=2.53D-02 Max=5.09D-01 NDo=     1
 LinEq1:  Iter=  2 NonCon=     1 RMS=1.34D-02 Max=2.33D-01 NDo=     1
 LinEq1:  Iter=  3 NonCon=     1 RMS=3.75D-03 Max=2.54D-02 NDo=     1
 LinEq1:  Iter=  4 NonCon=     1 RMS=2.15D-03 Max=2.60D-02 NDo=     1
 LinEq1:  Iter=  5 NonCon=     1 RMS=9.93D-04 Max=1.22D-02 NDo=     1
 LinEq1:  Iter=  6 NonCon=     1 RMS=5.46D-04 Max=5.74D-03 NDo=     1
 LinEq1:  Iter=  7 NonCon=     1 RMS=2.24D-04 Max=1.81D-03 NDo=     1
 LinEq1:  Iter=  8 NonCon=     1 RMS=8.20D-05 Max=4.50D-04 NDo=     1
 LinEq1:  Iter=  9 NonCon=     1 RMS=1.48D-05 Max=1.19D-04 NDo=     1
 LinEq1:  Iter= 10 NonCon=     1 RMS=1.55D-06 Max=7.65D-06 NDo=     1
 LinEq1:  Iter= 11 NonCon=     1 RMS=1.68D-07 Max=1.05D-06 NDo=     1
 LinEq1:  Iter= 12 NonCon=     1 RMS=1.30D-08 Max=9.38D-08 NDo=     1
 LinEq1:  Iter= 13 NonCon=     1 RMS=2.09D-09 Max=1.36D-08 NDo=     1
 LinEq1:  Iter= 14 NonCon=     1 RMS=2.34D-10 Max=1.16D-09 NDo=     1
 LinEq1:  Iter= 15 NonCon=     0 RMS=2.84D-11 Max=2.15D-10 NDo=     1
 Linear equations converged to 1.000D-10 1.000D-09 after    15 iterations.
 End of Minotr F.D. properties file   721 does not exist.
 End of Minotr F.D. properties file   722 does not exist.
 End of Minotr F.D. properties file   788 does not exist.
 Leave Link 1002 at Tue Dec 15 16:27:19 2015, MaxMem=    33554432 cpu:         9.0
 (Enter /home/Applications/g09/g09/l601.exe)
 Copying SCF densities to generalized density rwf, IOpCl= 0 IROHF=0.

 **********************************************************************

            Population analysis using the SCF density.

 **********************************************************************

 Orbital symmetries:
       Occupied  (A) (A) (A) (A) (A) (A) (A) (A) (A) (A) (A) (A)
                 (A) (A) (A) (A) (A) (A)
       Virtual   (A) (A) (A) (A) (A) (A) (A) (A) (A) (A) (A) (A)
                 (A) (A) (A) (A) (A) (A) (A) (A) (A) (A) (A) (A)
                 (A) (A) (A) (A) (A) (A) (A) (A) (A) (A) (A)
 The electronic state is 1-A.
 Alpha  occ. eigenvalues --  -19.12784 -10.17828 -10.17788 -10.13102 -10.12318
 Alpha  occ. eigenvalues --   -1.15367  -0.80885  -0.74791  -0.60492  -0.56643
 Alpha  occ. eigenvalues --   -0.54432  -0.46224  -0.44746  -0.41422  -0.40146
 Alpha  occ. eigenvalues --   -0.36508  -0.28305  -0.22465
 Alpha virt. eigenvalues --    0.01877   0.07831   0.12586   0.14867   0.17325
 Alpha virt. eigenvalues --    0.18725   0.22829   0.23884   0.33623   0.41471
 Alpha virt. eigenvalues --    0.47223   0.69671   0.69983   0.71520   0.74069
 Alpha virt. eigenvalues --    0.77029   0.78534   0.79616   0.81250   0.83701
 Alpha virt. eigenvalues --    0.94756   0.96318   0.98644   1.02732   1.19010
 Alpha virt. eigenvalues --    1.20260   1.33520   1.37827   1.49772   1.58250
 Alpha virt. eigenvalues --    1.60347   1.71755   1.95674   2.10490   3.22179
     Molecular Orbital Coefficients:
                           1         2         3         4         5
                           O         O         O         O         O
     Eigenvalues --   -19.12784 -10.17828 -10.17788 -10.13102 -10.12318
   1 1   C  1S          0.00018  -0.01001  -0.00696   0.98292   0.07806
   2        2S          0.00080  -0.00416  -0.00280   0.10973   0.00451
   3        2PX        -0.00143  -0.00155  -0.00130  -0.00058   0.00110
   4        2PY         0.00014   0.00082   0.00113  -0.00222   0.00089
   5        2PZ        -0.00002  -0.00003  -0.00002   0.00018   0.00004
   6        3S         -0.00297   0.03694   0.00596  -0.10376   0.03126
   7        3PX         0.00192   0.01000   0.00369   0.00838  -0.01596
   8        3PY         0.00704  -0.01725   0.00024   0.03165  -0.01552
   9        3PZ         0.00009   0.00065  -0.00008  -0.00123   0.00011
  10 2   C  1S         -0.00034   0.82958   0.53192   0.01180   0.00139
  11        2S         -0.00012   0.09140   0.05478  -0.00279  -0.00067
  12        2PX        -0.00119  -0.00264  -0.00035   0.00124   0.00060
  13        2PY        -0.00255  -0.00114  -0.00110  -0.00115  -0.00111
  14        2PZ        -0.00005  -0.00015  -0.00013   0.00004   0.00001
  15        3S          0.01589  -0.06905  -0.02498   0.03716  -0.00494
  16        3PX        -0.01214   0.02326  -0.00842  -0.02093   0.00241
  17        3PY        -0.00715  -0.01024  -0.00330   0.00994   0.00169
  18        3PZ        -0.00063   0.00078   0.00030  -0.00069   0.00018
  19 3   O  1S          0.98284   0.00008   0.00046   0.00008   0.00010
  20        2S          0.10847   0.00063   0.00283   0.00035   0.00046
  21        2PX        -0.00193   0.00026  -0.00032   0.00002   0.00001
  22        2PY         0.00401   0.00041   0.00071  -0.00006  -0.00005
  23        2PZ         0.00019   0.00004   0.00008   0.00003   0.00000
  24        3S         -0.06320  -0.00051  -0.00267  -0.00356  -0.00433
  25        3PX         0.00663  -0.00064   0.00313  -0.00114   0.00278
  26        3PY        -0.01311  -0.00164  -0.00501  -0.00246  -0.00120
  27        3PZ        -0.00058  -0.00017  -0.00049  -0.00011  -0.00006
  28 4   C  1S         -0.00031  -0.53291   0.82893  -0.00038   0.00992
  29        2S         -0.00009  -0.06041   0.08794  -0.00034  -0.00309
  30        2PX         0.00258  -0.00194   0.00193   0.00041   0.00016
  31        2PY        -0.00078  -0.00123   0.00005  -0.00087  -0.00176
  32        2PZ        -0.00004   0.00003  -0.00015   0.00004  -0.00001
  33        3S          0.01855   0.05288  -0.05052  -0.00992   0.03784
  34        3PX         0.01589   0.01016   0.00653  -0.00255   0.00584
  35        3PY         0.00601   0.02373  -0.00525  -0.00315   0.02238
  36        3PZ        -0.00049  -0.00007   0.00039  -0.00006  -0.00036
  37 5   C  1S          0.00020   0.00517  -0.00884  -0.07852   0.98288
  38        2S          0.00092   0.00250  -0.00398  -0.01292   0.10959
  39        2PX         0.00088  -0.00028   0.00000  -0.00164   0.00157
  40        2PY         0.00106  -0.00091   0.00229  -0.00012  -0.00089
  41        2PZ         0.00000   0.00000  -0.00002   0.00004   0.00004
  42        3S         -0.00478  -0.03059   0.01921   0.04508  -0.09990
  43        3PX        -0.00986  -0.00851  -0.00096   0.02524  -0.02788
  44        3PY         0.00455   0.01639  -0.00967  -0.00014   0.01519
  45        3PZ         0.00001  -0.00019   0.00006  -0.00023   0.00003
  46 6   H  1S         -0.00120   0.00013  -0.00124  -0.00004  -0.00429
  47        2S         -0.00432  -0.00251  -0.00017   0.00425   0.00482
  48 7   H  1S          0.00047   0.00290  -0.00178   0.00002  -0.00032
  49        2S          0.00418   0.00153   0.01205   0.00033   0.00467
  50 8   H  1S          0.00023  -0.00336  -0.00046  -0.00018  -0.00017
  51        2S          0.00308   0.00296   0.01041   0.00461   0.00036
  52 9   H  1S         -0.00091  -0.00078  -0.00092  -0.00290  -0.00027
  53        2S         -0.00240   0.00162  -0.00027   0.00389   0.00495
                           6         7         8         9        10
                           O         O         O         O         O
     Eigenvalues --    -1.15367  -0.80885  -0.74791  -0.60492  -0.56643
   1 1   C  1S         -0.02381   0.14588  -0.06063   0.10540   0.05408
   2        2S          0.02224  -0.15688   0.06532  -0.10731  -0.05486
   3        2PX         0.00437   0.04413   0.07330  -0.11782   0.16766
   4        2PY        -0.02950   0.08492  -0.03690  -0.00677  -0.05835
   5        2PZ         0.00064  -0.00509   0.00244  -0.00528  -0.00021
   6        3S          0.03359  -0.28966   0.12222  -0.35870  -0.17841
   7        3PX        -0.00973   0.00716  -0.02080  -0.03702   0.06058
   8        3PY        -0.03763   0.03982  -0.00345   0.03464  -0.01802
   9        3PZ         0.00011  -0.00347   0.00069  -0.00487  -0.00107
  10 2   C  1S         -0.07386   0.05197  -0.14631   0.00267  -0.10588
  11        2S          0.08031  -0.06102   0.15733  -0.00547   0.11647
  12        2PX        -0.06213   0.06154  -0.02380   0.04380   0.10105
  13        2PY        -0.06590  -0.10047  -0.03666  -0.21687   0.05511
  14        2PZ        -0.00304   0.00159  -0.00610  -0.00054  -0.00103
  15        3S          0.05672  -0.07935   0.35915   0.03210   0.33315
  16        3PX         0.03632   0.02771  -0.03579   0.00441   0.04957
  17        3PY         0.01160  -0.02171   0.01874  -0.07312   0.04480
  18        3PZ         0.00099   0.00128  -0.00323  -0.00045  -0.00098
  19 3   O  1S         -0.21213  -0.08349  -0.00120  -0.00915   0.05666
  20        2S          0.19219   0.08048   0.00082   0.00837  -0.05734
  21        2PX        -0.05363   0.00727   0.22657   0.24029   0.01340
  22        2PY         0.10649  -0.02528   0.10376   0.09424   0.02299
  23        2PZ         0.00484   0.00174   0.00057   0.00166   0.00082
  24        3S          0.68234   0.30745   0.00412   0.03736  -0.24265
  25        3PX        -0.06684   0.00054   0.18721   0.20897   0.01337
  26        3PY         0.13527  -0.00748   0.08708   0.08381   0.01634
  27        3PZ         0.00625   0.00148   0.00071   0.00156   0.00134
  28 4   C  1S         -0.07852   0.05210   0.14507   0.00928  -0.10972
  29        2S          0.08521  -0.06117  -0.15663  -0.00894   0.12088
  30        2PX         0.09721   0.04318  -0.03871  -0.13907  -0.14423
  31        2PY         0.00208  -0.11707   0.01236   0.15228  -0.02137
  32        2PZ        -0.00256   0.00056   0.00490   0.00338  -0.00037
  33        3S          0.05242  -0.07746  -0.35515  -0.05986   0.34587
  34        3PX        -0.04303  -0.00074  -0.00341  -0.05208  -0.08333
  35        3PY        -0.02496  -0.03547  -0.03730   0.03125   0.00055
  36        3PZ         0.00077   0.00027   0.00189   0.00132  -0.00079
  37 5   C  1S         -0.02373   0.15012   0.06063  -0.11188   0.04803
  38        2S          0.02200  -0.16099  -0.06514   0.11346  -0.04830
  39        2PX         0.01939  -0.08863   0.02135  -0.10334  -0.06070
  40        2PY        -0.02208   0.02026   0.07393  -0.04395  -0.18726
  41        2PZ         0.00004  -0.00113  -0.00092   0.00366   0.00179
  42        3S          0.03683  -0.30289  -0.12188   0.38147  -0.16486
  43        3PX         0.04718  -0.04000  -0.01431  -0.00706  -0.02756
  44        3PY        -0.02275   0.02272  -0.01591  -0.03561  -0.06837
  45        3PZ        -0.00012  -0.00039   0.00022   0.00267   0.00075
  46 6   H  1S          0.00785  -0.06150  -0.03383   0.12259  -0.05853
  47        2S          0.02078  -0.01469  -0.00894   0.06726  -0.03237
  48 7   H  1S          0.01116  -0.01576  -0.08209  -0.01387   0.15002
  49        2S         -0.02492  -0.00706  -0.03075  -0.01297   0.08076
  50 8   H  1S          0.01060  -0.01351   0.07901   0.01564   0.13776
  51        2S         -0.01919  -0.00620   0.03196   0.01256   0.07643
  52 9   H  1S          0.00602  -0.04826   0.03005  -0.09288  -0.04534
  53        2S          0.01247  -0.01173   0.01024  -0.05688  -0.02666
                          11        12        13        14        15
                           O         O         O         O         O
     Eigenvalues --    -0.54432  -0.46224  -0.44746  -0.41422  -0.40146
   1 1   C  1S         -0.04752   0.00357  -0.05442  -0.01459   0.00494
   2        2S          0.04470  -0.00295   0.05692   0.01487  -0.01108
   3        2PX         0.00247   0.00057  -0.01965  -0.25468   0.06312
   4        2PY         0.17345   0.00648   0.07764  -0.03982   0.31141
   5        2PZ         0.00213   0.09862   0.00452  -0.00304   0.00001
   6        3S          0.20181  -0.01706   0.19917   0.08125  -0.01676
   7        3PX         0.02777   0.00393  -0.00576  -0.11012   0.06713
   8        3PY         0.10283   0.01301   0.06099  -0.04555   0.22317
   9        3PZ         0.00360   0.07004   0.00440   0.00025   0.00059
  10 2   C  1S         -0.00594  -0.00418   0.04398   0.02155   0.03452
  11        2S          0.00399   0.00451  -0.04558  -0.02837  -0.04066
  12        2PX         0.17357   0.00144  -0.19021   0.21629   0.14018
  13        2PY         0.01468  -0.00378  -0.11813  -0.05363  -0.10051
  14        2PZ         0.00317   0.18288   0.00198   0.01110   0.00140
  15        3S          0.04171   0.01528  -0.15880  -0.08115  -0.11768
  16        3PX         0.13668  -0.00677  -0.12238   0.17736   0.09198
  17        3PY        -0.03680  -0.00002  -0.07724  -0.09550  -0.03476
  18        3PZ         0.00132   0.16745   0.00339   0.00881  -0.00068
  19 3   O  1S         -0.04961   0.00493  -0.01043  -0.01660   0.00356
  20        2S          0.04863  -0.00487   0.01020   0.02076  -0.00598
  21        2PX         0.06023  -0.01218   0.24117   0.07406  -0.02972
  22        2PY        -0.19773   0.00251   0.05797  -0.20536   0.10094
  23        2PZ        -0.00202   0.39570   0.01569   0.00828  -0.00815
  24        3S          0.18759  -0.01957   0.03949   0.03043   0.00715
  25        3PX         0.05390  -0.01199   0.23151   0.08082  -0.02628
  26        3PY        -0.18096   0.00200   0.05485  -0.21086   0.10737
  27        3PZ        -0.00210   0.39609   0.01575   0.00747  -0.00795
  28 4   C  1S          0.00361  -0.00165  -0.02950  -0.00821  -0.03497
  29        2S         -0.00659   0.00248   0.02809   0.00932   0.04334
  30        2PX        -0.09538   0.01820  -0.23324  -0.01192   0.06739
  31        2PY        -0.16770   0.00101  -0.07115   0.05271   0.24821
  32        2PZ         0.00108   0.19193   0.01092   0.00153  -0.00658
  33        3S          0.01605   0.00062   0.11288   0.02391   0.12573
  34        3PX        -0.05439   0.01009  -0.13349   0.02864   0.03801
  35        3PY        -0.14823   0.00488  -0.06819  -0.02189   0.19871
  36        3PZ        -0.00005   0.17455   0.00864   0.00213  -0.00549
  37 5   C  1S         -0.03567  -0.00026   0.04266  -0.01976   0.00575
  38        2S          0.03198  -0.00001  -0.04560   0.02375  -0.00426
  39        2PX        -0.13881  -0.00611   0.09488   0.32688  -0.02342
  40        2PY         0.15085   0.00489  -0.04599  -0.03786  -0.21688
  41        2PZ         0.00223   0.10015   0.00125  -0.00877   0.00111
  42        3S          0.17035   0.00640  -0.13993   0.09541  -0.03219
  43        3PX        -0.09267  -0.00159   0.06146   0.21279   0.01659
  44        3PY         0.06902   0.00433  -0.04249  -0.04226  -0.09983
  45        3PZ         0.00205   0.07001   0.00069  -0.00556  -0.00142
  46 6   H  1S          0.13005   0.00696  -0.11924  -0.19279  -0.06692
  47        2S          0.06761   0.00454  -0.08461  -0.17302  -0.05390
  48 7   H  1S          0.08777  -0.00747   0.17054  -0.00917  -0.12058
  49        2S          0.03758  -0.00398   0.13406  -0.01327  -0.11289
  50 8   H  1S          0.08877   0.00554  -0.17230   0.12610   0.05327
  51        2S          0.04026   0.00743  -0.13846   0.11022   0.05448
  52 9   H  1S          0.11734   0.00235   0.09980  -0.05542   0.21751
  53        2S          0.06607  -0.00216   0.07316  -0.05304   0.20917
                          16        17        18        19        20
                           O         O         O         V         V
     Eigenvalues --    -0.36508  -0.28305  -0.22465   0.01877   0.07831
   1 1   C  1S          0.01014  -0.00452   0.00282  -0.00084  -0.00883
   2        2S         -0.00901   0.00506  -0.00424  -0.00085   0.00614
   3        2PX        -0.20447   0.01578  -0.00095  -0.00260   0.00329
   4        2PY         0.10048  -0.00305   0.00014   0.00910   0.01220
   5        2PZ        -0.01397  -0.29805   0.18078  -0.17374  -0.34101
   6        3S         -0.08455   0.01954   0.00236   0.00504   0.06986
   7        3PX        -0.17300   0.01671  -0.00416  -0.01390   0.02136
   8        3PY         0.05451   0.00055  -0.01099   0.01695   0.04412
   9        3PZ        -0.01374  -0.30301   0.19866  -0.28352  -0.67688
  10 2   C  1S         -0.01714   0.00085  -0.00477  -0.00494  -0.00286
  11        2S          0.02095  -0.00062   0.00636   0.00055  -0.00021
  12        2PX         0.08993  -0.00284  -0.01214  -0.00368   0.00308
  13        2PY        -0.19878   0.00430   0.00025   0.00147  -0.01352
  14        2PZ        -0.00358  -0.07342   0.33314   0.32151   0.21012
  15        3S          0.05936  -0.00365   0.01253   0.05594   0.04306
  16        3PX         0.04133  -0.00016  -0.00163  -0.01281  -0.00430
  17        3PY        -0.03101  -0.00078  -0.00159   0.01075  -0.02634
  18        3PZ        -0.00331  -0.04243   0.36363   0.48236   0.39890
  19 3   O  1S          0.06642  -0.00027  -0.00059  -0.00022   0.00116
  20        2S         -0.06597   0.00023   0.00035  -0.00065  -0.00051
  21        2PX        -0.13659   0.00389   0.00115  -0.00145  -0.00584
  22        2PY         0.32845  -0.01333  -0.00141   0.00224  -0.00418
  23        2PZ         0.00427   0.28556   0.00540  -0.29994   0.00694
  24        3S         -0.25257   0.00089   0.00369   0.00261  -0.01143
  25        3PX        -0.14807   0.00379   0.00356  -0.00175  -0.01303
  26        3PY         0.35703  -0.01457  -0.00027   0.00296  -0.00937
  27        3PZ         0.00550   0.32465   0.00784  -0.41886   0.01088
  28 4   C  1S         -0.02213   0.00084   0.00401  -0.00313   0.00192
  29        2S          0.02651  -0.00074  -0.00529  -0.00041  -0.00104
  30        2PX         0.07352  -0.00008  -0.00803  -0.00168  -0.00476
  31        2PY        -0.19639   0.00576  -0.00007  -0.00082   0.00661
  32        2PZ        -0.01034  -0.06386  -0.32766   0.32218  -0.21716
  33        3S          0.07841  -0.00442  -0.01118   0.03467  -0.02727
  34        3PX        -0.01760   0.00065  -0.00212  -0.00105  -0.01029
  35        3PY        -0.04646   0.00058   0.00594   0.00225   0.00664
  36        3PZ        -0.00800  -0.03280  -0.35437   0.48478  -0.41068
  37 5   C  1S          0.01876  -0.00182  -0.00095   0.00221   0.00474
  38        2S         -0.01679   0.00152   0.00202  -0.00360  -0.00573
  39        2PX         0.07049  -0.01412  -0.00613  -0.00977   0.00247
  40        2PY         0.20950  -0.01237  -0.00355   0.00277  -0.00505
  41        2PZ        -0.01642  -0.29523  -0.18736  -0.16242   0.34395
  42        3S         -0.13136   0.01404  -0.00878  -0.01427  -0.01943
  43        3PX         0.07353  -0.01199  -0.01591  -0.01292   0.03037
  44        3PY         0.16085  -0.00946  -0.00002   0.00193  -0.01071
  45        3PZ        -0.01384  -0.30372  -0.20679  -0.26567   0.68581
  46 6   H  1S          0.00396   0.00146   0.00008  -0.00239   0.00558
  47        2S          0.02246   0.00171  -0.00278  -0.00349   0.02773
  48 7   H  1S          0.11042  -0.00602   0.00273  -0.00584   0.00336
  49        2S          0.11159  -0.00839   0.00633  -0.01685   0.01121
  50 8   H  1S          0.09728  -0.00509  -0.00521  -0.00601  -0.00531
  51        2S          0.09904  -0.00736  -0.01038  -0.01872  -0.02608
  52 9   H  1S          0.01905  -0.00120   0.00248  -0.00474  -0.01289
  53        2S          0.03906  -0.00205   0.00635  -0.01313  -0.06980
                          21        22        23        24        25
                           V         V         V         V         V
     Eigenvalues --     0.12586   0.14867   0.17325   0.18725   0.22829
   1 1   C  1S          0.05677   0.06175   0.05088  -0.08226  -0.07652
   2        2S         -0.03179  -0.05366  -0.05053   0.06058   0.01443
   3        2PX        -0.01022  -0.02776  -0.00005   0.03308  -0.00749
   4        2PY        -0.21318  -0.09165   0.04768   0.13467   0.06031
   5        2PZ        -0.01908  -0.00581  -0.00301   0.02137   0.01283
   6        3S         -0.67443  -0.54720  -0.27859   0.79138   1.47563
   7        3PX        -0.06890  -0.13534  -0.04832   0.16804  -0.26963
   8        3PY        -0.56339  -0.40375  -0.11632   0.70866  -0.07566
   9        3PZ        -0.04735  -0.01298  -0.00076   0.06698   0.04648
  10 2   C  1S          0.05487  -0.10701  -0.05904   0.01516  -0.04530
  11        2S         -0.03484   0.07793   0.04414  -0.03021   0.04160
  12        2PX        -0.16100   0.05125   0.24196   0.08170  -0.11519
  13        2PY        -0.02923  -0.14700   0.06041  -0.04859  -0.27264
  14        2PZ         0.01201  -0.00861  -0.00310  -0.00495  -0.01099
  15        3S         -0.69958   0.97486   0.71824   0.07603   0.23664
  16        3PX        -0.37970   0.37014   0.86552   0.04537  -0.22038
  17        3PY        -0.07672  -0.34837   0.23951  -0.24960  -0.91911
  18        3PZ         0.02882  -0.00997  -0.00382  -0.02984  -0.02909
  19 3   O  1S          0.00916   0.09528  -0.01611   0.02642   0.07197
  20        2S         -0.00309  -0.06952   0.01059  -0.01681  -0.03426
  21        2PX         0.02037   0.04392  -0.03456   0.05939  -0.18024
  22        2PY        -0.06034  -0.13805   0.00211  -0.02537  -0.13211
  23        2PZ        -0.00629  -0.00458   0.00090  -0.00213  -0.00832
  24        3S         -0.10184  -0.78880   0.14166  -0.24388  -0.75666
  25        3PX         0.05166   0.08137  -0.02002   0.05900  -0.33496
  26        3PY        -0.11435  -0.22096   0.02860  -0.07888  -0.33274
  27        3PZ        -0.01170  -0.01028   0.00179  -0.00469  -0.01938
  28 4   C  1S          0.05593  -0.08444   0.07654  -0.03221   0.07827
  29        2S         -0.04074   0.05626  -0.05611   0.04263  -0.05111
  30        2PX         0.09248   0.06866   0.15716   0.11514   0.09407
  31        2PY         0.05786  -0.13350   0.17788   0.09443  -0.02786
  32        2PZ         0.00409  -0.00895   0.00719   0.00292   0.00688
  33        3S         -0.66751   0.81568  -0.89271  -0.03143  -1.13849
  34        3PX         0.29813   0.08226   0.65165   0.10682   0.43931
  35        3PY         0.12774  -0.50266   0.63232   0.08677  -0.26021
  36        3PZ         0.00776  -0.01937   0.01814   0.02099   0.01857
  37 5   C  1S          0.02413   0.01555  -0.04384   0.11057  -0.02039
  38        2S         -0.00792  -0.01593   0.04977  -0.08676   0.01023
  39        2PX         0.10677   0.04700   0.07604   0.14796  -0.20494
  40        2PY        -0.07003  -0.00452  -0.01594  -0.12036  -0.13620
  41        2PZ         0.00174   0.00122  -0.00169  -0.01865  -0.00203
  42        3S         -0.41308  -0.14880   0.16890  -1.20010   0.35745
  43        3PX         0.25387   0.22966  -0.07776   0.86381  -0.94578
  44        3PY        -0.23841  -0.06071   0.06897  -0.53010  -0.71653
  45        3PZ         0.00490   0.01136  -0.00584  -0.06810   0.00625
  46 6   H  1S          0.07025   0.04510  -0.01488   0.06765   0.00212
  47        2S          0.72446   0.39749  -0.15085   1.76723  -0.69786
  48 7   H  1S          0.05821  -0.06748   0.07006  -0.01048  -0.04251
  49        2S          0.73779  -0.82328   1.48904   0.20116   0.56566
  50 8   H  1S          0.06547  -0.08136  -0.06012   0.00338   0.01599
  51        2S          0.86316  -0.96492  -1.31813  -0.12367   0.09350
  52 9   H  1S          0.10164   0.07341   0.00817  -0.03940   0.06593
  53        2S          1.09472   0.80733   0.20902  -1.11189  -0.37983
                          26        27        28        29        30
                           V         V         V         V         V
     Eigenvalues --     0.23884   0.33623   0.41471   0.47223   0.69671
   1 1   C  1S          0.00455   0.08214  -0.03327   0.11858  -0.01823
   2        2S         -0.00200  -0.04202  -0.00929  -0.01622   0.05031
   3        2PX         0.24638   0.01549   0.23631   0.09595   0.55362
   4        2PY         0.05866   0.15827  -0.12179   0.20210  -0.24905
   5        2PZ         0.00085   0.00142   0.00468   0.01323  -0.04392
   6        3S         -0.02332  -1.33081   1.07330  -3.03309  -0.04939
   7        3PX         1.28043  -0.62422   1.43406   1.30573  -0.49944
   8        3PY         0.15462   1.08114  -1.16016   2.07175   0.16354
   9        3PZ         0.00876  -0.02623   0.04831  -0.03577   0.02020
  10 2   C  1S          0.07500  -0.08343   0.04176  -0.08341   0.04545
  11        2S         -0.04756   0.00369  -0.01442   0.03567   0.01278
  12        2PX         0.00156  -0.24414   0.06131  -0.17350   0.13660
  13        2PY        -0.04315   0.12343  -0.12343  -0.24906   0.33537
  14        2PZ         0.00793  -0.01168   0.00114   0.00102  -0.08086
  15        3S         -1.10323   1.42165  -1.21876   1.41100   0.09046
  16        3PX         0.09699  -1.25716   0.77801  -1.45306   0.06190
  17        3PY        -0.37677   0.43690  -1.60954   0.15276  -0.43870
  18        3PZ         0.03084  -0.06199   0.03307  -0.05251   0.08032
  19 3   O  1S          0.06480   0.05843  -0.00504  -0.00613  -0.02739
  20        2S         -0.02984  -0.02707   0.00284   0.00302   0.08377
  21        2PX         0.23206   0.05789  -0.19036  -0.23443  -0.06311
  22        2PY         0.06285  -0.17125  -0.09040  -0.09000   0.18205
  23        2PZ        -0.00932   0.00181  -0.00370  -0.00328  -0.00696
  24        3S         -0.70156  -0.73664   0.06697   0.08085  -0.14256
  25        3PX         0.52227   0.18055  -0.52458  -0.48373  -0.05805
  26        3PY         0.07161  -0.47886  -0.23407  -0.16893   0.07802
  27        3PZ        -0.01955   0.00055  -0.00601  -0.00132  -0.02189
  28 4   C  1S         -0.05029  -0.07262  -0.04230   0.09401   0.04942
  29        2S          0.03893  -0.00384   0.02325  -0.02681   0.00783
  30        2PX         0.27563   0.04397  -0.06967  -0.29983  -0.25368
  31        2PY        -0.05638   0.27216   0.12727   0.02778   0.07996
  32        2PZ        -0.00424  -0.00703   0.00632  -0.00437  -0.07749
  33        3S          0.36664   1.30681   1.25380  -1.66441  -0.12938
[...]
               1          2          3          4          5          6
     1  C    5.237060   0.479253  -0.075033  -0.147359   0.427054  -0.029053
     2  C    0.479253   5.111914   0.288338  -0.170086  -0.147135   0.005033
     3  O   -0.075033   0.288338   8.106419   0.285392  -0.067105   0.001861
     4  C   -0.147359  -0.170086   0.285392   5.081835   0.475232  -0.025451
     5  C    0.427054  -0.147135  -0.067105   0.475232   5.246762   0.388971
     6  H   -0.029053   0.005033   0.001861  -0.025451   0.388971   0.469847
     7  H    0.003493   0.004512  -0.028089   0.383420  -0.042720  -0.000499
     8  H   -0.035553   0.380848  -0.026427   0.004246   0.002752  -0.000033
     9  H    0.375412  -0.028730   0.001624   0.004492  -0.022541  -0.001173
               7          8          9
     1  C    0.003493  -0.035553   0.375412
     2  C    0.004512   0.380848  -0.028730
     3  O   -0.028089  -0.026427   0.001624
     4  C    0.383420   0.004246   0.004492
     5  C   -0.042720   0.002752  -0.022541
     6  H   -0.000499  -0.000033  -0.001173
     7  H    0.466771  -0.000061  -0.000032
     8  H   -0.000061   0.463661  -0.000275
     9  H   -0.000032  -0.000275   0.486576
 Mulliken charges:
               1
     1  C   -0.235274
     2  C    0.076054
     3  O   -0.486979
     4  C    0.108279
     5  C   -0.261271
     6  H    0.190498
     7  H    0.213204
     8  H    0.210842
     9  H    0.184647
 Sum of Mulliken charges =   0.00000
 Mulliken charges with hydrogens summed into heavy atoms:
               1
     1  C   -0.050627
     2  C    0.286896
     3  O   -0.486979
     4  C    0.321483
     5  C   -0.070773
 Electronic spatial extent (au):  <R**2>=            290.6752
 Charge=              0.0000 electrons
 Dipole moment (field-independent basis, Debye):
    X=             -0.2667    Y=              0.5984    Z=              0.0757  Tot=              0.6595
 Quadrupole moment (field-independent basis, Debye-Ang):
   XX=            -24.5307   YY=            -27.4564   ZZ=            -31.9222
   XY=              1.5930   XZ=              0.0006   YZ=              0.0996
 Traceless Quadrupole moment (field-independent basis, Debye-Ang):
   XX=              3.4391   YY=              0.5134   ZZ=             -3.9524
   XY=              1.5930   XZ=              0.0006   YZ=              0.0996
 Octapole moment (field-independent basis, Debye-Ang**2):
  XXX=              3.7984  YYY=             -0.1707  ZZZ=             -0.0850  XYY=             -2.8106
  XXY=             -1.3686  XXZ=              0.1889  XZZ=              1.2742  YZZ=             -3.3020
  YYZ=              0.1913  XYZ=             -0.0506
 Hexadecapole moment (field-independent basis, Debye-Ang**3):
 XXXX=           -148.3258 YYYY=           -155.3617 ZZZZ=            -31.1310 XXXY=             -3.3990
 XXXZ=             -0.2387 YYYX=              6.6976 YYYZ=              0.6432 ZZZX=             -0.0896
 ZZZY=              0.2773 XXYY=            -51.4625 XXZZ=            -38.2628 YYZZ=            -35.9361
 XXYZ=              0.2775 YYXZ=              0.1142 ZZXY=             -1.4988
 N-N= 1.611371771607D+02 E-N=-8.546586905831D+02  KE= 2.268360352292D+02
 Orbital energies and kinetic energies (alpha):
                                 1                 2
   1         O               -19.127836         28.828560
   2         O               -10.178278         15.808033
   3         O               -10.177877         15.794592
   4         O               -10.131021         15.807284
   5         O               -10.123176         15.806158
   6         O                -1.153667          2.557793
   7         O                -0.808848          1.757955
   8         O                -0.747907          1.848717
   9         O                -0.604921          1.675951
  10         O                -0.566433          1.471780
  11         O                -0.544323          1.279999
  12         O                -0.462240          1.653758
  13         O                -0.447457          1.477602
  14         O                -0.414224          1.514918
  15         O                -0.401465          1.352626
  16         O                -0.365076          2.088477
  17         O                -0.283048          1.471407
  18         O                -0.224651          1.222408
  19         V                 0.018772          1.866873
  20         V                 0.078309          1.496119
  21         V                 0.125864          1.087334
  22         V                 0.148669          1.769873
  23         V                 0.173253          1.226493
  24         V                 0.187248          1.292026
  25         V                 0.228291          1.928029
  26         V                 0.238844          1.954870
  27         V                 0.336229          2.051816
  28         V                 0.414707          1.722941
  29         V                 0.472231          2.794195
  30         V                 0.696712          2.583949
  31         V                 0.699832          2.516485
  32         V                 0.715204          2.851313
  33         V                 0.740689          2.640816
  34         V                 0.770293          2.518481
  35         V                 0.785342          2.562131
  36         V                 0.796165          2.683762
  37         V                 0.812499          2.607803
  38         V                 0.837006          2.594009
  39         V                 0.947561          2.958191
  40         V                 0.963180          3.207765
  41         V                 0.986437          3.006360
  42         V                 1.027323          3.120002
  43         V                 1.190096          2.712015
  44         V                 1.202598          2.859225
  45         V                 1.335196          2.547358
  46         V                 1.378270          2.884169
  47         V                 1.497722          4.928407
  48         V                 1.582503          3.432603
  49         V                 1.603472          3.547014
  50         V                 1.717548          4.463189
  51         V                 1.956741          4.192095
  52         V                 2.104898          4.039101
  53         V                 3.221790          6.845438
 Total kinetic energy from orbitals= 2.268360352292D+02
 No NMR shielding tensors so no spin-rotation constants.
 Leave Link  601 at Tue Dec 15 16:27:19 2015, MaxMem=    33554432 cpu:         0.1
 (Enter /home/Applications/g09/g09/l701.exe)
 Compute integral first derivatives.
 ... and contract with generalized density number  6.
 Leave Link  701 at Tue Dec 15 16:27:19 2015, MaxMem=    33554432 cpu:         0.1
 (Enter /home/Applications/g09/g09/l702.exe)
 L702 exits ... SP integral derivatives will be done elsewhere.
 Leave Link  702 at Tue Dec 15 16:27:19 2015, MaxMem=    33554432 cpu:         0.0
 (Enter /home/Applications/g09/g09/l703.exe)
 Compute integral first derivatives, UseDBF=F ICtDFT=           0.
 Integral derivatives from FoFJK, PRISM(SPDF).
 Calling FoFJK, ICntrl=  10005127 FMM=F ISym2X=0 I1Cent= 0 IOpClX= 0 NMat=1 NMatS=1 NMatT=0.
 FoFJK:  IHMeth= 1 ICntrl=10005127 DoSepK=F KAlg= 0 I1Cent=   0 FoldK=F
 IRaf=         0 NMat=   1 IRICut=       1 DoRegI=T DoRafI=F ISym2E= 0.
 FoFCou: FMM=F IPFlag=           0 FMFlag=      100000 FMFlg1=         800
         NFxFlg=           0 DoJE=F BraDBF=F KetDBF=F FulRan=T
         wScrn=  0.000000 ICntrl=10005127 IOpCl=  0 I1Cent=           0 NGrid=           0
         NMat0=    1 NMatS0=      1 NMatT0=    0 NMatD0=    1 NMtDS0=    0 NMtDT0=    0
 Symmetry not used in FoFCou.
 Leave Link  703 at Tue Dec 15 16:27:21 2015, MaxMem=    33554432 cpu:         1.8
 (Enter /home/Applications/g09/g09/l716.exe)
 Dipole        =-2.84393849D-01 1.71873164D-01 1.42558506D-02
 ***** Axes restored to original set *****
 -------------------------------------------------------------------
 Center     Atomic                   Forces (Hartrees/Bohr)
 Number     Number              X              Y              Z
 -------------------------------------------------------------------
      1        6           0.075282059   -0.022688153    0.001237312
      2        6           0.012264016   -0.106655177    0.002926157
      3        8          -0.129458043    0.007425592   -0.004325793
      4        6           0.013582428    0.105981145    0.001055030
      5        6           0.028699212   -0.036356567    0.000282598
      6        1           0.014559303    0.015095224   -0.000623874
      7        1          -0.001264962   -0.011161870    0.000677769
      8        1           0.009120831    0.021299963    0.000880347
      9        1          -0.022784844    0.027059844   -0.002109546
 -------------------------------------------------------------------
 Cartesian Forces:  Max     0.129458043 RMS     0.043236939
 Z-matrix is all fixed cartesians, so copy forces.
 Force constants in Cartesian coordinates: 
                1             2             3             4             5 
      1  0.806174D+00
      2 -0.241512D-01  0.807314D+00
      3 -0.116541D-01 -0.153533D-01  0.193658D+00
      4 -0.444967D+00 -0.905485D-01  0.194410D-01  0.869235D+00
      5 -0.667838D-01 -0.198677D+00  0.806919D-02 -0.289912D-01  0.867330D+00
      6  0.191622D-01  0.823371D-02 -0.881019D-01 -0.932871D-02 -0.281128D-01
      7 -0.830967D-02  0.285622D-01 -0.186533D-02 -0.305953D+00  0.182490D+00
      8 -0.621013D-02  0.214575D-01 -0.673054D-03  0.228456D+00 -0.392477D+00
      9  0.116389D-02 -0.205466D-02  0.957657D-02 -0.134689D-01  0.169618D-01
     10  0.886627D-02  0.182488D-04 -0.922358D-04  0.249419D-01  0.188583D-01
     11  0.347764D-01  0.265491D-04 -0.128523D-02 -0.188620D-01 -0.142595D-01
     12  0.276382D-03 -0.269180D-03 -0.654940D-03  0.134157D-02  0.115088D-02
     13 -0.172331D+00  0.134832D-01  0.364268D-03  0.989012D-02 -0.343747D-01
     14 -0.103198D-01 -0.450855D+00  0.238388D-02  0.549122D-05 -0.272852D-04
     15  0.790990D-03 -0.263329D-02 -0.888985D-01 -0.346216D-03  0.217748D-02
     16  0.185700D-01  0.186910D-04  0.640593D-04 -0.443670D-05  0.000000D+00
     17 -0.241581D-01 -0.253911D-04 -0.540451D-03  0.000000D+00  0.000000D+00
     18 -0.659514D-03  0.508270D-04  0.218797D-01  0.248655D-03  0.123383D-04
     19  0.338829D-05  0.000000D+00  0.160671D-03  0.620973D-05 -0.332473D-05
     20  0.433221D-05  0.000000D+00  0.205431D-03 -0.296144D-05  0.158557D-05
     21  0.111571D-03  0.125608D-04  0.529062D-02 -0.219020D-03  0.117265D-03
     22  0.721831D-02 -0.250375D-01  0.263812D-03 -0.147930D+00 -0.891040D-01
     23 -0.343214D-02  0.119750D-01  0.286405D-03 -0.841849D-01 -0.282241D+00
     24  0.309697D-03  0.258954D-02  0.214906D-01  0.846457D-03  0.158538D-02
     25 -0.215223D+00  0.976545D-01 -0.668219D-02 -0.521927D-02  0.179092D-01
     26  0.100274D+00 -0.191215D+00  0.690709D-02 -0.587278D-02  0.203506D-01
     27 -0.950116D-02  0.942376D-02 -0.742403D-01  0.148513D-02 -0.196153D-02
                6             7             8             9            10 
      6  0.174742D+00
      7 -0.106693D-01  0.605113D+00
      8  0.165099D-01  0.215918D-01  0.788934D+00
      9 -0.488090D-01  0.158385D-01 -0.136156D-01  0.597590D-01
     10  0.706117D-03 -0.327600D+00 -0.248655D+00 -0.522830D-02  0.900859D+00
     11 -0.596870D-03 -0.202797D+00 -0.425002D+00 -0.309766D-02  0.560843D-01
     12 -0.252025D-02 -0.445652D-02 -0.304102D-02 -0.497363D-01 -0.204287D-02
     13 -0.160609D-03 -0.749810D-02  0.564592D-02  0.359658D-03 -0.455610D+00
     14  0.954942D-04 -0.293785D-01  0.221908D-01  0.103073D-02  0.819820D-01
     15 -0.160983D-02 -0.786177D-03  0.163825D-03  0.954549D-02  0.924918D-02
     16 -0.916741D-04  0.109185D-05 -0.138206D-05  0.704793D-04 -0.462919D-02
     17  0.119985D-04 -0.342355D-05  0.433351D-05 -0.220991D-03  0.600936D-02
     18  0.513788D-02  0.958513D-04 -0.121328D-03  0.618722D-02  0.779073D-03
     19 -0.173052D-03  0.226588D-01 -0.171299D-01  0.989008D-03 -0.146827D+00
     20  0.825290D-04  0.978276D-02 -0.739656D-02  0.535578D-03  0.857079D-01
     21  0.610362D-02  0.666791D-03 -0.537427D-03  0.424738D-02 -0.328360D-02
     22  0.188528D-02  0.215843D-01  0.162939D-01  0.158030D-03  0.424068D-05
     23  0.410671D-02 -0.102609D-01 -0.774224D-02  0.444312D-05 -0.571086D-05
     24 -0.636971D-01  0.102709D-02  0.967440D-03  0.415736D-02 -0.192503D-03
     25 -0.133034D-02  0.345699D-05  0.805406D-05  0.117643D-03 -0.562493D-05
     26 -0.330706D-03  0.134113D-04  0.312455D-04  0.456394D-03  0.000000D+00
     27  0.187550D-01  0.149051D-03  0.347257D-03  0.507228D-02  0.105144D-03
               11            12            13            14            15 
     11  0.920417D+00
     12 -0.205809D-02  0.177500D+00
     13  0.597011D-01  0.836596D-02  0.896896D+00
     14 -0.197564D+00 -0.222174D-02  0.678072D-01  0.838761D+00
     15 -0.267875D-02 -0.915459D-01 -0.556208D-02  0.395592D-02  0.207423D+00
     16 -0.181454D-01 -0.476918D-03 -0.296564D+00 -0.136357D+00 -0.297599D-02
     17  0.235916D-01  0.169043D-03 -0.136348D+00 -0.223804D+00 -0.274639D-02
     18  0.132027D-02  0.216248D-01 -0.399628D-02 -0.393891D-02 -0.844727D-01
     19  0.892456D-01 -0.262270D-02  0.666392D-02  0.262409D-01 -0.802176D-03
     20 -0.307212D+00  0.609948D-02  0.287489D-02  0.112742D-01  0.231297D-03
     21  0.828142D-02 -0.650177D-01  0.110470D-03 -0.136977D-02  0.224167D-01
     22 -0.227049D-05 -0.118179D-03  0.133161D-04  0.000000D+00  0.275146D-03
     23  0.305763D-05  0.159149D-03 -0.128561D-05  0.000000D+00 -0.265642D-04
     24  0.103067D-03  0.536464D-02  0.263736D-03  0.130866D-04  0.544949D-02
     25  0.000000D+00 -0.266731D-03  0.185390D-01  0.188795D-04  0.157318D-03
     26  0.000000D+00  0.114660D-04  0.212113D-01  0.248398D-04  0.155647D-02
     27  0.118373D-04  0.498586D-02  0.254875D-03  0.512981D-04  0.216920D-01
               16            17            18            19            20 
     16  0.282637D+00
     17  0.154489D+00  0.200221D+00
     18  0.336542D-02  0.303407D-02  0.464356D-01
     19 -0.301759D-05  0.946180D-05 -0.264908D-03  0.117498D+00
     20 -0.385824D-05  0.120977D-04 -0.338707D-03 -0.983631D-01  0.303320D+00
     21 -0.993641D-04  0.311561D-03 -0.872296D-02  0.271315D-02 -0.681561D-02
     22  0.000000D+00  0.000000D+00  0.000000D+00  0.000000D+00  0.000000D+00
     23  0.000000D+00  0.000000D+00  0.000000D+00  0.000000D+00  0.000000D+00
     24  0.000000D+00  0.000000D+00  0.000000D+00  0.000000D+00  0.000000D+00
     25 -0.770278D-05  0.100815D-05  0.431702D-03  0.000000D+00  0.000000D+00
     26  0.000000D+00  0.000000D+00 -0.185576D-04  0.000000D+00  0.000000D+00
     27  0.143984D-03 -0.188448D-04 -0.806957D-02  0.000000D+00  0.000000D+00
               21            22            23            24            25 
     21  0.356823D-01
     22  0.000000D+00  0.119119D+00
     23  0.000000D+00  0.978841D-01  0.278002D+00
     24  0.000000D+00 -0.207637D-02 -0.456757D-02  0.349140D-01
     25  0.000000D+00 -0.899248D-05  0.000000D+00 -0.178103D-03  0.201922D+00
     26  0.000000D+00 -0.348861D-04  0.336811D-05 -0.690947D-03 -0.115592D+00
     27  0.000000D+00 -0.387718D-03  0.374325D-04 -0.767905D-02  0.775070D-02
               26            27 
     26  0.170805D+00
     27 -0.789121D-02  0.394838D-01
 Leave Link  716 at Tue Dec 15 16:27:21 2015, MaxMem=    33554432 cpu:         0.0
 (Enter /home/Applications/g09/g09/l103.exe)

 GradGradGradGradGradGradGradGradGradGradGradGradGradGradGradGradGradGrad
 Berny optimization.
 Search for a local minimum.
 Step number   1 out of a maximum of    2
 All quantities printed in internal units (Hartrees-Bohrs-Radians)
 Second derivative matrix not updated -- first step.
 ITU=  0
     Eigenvalues ---    0.01798   0.02920   0.06679   0.07359   0.07507
     Eigenvalues ---    0.07893   0.12801   0.13304   0.15608   0.22304
     Eigenvalues ---    0.25165   0.27878   0.37131   0.40661   0.60035
     Eigenvalues ---    0.81684   1.11942   1.37280   1.41991   1.45570
     Eigenvalues ---    1.65318
 Quadratic step=3.074D-01 exceeds max=3.000D-01 adjusted using Lamda=-5.402D-03.
 Angle between NR and scaled steps=   1.55 degrees.
 Angle between quadratic step and forces=  37.34 degrees.
 Linear search not attempted -- first point.
 TrRot= -0.014868 -0.007586 -0.001325  0.321477 -0.001582 -0.323510
 Variable       Old X    -DE/DX   Delta X   Delta X   Delta X     New X
                                 (Linear)    (Quad)   (Total)
    X1        1.82959   0.07528   0.00000   0.08965   0.07220   1.90179
    Y1       -1.26997  -0.02269   0.00000  -0.04842  -0.05987  -1.32984
    Z1       -0.07393   0.00124   0.00000   0.00666   0.00755  -0.06638
    X2       -0.69620   0.01226   0.00000  -0.00583  -0.02500  -0.72120
    Y2       -1.99685  -0.10666   0.00000  -0.08660  -0.09278  -2.08963
    Z2        0.05005   0.00293   0.00000  -0.00817  -0.01160   0.03845
    X3       -2.22686  -0.12946   0.00000  -0.16871  -0.18339  -2.41025
    Y3        0.03169   0.00743   0.00000   0.02041   0.01772   0.04941
    Z3       -0.04385  -0.00433   0.00000  -0.00610  -0.01099  -0.05483
    X4       -0.71724   0.01358   0.00000  -0.02042  -0.03092  -0.74816
    Y4        2.02948   0.10598   0.00000   0.09689   0.09081   2.12029
    Z4       -0.02806   0.00106   0.00000   0.00252   0.00116  -0.02689
    X5        1.82695   0.02870   0.00000   0.05757   0.04554   1.87248
    Y5        1.38178  -0.03636   0.00000  -0.04005  -0.05144   1.33035
    Z5       -0.08017   0.00028   0.00000   0.00251   0.00469  -0.07549
    X6        3.39749   0.01456   0.00000   0.09110   0.08158   3.47907
    Y6        2.58835   0.01510   0.00000   0.00005  -0.01460   2.57375
    Z6       -0.05497  -0.00062   0.00000  -0.01425  -0.00904  -0.06401
    X7       -1.53371  -0.00126   0.00000  -0.00998  -0.01662  -1.55034
    Y7        3.92392  -0.01116   0.00000   0.06970   0.06528   3.98920
    Z7       -0.07682   0.00068   0.00000   0.01012   0.00849  -0.06833
    X8       -1.59905   0.00912   0.00000   0.03940   0.01641  -1.58264
    Y8       -3.89240   0.02130   0.00000  -0.02847  -0.03293  -3.92533
    Z8        0.08640   0.00088   0.00000   0.01483   0.00920   0.09560
    X9        3.43880  -0.02278   0.00000   0.06036   0.04021   3.47900
    Y9       -2.67752   0.02706   0.00000   0.09250   0.07780  -2.59972
    Z9        0.01539  -0.00211   0.00000  -0.00208   0.00054   0.01594
         Item               Value     Threshold  Converged?
 Maximum Force            0.129458     0.000450     NO 
 RMS     Force            0.043237     0.000300     NO 
 Maximum Displacement     0.183390     0.001800     NO 
 RMS     Displacement     0.056732     0.001200     NO 
 Predicted change in Energy=-2.704010D-02
 GradGradGradGradGradGradGradGradGradGradGradGradGradGradGradGradGradGrad

 Leave Link  103 at Tue Dec 15 16:27:21 2015, MaxMem=    33554432 cpu:         0.0
 (Enter /home/Applications/g09/g09/l9999.exe)
 1\1\GINC-DUSTIN-DESKTOP\Force\RB3LYP-FC\3-21G\C4H4O1\DUSTIN\15-Dec-201
 5\0\\#P B3LYP/3-21G CIS(Singlets,NStates=15) pop(full) force\\FuranDFT
 \\0,1\C,0.968179,-0.67204,-0.039123\C,-0.368414,-1.056688,0.026487\O,-
 1.178403,0.016771,-0.023202\C,-0.379545,1.073953,-0.014847\C,0.966778,
 0.731209,-0.042425\H,1.797873,1.369697,-0.029087\H,-0.811606,2.07645,-
 0.040652\H,-0.846182,-2.059772,0.04572\H,1.819733,-1.416881,0.008146\\
 Version=ES64L-G09RevD.01\State=1-A\HF=-228.7389342\RMSD=3.326e-09\RMSF
 =4.324e-02\Dipole=0.2740981,0.1882101,0.0084061\PG=C01 [X(C4H4O1)]\\@


 WHEN ALL ELSE FAILS, TRY THE BOSS'S SUGGESTION.
 Job cpu time:       0 days  0 hours  0 minutes 50.9 seconds.
 File lengths (MBytes):  RWF=     14 Int=      0 D2E=      0 Chk=      3 Scr=      1
 Normal termination of Gaussian 09 at Tue Dec 15 16:27:21 2015.
