 Entering Gaussian System, Link 0=g09
 Input=FuranDFT_47.com
 Output=FuranDFT_47.log
 Initial command:
 /home/Applications/g09/g09/l1.exe "/home/Applications/g09/scratch/Gau-5933.inp" -scrdir="/home/Applications/g09/scratch/"
 Entering Link 1 = /home/Applications/g09/g09/l1.exe PID=      5935.
  
 Copyright (c) 1988,1990,1992,1993,1995,1998,2003,2009,2013,
            Gaussian, Inc.  All Rights Reserved.
  
 This is part of the Gaussian(R) 09 program.  It is based on
 the Gaussian(R) 03 system (copyright 2003, Gaussian, Inc.),
 the Gaussian(R) 98 system (copyright 1998, Gaussian, Inc.),
 the Gaussian(R) 94 system (copyright 1995, Gaussian, Inc.),
 the Gaussian 92(TM) system (copyright 1992, Gaussian, Inc.),
 the Gaussian 90(TM) system (copyright 1990, Gaussian, Inc.),
 the Gaussian 88(TM) system (copyright 1988, Gaussian, Inc.),
 the Gaussian 86(TM) system (copyright 1986, Carnegie Mellon
 University), and the Gaussian 82(TM) system (copyright 1983,
 Carnegie Mellon University). Gaussian is a federally registered
 trademark of Gaussian, Inc.
  
 This software contains proprietary and confidential information,
 including trade secrets, belonging to Gaussian, Inc.
  
 This software is provided under written license and may be
 used, copied, transmitted, or stored only in accord with that
 written license.
  
 The following legend is applicable only to US Government
 contracts under FAR:
  
                    RESTRICTED RIGHTS LEGEND
  
 Use, reproduction and disclosure by the US Government is
 subject to restrictions as set forth in subparagraphs (a)
 and (c) of the Commercial Computer Software - Restricted
 Rights clause in FAR 52.227-19.
  
 Gaussian, Inc.
 340 Quinnipiac St., Bldg. 40, Wallingford CT 06492
  
  
 ---------------------------------------------------------------
 Warning -- This program may not be used in any manner that
 competes with the business of Gaussian, Inc. or will provide
 assistance to any competitor of Gaussian, Inc.  The licensee
 of this program is prohibited from giving any competitor of
 Gaussian, Inc. access to this program.  By using this program,
 the user acknowledges that Gaussian, Inc. is engaged in the
 business of creating and licensing software in the field of
 computational chemistry and represents and warrants to the
 licensee that it is not a competitor of Gaussian, Inc. and that
 it will not use this program in any manner prohibited above.
 ---------------------------------------------------------------
  

 Cite this work as:
 Gaussian 09, Revision D.01,
 M. J. Frisch, G. W. Trucks, H. B. Schlegel, G. E. Scuseria, 
 M. A. Robb, J. R. Cheeseman, G. Scalmani, V. Barone, B. Mennucci, 
 G. A. Petersson, H. Nakatsuji, M. Caricato, X. Li, H. P. Hratchian, 
 A. F. Izmaylov, J. Bloino, G. Zheng, J. L. Sonnenberg, M. Hada, 
 M. Ehara, K. Toyota, R. Fukuda, J. Hasegawa, M. Ishida, T. Nakajima, 
 Y. Honda, O. Kitao, H. Nakai, T. Vreven, J. A. Montgomery, Jr., 
 J. E. Peralta, F. Ogliaro, M. Bearpark, J. J. Heyd, E. Brothers, 
 K. N. Kudin, V. N. Staroverov, T. Keith, R. Kobayashi, J. Normand, 
 K. Raghavachari, A. Rendell, J. C. Burant, S. S. Iyengar, J. Tomasi, 
 M. Cossi, N. Rega, J. M. Millam, M. Klene, J. E. Knox, J. B. Cross, 
 V. Bakken, C. Adamo, J. Jaramillo, R. Gomperts, R. E. Stratmann, 
 O. Yazyev, A. J. Austin, R. Cammi, C. Pomelli, J. W. Ochterski, 
 R. L. Martin, K. Morokuma, V. G. Zakrzewski, G. A. Voth, 
 P. Salvador, J. J. Dannenberg, S. Dapprich, A. D. Daniels, 
 O. Farkas, J. B. Foresman, J. V. Ortiz, J. Cioslowski, 
 and D. J. Fox, Gaussian, Inc., Wallingford CT, 2013.
 
 ******************************************
 Gaussian 09:  ES64L-G09RevD.01 24-Apr-2013
                15-Dec-2015 
 ******************************************
 -------------------------------------------------------
 #P B3LYP/3-21G CIS(Singlets,NStates=15) pop(full) force
 -------------------------------------------------------
 1/10=7,30=1,38=1/1,3;
 2/12=2,17=6,18=5,40=1/2;
 3/5=5,11=9,16=1,25=1,30=1,71=1,74=-5/1,2,8,3;
 4//1;
 5/5=2,38=5/2;
 8/6=1,10=1,108=15/1;
 9/15=2,41=15,42=1,48=1/14;
 10/5=4/2;
 6/7=3,18=1/1;
 7/12=6,13=5,29=1/1,2,3,16;
 1/10=7,30=1/3;
 99//99;
 Leave Link    1 at Tue Dec 15 16:19:44 2015, MaxMem=           0 cpu:         0.0
 (Enter /home/Applications/g09/g09/l101.exe)
 --------
 FuranDFT
 --------
 Symbolic Z-matrix:
 Charge =  0 Multiplicity = 1
 6                     0.99598  -0.74241   0.03888 
 6                    -0.39284  -1.09092   0.01132 
 8                    -1.10754   0.02643  -0.03768 
 6                    -0.38022   1.13649  -0.00486 
 6                     0.91183   0.70794  -0.02073 
 1                     1.77004   1.33702   0.04716 
 1                    -0.79995   2.01438   0.01647 
 1                    -0.82249  -2.08188  -0.02206 
 1                     1.76246  -1.34649  -0.00473 
 
 NAtoms=      9 NQM=        9 NQMF=       0 NMMI=      0 NMMIF=      0
                NMic=       0 NMicF=      0.
                    Isotopes and Nuclear Properties:
 (Nuclear quadrupole moments (NQMom) in fm**2, nuclear magnetic moments (NMagM)
  in nuclear magnetons)

  Atom         1           2           3           4           5           6           7           8           9
 IAtWgt=          12          12          16          12          12           1           1           1           1
 AtmWgt=  12.0000000  12.0000000  15.9949146  12.0000000  12.0000000   1.0078250   1.0078250   1.0078250   1.0078250
 NucSpn=           0           0           0           0           0           1           1           1           1
 AtZEff=   0.0000000   0.0000000   0.0000000   0.0000000   0.0000000   0.0000000   0.0000000   0.0000000   0.0000000
 NQMom=    0.0000000   0.0000000   0.0000000   0.0000000   0.0000000   0.0000000   0.0000000   0.0000000   0.0000000
 NMagM=    0.0000000   0.0000000   0.0000000   0.0000000   0.0000000   2.7928460   2.7928460   2.7928460   2.7928460
 AtZNuc=   6.0000000   6.0000000   8.0000000   6.0000000   6.0000000   1.0000000   1.0000000   1.0000000   1.0000000
 Leave Link  101 at Tue Dec 15 16:19:44 2015, MaxMem=    33554432 cpu:         0.0
 (Enter /home/Applications/g09/g09/l103.exe)

 GradGradGradGradGradGradGradGradGradGradGradGradGradGradGradGradGradGrad
 Berny optimization.
 Initialization pass.
 Trust Radius=3.00D-01 FncErr=1.00D-07 GrdErr=1.00D-07
 Number of steps in this run=      2 maximum allowed number of steps=      2.
 GradGradGradGradGradGradGradGradGradGradGradGradGradGradGradGradGradGrad

 Leave Link  103 at Tue Dec 15 16:19:44 2015, MaxMem=    33554432 cpu:         0.0
 (Enter /home/Applications/g09/g09/l202.exe)
                          Input orientation:                          
 ---------------------------------------------------------------------
 Center     Atomic      Atomic             Coordinates (Angstroms)
 Number     Number       Type             X           Y           Z
 ---------------------------------------------------------------------
      1          6           0        0.995979   -0.742408    0.038878
      2          6           0       -0.392842   -1.090915    0.011322
      3          8           0       -1.107536    0.026430   -0.037680
      4          6           0       -0.380215    1.136487   -0.004864
      5          6           0        0.911828    0.707941   -0.020732
      6          1           0        1.770041    1.337015    0.047159
      7          1           0       -0.799948    2.014381    0.016468
      8          1           0       -0.822489   -2.081883   -0.022058
      9          1           0        1.762460   -1.346494   -0.004725
 ---------------------------------------------------------------------
                    Distance matrix (angstroms):
                    1          2          3          4          5
     1  C    0.000000
     2  C    1.432145   0.000000
     3  O    2.240926   1.327271   0.000000
     4  C    2.329393   2.227497   1.327516   0.000000
     5  C    1.454011   2.222403   2.131332   1.361352   0.000000
     6  H    2.218838   3.251798   3.163112   2.160213   1.066242
     7  H    3.290249   3.131872   2.012335   0.973308   2.153682
     8  H    2.259365   1.080615   2.127552   3.248662   3.284962
     9  H    0.976890   2.170462   3.181648   3.279672   2.223631
                    6          7          8          9
     6  H    0.000000
     7  H    2.657933   0.000000
     8  H    4.291255   4.096507   0.000000
     9  H    2.684021   4.226330   2.687575   0.000000
 Stoichiometry    C4H4O
 Framework group  C1[X(C4H4O)]
 Deg. of freedom    21
 Full point group                 C1      NOp   1
 Largest Abelian subgroup         C1      NOp   1
 Largest concise Abelian subgroup C1      NOp   1
                         Standard orientation:                         
 ---------------------------------------------------------------------
 Center     Atomic      Atomic             Coordinates (Angstroms)
 Number     Number       Type             X           Y           Z
 ---------------------------------------------------------------------
      1          6           0       -0.948388    0.813173   -0.020257
      2          6           0       -0.985423   -0.618480   -0.014085
      3          8           0        0.261296   -1.072863    0.015507
      4          6           0        1.185691   -0.120481   -0.012115
      5          6           0        0.485941    1.046557    0.028516
      6          1           0        0.912059    2.022266   -0.028832
      7          1           0        2.133718   -0.338212   -0.046274
      8          1           0       -1.858493   -1.254421    0.018396
      9          1           0       -1.704583    1.428654    0.040298
 ---------------------------------------------------------------------
 Rotational constants (GHZ):      9.7546085      9.1218758      4.7161687
 Leave Link  202 at Tue Dec 15 16:19:44 2015, MaxMem=    33554432 cpu:         0.0
 (Enter /home/Applications/g09/g09/l301.exe)
 Standard basis: 3-21G (6D, 7F)
 Ernie: Thresh=  0.10000D-02 Tol=  0.10000D-05 Strict=F.
 There are    53 symmetry adapted cartesian basis functions of A   symmetry.
 There are    53 symmetry adapted basis functions of A   symmetry.
    53 basis functions,    87 primitive gaussians,    53 cartesian basis functions
    18 alpha electrons       18 beta electrons
       nuclear repulsion energy       161.9238612442 Hartrees.
 IExCor=  402 DFT=T Ex+Corr=B3LYP ExCW=0 ScaHFX=  0.200000
 ScaDFX=  0.800000  0.720000  1.000000  0.810000 ScalE2=  1.000000  1.000000
 IRadAn=      0 IRanWt=     -1 IRanGd=            0 ICorTp=0 IEmpDi=  4
 NAtoms=    9 NActive=    9 NUniq=    9 SFac= 1.00D+00 NAtFMM=   60 NAOKFM=F Big=F
 Integral buffers will be    131072 words long.
 Regular integral format.
 Two-electron integral symmetry is turned on.
 Leave Link  301 at Tue Dec 15 16:19:44 2015, MaxMem=    33554432 cpu:         0.0
 (Enter /home/Applications/g09/g09/l302.exe)
 NPDir=0 NMtPBC=     1 NCelOv=     1 NCel=       1 NClECP=     1 NCelD=      1
         NCelK=      1 NCelE2=     1 NClLst=     1 CellRange=     0.0.
 One-electron integrals computed using PRISM.
 NBasis=    53 RedAO= T EigKep=  3.75D-03  NBF=    53
 NBsUse=    53 1.00D-06 EigRej= -1.00D+00 NBFU=    53
 Precomputing XC quadrature grid using
 IXCGrd= 4 IRadAn=           0 IRanWt=          -1 IRanGd=           0 AccXCQ= 0.00D+00.
 Generated NRdTot=       0 NPtTot=           0 NUsed=           0 NTot=          32
 NSgBfM=    53    53    53    53    53 MxSgAt=     9 MxSgA2=     9.
 Leave Link  302 at Tue Dec 15 16:19:45 2015, MaxMem=    33554432 cpu:         0.1
 (Enter /home/Applications/g09/g09/l308.exe)
 Leave Link  308 at Tue Dec 15 16:19:45 2015, MaxMem=    33554432 cpu:         0.0
 (Enter /home/Applications/g09/g09/l303.exe)
 DipDrv:  MaxL=1.
 Leave Link  303 at Tue Dec 15 16:19:45 2015, MaxMem=    33554432 cpu:         0.0
 (Enter /home/Applications/g09/g09/l401.exe)
 ExpMin= 1.83D-01 ExpMax= 3.22D+02 ExpMxC= 3.22D+02 IAcc=1 IRadAn=         1 AccDes= 0.00D+00
 Harris functional with IExCor=  402 and IRadAn=       1 diagonalized for initial guess.
 HarFok:  IExCor=  402 AccDes= 0.00D+00 IRadAn=         1 IDoV= 1 UseB2=F ITyADJ=14
 ICtDFT=  3500011 ScaDFX=  1.000000  1.000000  1.000000  1.000000
 FoFCou: FMM=F IPFlag=           0 FMFlag=      100000 FMFlg1=           0
         NFxFlg=           0 DoJE=T BraDBF=F KetDBF=T FulRan=T
         wScrn=  0.000000 ICntrl=     500 IOpCl=  0 I1Cent=   200000004 NGrid=           0
         NMat0=    1 NMatS0=      1 NMatT0=    0 NMatD0=    1 NMtDS0=    0 NMtDT0=    0
 Petite list used in FoFCou.
 Harris En= -228.714744736287    
 JPrj=0 DoOrth=F DoCkMO=F.
 Leave Link  401 at Tue Dec 15 16:19:45 2015, MaxMem=    33554432 cpu:         0.2
 (Enter /home/Applications/g09/g09/l502.exe)
 Closed shell SCF:
 Using DIIS extrapolation, IDIIS=  1040.
 Integral symmetry usage will be decided dynamically.
 Keep R1 ints in memory in canonical form, NReq=1925595.
 IVT=       27707 IEndB=       27707 NGot=    33554432 MDV=    32502130
 LenX=    32502130 LenY=    32498880
 Requested convergence on RMS density matrix=1.00D-08 within 128 cycles.
 Requested convergence on MAX density matrix=1.00D-06.
 Requested convergence on             energy=1.00D-06.
 No special actions if energy rises.
 FoFCou: FMM=F IPFlag=           0 FMFlag=           0 FMFlg1=           0
         NFxFlg=           0 DoJE=F BraDBF=F KetDBF=F FulRan=T
         wScrn=  0.000000 ICntrl=     600 IOpCl=  0 I1Cent=           0 NGrid=           0
         NMat0=    1 NMatS0=   1431 NMatT0=    0 NMatD0=    1 NMtDS0=    0 NMtDT0=    0
 Symmetry not used in FoFCou.
 Integral accuracy reduced to 1.0D-05 until final iterations.

 Cycle   1  Pass 0  IDiag  1:
 E= -228.633546536928    
 DIIS: error= 3.20D-02 at cycle   1 NSaved=   1.
 NSaved= 1 IEnMin= 1 EnMin= -228.633546536928     IErMin= 1 ErrMin= 3.20D-02
 ErrMax= 3.20D-02  0.00D+00 EMaxC= 1.00D-01 BMatC= 7.89D-02 BMatP= 7.89D-02
 IDIUse=3 WtCom= 6.80D-01 WtEn= 3.20D-01
 Coeff-Com:  0.100D+01
 Coeff-En:   0.100D+01
 Coeff:      0.100D+01
 Gap=     0.222 Goal=   None    Shift=    0.000
 GapD=    0.222 DampG=1.000 DampE=0.500 DampFc=0.5000 IDamp=-1.
 Damping current iteration by 5.00D-01
 RMSDP=1.23D-02 MaxDP=1.07D-01              OVMax= 2.41D-01

 Cycle   2  Pass 0  IDiag  1:
 E= -228.664660168501     Delta-E=       -0.031113631573 Rises=F Damp=T
 DIIS: error= 1.39D-02 at cycle   2 NSaved=   2.
 NSaved= 2 IEnMin= 2 EnMin= -228.664660168501     IErMin= 2 ErrMin= 1.39D-02
 ErrMax= 1.39D-02  0.00D+00 EMaxC= 1.00D-01 BMatC= 1.03D-02 BMatP= 7.89D-02
 IDIUse=3 WtCom= 8.61D-01 WtEn= 1.39D-01
 Coeff-Com:  0.124D+00 0.876D+00
 Coeff-En:   0.220D+00 0.780D+00
 Coeff:      0.137D+00 0.863D+00
 Gap=     0.251 Goal=   None    Shift=    0.000
 RMSDP=4.35D-03 MaxDP=3.81D-02 DE=-3.11D-02 OVMax= 1.77D-01

 Cycle   3  Pass 0  IDiag  1:
 E= -228.706747516855     Delta-E=       -0.042087348354 Rises=F Damp=F
 DIIS: error= 1.80D-02 at cycle   3 NSaved=   3.
 NSaved= 3 IEnMin= 3 EnMin= -228.706747516855     IErMin= 2 ErrMin= 1.39D-02
 ErrMax= 1.80D-02  0.00D+00 EMaxC= 1.00D-01 BMatC= 1.16D-02 BMatP= 1.03D-02
 IDIUse=2 WtCom= 0.00D+00 WtEn= 1.00D+00
 Coeff-En:   0.000D+00 0.000D+00 0.100D+01
 Coeff:      0.000D+00 0.000D+00 0.100D+01
 Gap=     0.237 Goal=   None    Shift=    0.000
 RMSDP=5.84D-03 MaxDP=4.86D-02 DE=-4.21D-02 OVMax= 1.21D-01

 Cycle   4  Pass 0  IDiag  1:
 E= -228.676425099647     Delta-E=        0.030322417209 Rises=F Damp=F
 DIIS: error= 3.86D-02 at cycle   4 NSaved=   4.
 NSaved= 4 IEnMin= 3 EnMin= -228.706747516855     IErMin= 2 ErrMin= 1.39D-02
 ErrMax= 3.86D-02  0.00D+00 EMaxC= 1.00D-01 BMatC= 4.34D-02 BMatP= 1.03D-02
 IDIUse=2 WtCom= 0.00D+00 WtEn= 1.00D+00
 Coeff-En:   0.000D+00 0.000D+00 0.745D+00 0.255D+00
 Coeff:      0.000D+00 0.000D+00 0.745D+00 0.255D+00
 Gap=     0.247 Goal=   None    Shift=    0.000
 RMSDP=2.98D-03 MaxDP=2.33D-02 DE= 3.03D-02 OVMax= 6.91D-02

 Cycle   5  Pass 0  IDiag  1:
 E= -228.715648909897     Delta-E=       -0.039223810250 Rises=F Damp=F
 DIIS: error= 8.33D-03 at cycle   5 NSaved=   5.
 NSaved= 5 IEnMin= 5 EnMin= -228.715648909897     IErMin= 5 ErrMin= 8.33D-03
 ErrMax= 8.33D-03  0.00D+00 EMaxC= 1.00D-01 BMatC= 2.23D-03 BMatP= 1.03D-02
 IDIUse=3 WtCom= 9.17D-01 WtEn= 8.33D-02
 Coeff-Com: -0.847D-02 0.289D-01 0.230D+00-0.868D-01 0.837D+00
 Coeff-En:   0.000D+00 0.000D+00 0.195D+00 0.000D+00 0.805D+00
 Coeff:     -0.777D-02 0.265D-01 0.227D+00-0.795D-01 0.834D+00
 Gap=     0.251 Goal=   None    Shift=    0.000
 RMSDP=9.57D-04 MaxDP=7.87D-03 DE=-3.92D-02 OVMax= 1.99D-02

 Cycle   6  Pass 0  IDiag  1:
 E= -228.717769639787     Delta-E=       -0.002120729890 Rises=F Damp=F
 DIIS: error= 4.70D-04 at cycle   6 NSaved=   6.
 NSaved= 6 IEnMin= 6 EnMin= -228.717769639787     IErMin= 6 ErrMin= 4.70D-04
 ErrMax= 4.70D-04  0.00D+00 EMaxC= 1.00D-01 BMatC= 9.23D-06 BMatP= 2.23D-03
 IDIUse=3 WtCom= 9.95D-01 WtEn= 4.70D-03
 Coeff-Com: -0.587D-02 0.126D-01 0.347D-01-0.391D-01 0.263D+00 0.735D+00
 Coeff-En:   0.000D+00 0.000D+00 0.000D+00 0.000D+00 0.000D+00 0.100D+01
 Coeff:     -0.585D-02 0.125D-01 0.345D-01-0.389D-01 0.262D+00 0.736D+00
 Gap=     0.251 Goal=   None    Shift=    0.000
 RMSDP=6.70D-05 MaxDP=5.88D-04 DE=-2.12D-03 OVMax= 1.52D-03

 Cycle   7  Pass 0  IDiag  1:
 E= -228.717779600134     Delta-E=       -0.000009960347 Rises=F Damp=F
 DIIS: error= 4.43D-05 at cycle   7 NSaved=   7.
 NSaved= 7 IEnMin= 7 EnMin= -228.717779600134     IErMin= 7 ErrMin= 4.43D-05
 ErrMax= 4.43D-05  0.00D+00 EMaxC= 1.00D-01 BMatC= 8.10D-08 BMatP= 9.23D-06
 IDIUse=1 WtCom= 1.00D+00 WtEn= 0.00D+00
 Coeff-Com: -0.194D-02 0.361D-02 0.108D-01-0.128D-01 0.924D-01 0.351D+00
 Coeff-Com:  0.557D+00
 Coeff:     -0.194D-02 0.361D-02 0.108D-01-0.128D-01 0.924D-01 0.351D+00
 Coeff:      0.557D+00
 Gap=     0.251 Goal=   None    Shift=    0.000
 RMSDP=7.02D-06 MaxDP=5.89D-05 DE=-9.96D-06 OVMax= 1.81D-04

 Initial convergence to 1.0D-05 achieved.  Increase integral accuracy.
 Cycle   8  Pass 1  IDiag  1:
 E= -228.717799176700     Delta-E=       -0.000019576565 Rises=F Damp=F
 DIIS: error= 1.51D-05 at cycle   1 NSaved=   1.
 NSaved= 1 IEnMin= 1 EnMin= -228.717799176700     IErMin= 1 ErrMin= 1.51D-05
 ErrMax= 1.51D-05  0.00D+00 EMaxC= 1.00D-01 BMatC= 1.95D-08 BMatP= 1.95D-08
 IDIUse=1 WtCom= 1.00D+00 WtEn= 0.00D+00
 Coeff-Com:  0.100D+01
 Coeff:      0.100D+01
 Gap=     0.251 Goal=   None    Shift=    0.000
 RMSDP=7.02D-06 MaxDP=5.89D-05 DE=-1.96D-05 OVMax= 1.10D-04

 Cycle   9  Pass 1  IDiag  1:
 E= -228.717799174887     Delta-E=        0.000000001813 Rises=F Damp=F
 DIIS: error= 2.37D-05 at cycle   2 NSaved=   2.
 NSaved= 2 IEnMin= 1 EnMin= -228.717799176700     IErMin= 1 ErrMin= 1.51D-05
 ErrMax= 2.37D-05  0.00D+00 EMaxC= 1.00D-01 BMatC= 2.39D-08 BMatP= 1.95D-08
 IDIUse=1 WtCom= 1.00D+00 WtEn= 0.00D+00
 Coeff-Com:  0.530D+00 0.470D+00
 Coeff:      0.530D+00 0.470D+00
 Gap=     0.251 Goal=   None    Shift=    0.000
 RMSDP=3.60D-06 MaxDP=4.57D-05 DE= 1.81D-09 OVMax= 1.01D-04

 Cycle  10  Pass 1  IDiag  1:
 E= -228.717799198067     Delta-E=       -0.000000023180 Rises=F Damp=F
 DIIS: error= 5.41D-06 at cycle   3 NSaved=   3.
 NSaved= 3 IEnMin= 3 EnMin= -228.717799198067     IErMin= 3 ErrMin= 5.41D-06
 ErrMax= 5.41D-06  0.00D+00 EMaxC= 1.00D-01 BMatC= 1.53D-09 BMatP= 1.95D-08
 IDIUse=1 WtCom= 1.00D+00 WtEn= 0.00D+00
 Coeff-Com:  0.128D-01 0.198D+00 0.789D+00
 Coeff:      0.128D-01 0.198D+00 0.789D+00
 Gap=     0.251 Goal=   None    Shift=    0.000
 RMSDP=9.68D-07 MaxDP=9.95D-06 DE=-2.32D-08 OVMax= 2.27D-05

 Cycle  11  Pass 1  IDiag  1:
 E= -228.717799199446     Delta-E=       -0.000000001379 Rises=F Damp=F
 DIIS: error= 3.86D-06 at cycle   4 NSaved=   4.
 NSaved= 4 IEnMin= 4 EnMin= -228.717799199446     IErMin= 4 ErrMin= 3.86D-06
 ErrMax= 3.86D-06  0.00D+00 EMaxC= 1.00D-01 BMatC= 3.78D-10 BMatP= 1.53D-09
 IDIUse=1 WtCom= 1.00D+00 WtEn= 0.00D+00
 Coeff-Com: -0.205D-01 0.109D+00 0.517D+00 0.395D+00
 Coeff:     -0.205D-01 0.109D+00 0.517D+00 0.395D+00
 Gap=     0.251 Goal=   None    Shift=    0.000
 RMSDP=2.90D-07 MaxDP=3.13D-06 DE=-1.38D-09 OVMax= 5.36D-06

 Cycle  12  Pass 1  IDiag  1:
 E= -228.717799199725     Delta-E=       -0.000000000279 Rises=F Damp=F
 DIIS: error= 2.41D-07 at cycle   5 NSaved=   5.
 NSaved= 5 IEnMin= 5 EnMin= -228.717799199725     IErMin= 5 ErrMin= 2.41D-07
 ErrMax= 2.41D-07  0.00D+00 EMaxC= 1.00D-01 BMatC= 2.09D-12 BMatP= 3.78D-10
 IDIUse=1 WtCom= 1.00D+00 WtEn= 0.00D+00
 Coeff-Com: -0.713D-02 0.313D-01 0.150D+00 0.133D+00 0.693D+00
 Coeff:     -0.713D-02 0.313D-01 0.150D+00 0.133D+00 0.693D+00
 Gap=     0.251 Goal=   None    Shift=    0.000
 RMSDP=4.83D-08 MaxDP=4.68D-07 DE=-2.79D-10 OVMax= 1.03D-06

 Cycle  13  Pass 1  IDiag  1:
 E= -228.717799199726     Delta-E=       -0.000000000001 Rises=F Damp=F
 DIIS: error= 2.05D-07 at cycle   6 NSaved=   6.
 NSaved= 6 IEnMin= 6 EnMin= -228.717799199726     IErMin= 6 ErrMin= 2.05D-07
 ErrMax= 2.05D-07  0.00D+00 EMaxC= 1.00D-01 BMatC= 1.49D-12 BMatP= 2.09D-12
 IDIUse=1 WtCom= 1.00D+00 WtEn= 0.00D+00
 Coeff-Com: -0.130D-02 0.260D-02 0.123D-01 0.186D-01 0.466D+00 0.502D+00
 Coeff:     -0.130D-02 0.260D-02 0.123D-01 0.186D-01 0.466D+00 0.502D+00
 Gap=     0.251 Goal=   None    Shift=    0.000
 RMSDP=2.67D-08 MaxDP=2.95D-07 DE=-5.12D-13 OVMax= 7.82D-07

 Cycle  14  Pass 1  IDiag  1:
 E= -228.717799199727     Delta-E=       -0.000000000002 Rises=F Damp=F
 DIIS: error= 2.10D-08 at cycle   7 NSaved=   7.
 NSaved= 7 IEnMin= 7 EnMin= -228.717799199727     IErMin= 7 ErrMin= 2.10D-08
 ErrMax= 2.10D-08  0.00D+00 EMaxC= 1.00D-01 BMatC= 2.45D-14 BMatP= 1.49D-12
 IDIUse=1 WtCom= 1.00D+00 WtEn= 0.00D+00
 Coeff-Com:  0.150D-03-0.124D-02-0.694D-02-0.549D-02 0.631D-01 0.155D+00
 Coeff-Com:  0.795D+00
 Coeff:      0.150D-03-0.124D-02-0.694D-02-0.549D-02 0.631D-01 0.155D+00
 Coeff:      0.795D+00
 Gap=     0.251 Goal=   None    Shift=    0.000
 RMSDP=4.28D-09 MaxDP=3.19D-08 DE=-1.53D-12 OVMax= 8.69D-08

 SCF Done:  E(RB3LYP) =  -228.717799200     A.U. after   14 cycles
            NFock= 14  Conv=0.43D-08     -V/T= 2.0070
 KE= 2.271349684742D+02 PE=-8.564745992065D+02 EE= 2.386979702884D+02
 Leave Link  502 at Tue Dec 15 16:19:49 2015, MaxMem=    33554432 cpu:         3.9
 (Enter /home/Applications/g09/g09/l801.exe)
 DoSCS=F DFT=T ScalE2(SS,OS)=  1.000000  1.000000
 ExpMin= 1.83D-01 ExpMax= 3.22D+02 ExpMxC= 3.22D+02 IAcc=3 IRadAn=         5 AccDes= 0.00D+00
 HarFok:  IExCor=  205 AccDes= 0.00D+00 IRadAn=         5 IDoV=-2 UseB2=F ITyADJ=14
 ICtDFT= 12500011 ScaDFX=  1.000000  1.000000  1.000000  1.000000
 Largest valence mixing into a core orbital is  2.03D-04
 Largest core mixing into a valence orbital is  4.60D-05
 Range of M.O.s used for correlation:     6    53
 NBasis=    53 NAE=    18 NBE=    18 NFC=     5 NFV=     0
 NROrb=     48 NOA=    13 NOB=    13 NVA=    35 NVB=    35
 Leave Link  801 at Tue Dec 15 16:19:49 2015, MaxMem=    33554432 cpu:         0.2
 (Enter /home/Applications/g09/g09/l914.exe)
 RHF ground state
 MDV=    33554432 DFT=T DoStab=F Mixed=T DoRPA=F DoScal=F NonHer=F
 Keep R1, R2, and R3 ints in memory in canonical form, NReq=5596273.
 FoFCou: FMM=F IPFlag=           0 FMFlag=           0 FMFlg1=           0
         NFxFlg=           0 DoJE=F BraDBF=F KetDBF=F FulRan=T
         wScrn=  0.000000 ICntrl=     600 IOpCl=  0 I1Cent=           0 NGrid=           0
         NMat0=    1 NMatS0=   1431 NMatT0=    0 NMatD0=    1 NMtDS0=    0 NMtDT0=    0
 Symmetry not used in FoFCou.
 Making orbital integer symmetry assigments:
 Orbital symmetries:
       Occupied  (A) (A) (A) (A) (A) (A) (A) (A) (A) (A) (A) (A)
                 (A) (A) (A) (A) (A) (A)
       Virtual   (A) (A) (A) (A) (A) (A) (A) (A) (A) (A) (A) (A)
                 (A) (A) (A) (A) (A) (A) (A) (A) (A) (A) (A) (A)
                 (A) (A) (A) (A) (A) (A) (A) (A) (A) (A) (A)
    60 initial guesses have been made.
 Convergence on wavefunction:    0.000001000000000
 Davidson Disk Diagonalization:  ConvIn= 1.00D-06 SkipCon=T Conv= 1.00D-06.
 Max sub-space:   240 roots to seek:    60 dimension of matrix:          910
 Iteration     1 Dimension    60 NMult     0 NNew     60
 CISAX will form    60 AO SS matrices at one time.
 NMat=    60 NSing=    60 JSym2X= 0.
 New state      1 was old state      2
 New state      2 was old state      1
 New state      3 was old state      5
 New state      4 was old state      6
 New state      5 was old state      7
 New state      6 was old state      8
 New state      7 was old state      4
 New state      8 was old state     10
 New state     10 was old state     11
 New state     11 was old state     12
 New state     12 was old state      3
 New state     14 was old state     15
 New state     15 was old state     16
 Excitation Energies [eV] at current iteration:
 Root      1 :     7.094087134783213
 Root      2 :     8.207182556106163
 Root      3 :     8.424789143668134
 Root      4 :     9.079631021322605
 Root      5 :     9.359645308107055
 Root      6 :     9.513164792800108
 Root      7 :     9.759996643472139
 Root      8 :     9.983950860791150
 Root      9 :    10.130150862533250
 Root     10 :    10.314428197266330
 Root     11 :    10.435994277570460
 Root     12 :    10.580978804823350
 Root     13 :    10.713148365161580
 Root     14 :    10.776836811810660
 Root     15 :    10.995224163019290
 Root     16 :    11.148591443862350
 Root     17 :    11.488916492444850
 Root     18 :    11.604422626148660
 Root     19 :    11.707853298547490
 Root     20 :    12.063340019548750
 Root     21 :    12.186299593153040
 Root     22 :    12.215399236807040
 Root     23 :    12.230022817217820
 Root     24 :    12.490045406298080
 Root     25 :    12.615949635910940
 Root     26 :    13.446335093050140
 Root     27 :    13.567352872189370
 Root     28 :    13.741865188189140
 Root     29 :    13.812911409767520
 Root     30 :    13.993007596166640
 Root     31 :    14.111537130955030
 Root     32 :    14.204062673664390
 Root     33 :    14.260053621049850
 Root     34 :    14.514769331854940
 Root     35 :    14.689667498748080
 Root     36 :    14.809377014536100
 Root     37 :    14.886099475194720
 Root     38 :    15.052064618787700
 Root     39 :    15.091208688413600
 Root     40 :    15.141815919187830
 Root     41 :    15.261437141004770
 Root     42 :    15.399981304818400
 Root     43 :    15.409314759269580
 Root     44 :    15.710418724416860
 Root     45 :    15.739257705841690
 Root     46 :    15.882751598795420
 Root     47 :    15.947150858362190
 Root     48 :    16.085313086360760
 Root     49 :    16.157938784053700
 Root     50 :    16.231327479937720
 Root     51 :    16.272772199148110
 Root     52 :    16.565448174175450
 Root     53 :    16.723715602701360
 Root     54 :    16.797690185819410
 Root     55 :    16.843267666072520
 Root     56 :    17.052959204670560
 Root     57 :    17.199493535536630
 Root     58 :    17.817065570979150
 Root     59 :    18.096462662232370
 Root     60 :    18.446913850665920
 Iteration     2 Dimension   120 NMult    60 NNew     60
 CISAX will form    60 AO SS matrices at one time.
 NMat=    60 NSing=    60 JSym2X= 0.
 Root      1 not converged, maximum delta is    0.068143790035881
 Root      2 not converged, maximum delta is    0.288316573710222
 Root      3 not converged, maximum delta is    0.276217416848408
 Root      4 not converged, maximum delta is    0.022136573850513
 New state      5 was old state      7
 Root      5 not converged, maximum delta is    0.222862400765137
 New state      6 was old state      5
 Root      6 not converged, maximum delta is    0.125045366789371
 New state      7 was old state      6
 Root      7 not converged, maximum delta is    0.389474791001268
 New state      8 was old state     12
 Root      8 not converged, maximum delta is    0.443483538538539
 New state      9 was old state      8
 Root      9 not converged, maximum delta is    0.260918166371710
 New state     10 was old state      9
 Root     10 not converged, maximum delta is    0.040948247798971
 New state     11 was old state     10
 Root     11 not converged, maximum delta is    0.053047352722096
 New state     12 was old state     11
 Root     12 not converged, maximum delta is    0.109694496893890
 Root     13 not converged, maximum delta is    0.201393260936014
 Root     14 not converged, maximum delta is    0.041785939968003
 Root     15 not converged, maximum delta is    0.023682607124253
 Excitation Energies [eV] at current iteration:
 Root      1 :     6.959240328453335   Change is   -0.134846806329878
 Root      2 :     7.378901495020333   Change is   -0.828281061085830
 Root      3 :     8.353484732271450   Change is   -0.071304411396684
 Root      4 :     9.057688892545956   Change is   -0.021942128776648
 Root      5 :     9.150697829964496   Change is   -0.609298813507641
 Root      6 :     9.352513313477111   Change is   -0.007131994629944
 Root      7 :     9.473856993361617   Change is   -0.039307799438491
 Root      8 :     9.542251811102515   Change is   -1.038726993720833
 Root      9 :     9.932134073928562   Change is   -0.051816786862588
 Root     10 :    10.124230906979820   Change is   -0.005919955553433
 Root     11 :    10.297327862415660   Change is   -0.017100334850668
 Root     12 :    10.422319786072470   Change is   -0.013674491497986
 Root     13 :    10.663448535959990   Change is   -0.049699829201590
 Root     14 :    10.752522610420040   Change is   -0.024314201390611
 Root     15 :    10.977020137026210   Change is   -0.018204025993089
 Root     16 :    11.116108801002490   Change is   -0.032482642859862
 Root     17 :    11.471869450615690   Change is   -0.017047041829158
 Root     18 :    11.585839282121560   Change is   -0.018583344027098
 Root     19 :    11.681439301809510   Change is   -0.026413996737978
 Root     20 :    12.044157833203680   Change is   -0.019182186345064
 Root     21 :    12.106220901071600   Change is   -0.109178335735441
 Root     22 :    12.144210235880560   Change is   -0.042089357272475
 Root     23 :    12.178103605451030   Change is   -0.051919211766784
 Root     24 :    12.444400327256460   Change is   -0.171549308654478
 Root     25 :    12.464489739449490   Change is   -0.025555666848582
 Root     26 :    13.145187550420530   Change is   -0.847820045746114
 Root     27 :    13.379990466625040   Change is   -0.066344626425102
 Root     28 :    13.495608821153470   Change is   -0.246256367035669
 Root     29 :    13.570027146890430   Change is    0.002674274701069
 Root     30 :    13.754587726866680   Change is   -0.058323682900840
 Root     31 :    13.900616261274150   Change is   -0.614153070580790
 Root     32 :    14.061272647049020   Change is   -0.050264483906015
 Root     33 :    14.147580697684360   Change is   -0.056481975980037
 Root     34 :    14.227211586630610   Change is   -0.032842034419240
 Root     35 :    14.473681452425630   Change is   -0.215986046322455
 Root     36 :    14.699950441706910   Change is   -0.109426572829196
 Root     37 :    14.739456204945030   Change is   -0.351752483468569
 Root     38 :    14.796010962268470   Change is   -0.090088512926242
 Root     39 :    14.975933193469480   Change is   -0.076131425318219
 Root     40 :    15.113373520988570   Change is   -0.028442398199264
 Root     41 :    15.208792344033600   Change is   -0.052644796971168
 Root     42 :    15.259687385776390   Change is   -0.149627373493195
 Root     43 :    15.358504305552530   Change is   -0.041476999265873
 Root     44 :    15.528227267677410   Change is   -0.418923590684786
 Root     45 :    15.642345516715660   Change is   -0.068073207701207
 Root     46 :    15.687931107249490   Change is   -0.051326598592194
 Root     47 :    15.831895896175820   Change is   -0.326042887877882
 Root     48 :    15.841620832658110   Change is   -0.243692253702652
 Root     49 :    15.869546839861910   Change is   -0.013204758933505
 Root     50 :    16.058342199472410   Change is   -0.172985280465310
 Root     51 :    16.182724564247210   Change is   -0.090047634900902
 Root     52 :    16.467062332492350   Change is   -0.256653270209016
 Root     53 :    16.546651397173040   Change is   -0.018796777002409
 Root     54 :    16.647296437080030   Change is   -0.150393748739377
 Root     55 :    16.732287081818270   Change is   -1.084778489160881
 Root     56 :    16.809499155612180   Change is   -0.033768510460346
 Root     57 :    16.912061948136570   Change is   -0.287431587400060
 Root     58 :    17.023030759450950   Change is   -0.029928445219611
 Root     59 :    17.264253115926340   Change is   -0.832209546306027
 Root     60 :    17.557554488326570   Change is   -0.889359362339351
 Iteration     3 Dimension   135 NMult   120 NNew     15
 CISAX will form    15 AO SS matrices at one time.
 NMat=    15 NSing=    15 JSym2X= 0.
 Root      1 not converged, maximum delta is    0.001338346428279
 Root      2 not converged, maximum delta is    0.002785178825654
 Root      3 not converged, maximum delta is    0.000315210588195
 Root      4 not converged, maximum delta is    0.000483049329848
 Root      5 not converged, maximum delta is    0.002638225733999
 Root      6 not converged, maximum delta is    0.001323036696874
 Root      7 not converged, maximum delta is    0.014833427281694
 Root      8 not converged, maximum delta is    0.013631068357277
 Root      9 not converged, maximum delta is    0.000410928701479
 Root     10 not converged, maximum delta is    0.000150585166585
 Root     11 not converged, maximum delta is    0.000179000516703
 Root     12 not converged, maximum delta is    0.000325794971979
 Root     13 not converged, maximum delta is    0.000256334602818
 Root     14 not converged, maximum delta is    0.000223514838094
 Root     15 not converged, maximum delta is    0.000257495281845
 Excitation Energies [eV] at current iteration:
 Root      1 :     6.958400452842447   Change is   -0.000839875610888
 Root      2 :     7.376655532289546   Change is   -0.002245962730787
 Root      3 :     8.353434460946826   Change is   -0.000050271324624
 Root      4 :     9.057667350121433   Change is   -0.000021542424524
 Root      5 :     9.148008920402138   Change is   -0.002688909562360
 Root      6 :     9.352433039662085   Change is   -0.000080273815026
 Root      7 :     9.471625181770825   Change is   -0.002231811590792
 Root      8 :     9.540014630464729   Change is   -0.002237180637786
 Root      9 :     9.932057308371583   Change is   -0.000076765556980
 Root     10 :    10.124216533322140   Change is   -0.000014373657680
 Root     11 :    10.297309640325480   Change is   -0.000018222090182
 Root     12 :    10.422274444758310   Change is   -0.000045341314164
 Root     13 :    10.663407759116930   Change is   -0.000040776843060
 Root     14 :    10.752494673922190   Change is   -0.000027936497856
 Root     15 :    10.976978381601530   Change is   -0.000041755424676
 Iteration     4 Dimension   150 NMult   135 NNew     15
 CISAX will form    15 AO SS matrices at one time.
 NMat=    15 NSing=    15 JSym2X= 0.
 Root      1 not converged, maximum delta is    0.000031617603931
 Root      2 not converged, maximum delta is    0.000088732720425
 Root      3 not converged, maximum delta is    0.000010787948539
 Root      4 not converged, maximum delta is    0.000005859832426
 Root      5 not converged, maximum delta is    0.000079489694472
 Root      6 not converged, maximum delta is    0.000009771690015
 Root      7 not converged, maximum delta is    0.000076240539387
 Root      8 not converged, maximum delta is    0.000081708824882
 Root      9 not converged, maximum delta is    0.000015016090814
 Root     10 not converged, maximum delta is    0.000005089731446
 Root     11 not converged, maximum delta is    0.000007088001663
 Root     12 not converged, maximum delta is    0.000006199951719
 Root     13 not converged, maximum delta is    0.000011637618085
 Root     14 not converged, maximum delta is    0.000005001307328
 Root     15 not converged, maximum delta is    0.000009332130225
 Excitation Energies [eV] at current iteration:
 Root      1 :     6.958399544391974   Change is   -0.000000908450473
 Root      2 :     7.376652631125183   Change is   -0.000002901164363
 Root      3 :     8.353434407734262   Change is   -0.000000053212563
 Root      4 :     9.057667333351533   Change is   -0.000000016769899
 Root      5 :     9.148004818646299   Change is   -0.000004101755837
 Root      6 :     9.352432915659982   Change is   -0.000000124002103
 Root      7 :     9.471621321938876   Change is   -0.000003859831949
 Root      8 :     9.540010934403016   Change is   -0.000003696061713
 Root      9 :     9.932057193920082   Change is   -0.000000114451500
 Root     10 :    10.124216515968910   Change is   -0.000000017353228
 Root     11 :    10.297309614540390   Change is   -0.000000025785096
 Root     12 :    10.422274413797340   Change is   -0.000000030960976
 Root     13 :    10.663407706878960   Change is   -0.000000052237970
 Root     14 :    10.752494655457060   Change is   -0.000000018465129
 Root     15 :    10.976978331657340   Change is   -0.000000049944188
 Iteration     5 Dimension   165 NMult   150 NNew     15
 CISAX will form    15 AO SS matrices at one time.
 NMat=    15 NSing=    15 JSym2X= 0.
 Root      1 has converged.
 Root      2 not converged, maximum delta is    0.000002805382975
 Root      3 has converged.
 Root      4 has converged.
 Root      5 not converged, maximum delta is    0.000003020797927
 Root      6 has converged.
 Root      7 not converged, maximum delta is    0.000003245651853
 Root      8 not converged, maximum delta is    0.000003447537091
 Root      9 has converged.
 Root     10 has converged.
 Root     11 has converged.
 Root     12 has converged.
 Root     13 has converged.
 Root     14 has converged.
 Root     15 has converged.
 Excitation Energies [eV] at current iteration:
 Root      1 :     6.958399543660080   Change is   -0.000000000731895
 Root      2 :     7.376652628706334   Change is   -0.000000002418849
 Root      3 :     8.353434407686894   Change is   -0.000000000047369
 Root      4 :     9.057667333336108   Change is   -0.000000000015426
 Root      5 :     9.148004813979689   Change is   -0.000000004666610
 Root      6 :     9.352432915540101   Change is   -0.000000000119882
 Root      7 :     9.471621318238313   Change is   -0.000000003700564
 Root      8 :     9.540010930748259   Change is   -0.000000003654757
 Root      9 :     9.932057193779540   Change is   -0.000000000140542
 Root     10 :    10.124216515949170   Change is   -0.000000000019746
 Root     11 :    10.297309614502450   Change is   -0.000000000037940
 Root     12 :    10.422274413767190   Change is   -0.000000000030144
 Root     13 :    10.663407706795240   Change is   -0.000000000083724
 Root     14 :    10.752494655439230   Change is   -0.000000000017833
 Root     15 :    10.976978331594190   Change is   -0.000000000063148
 Iteration     6 Dimension   169 NMult   165 NNew      4
 CISAX will form     4 AO SS matrices at one time.
 NMat=     4 NSing=     4 JSym2X= 0.
 Root      1 has converged.
 Root      2 has converged.
 Root      3 has converged.
 Root      4 has converged.
 Root      5 has converged.
 Root      6 has converged.
 Root      7 has converged.
 Root      8 has converged.
 Root      9 has converged.
 Root     10 has converged.
 Root     11 has converged.
 Root     12 has converged.
 Root     13 has converged.
 Root     14 has converged.
 Root     15 has converged.
 Excitation Energies [eV] at current iteration:
 Root      1 :     6.958399543660035   Change is   -0.000000000000044
 Root      2 :     7.376652628705211   Change is   -0.000000000001124
 Root      3 :     8.353434407686864   Change is   -0.000000000000030
 Root      4 :     9.057667333336099   Change is   -0.000000000000009
 Root      5 :     9.148004813976037   Change is   -0.000000000003652
 Root      6 :     9.352432915540025   Change is   -0.000000000000076
 Root      7 :     9.471621318235782   Change is   -0.000000000002530
 Root      8 :     9.540010930745847   Change is   -0.000000000002412
 Root      9 :     9.932057193779446   Change is   -0.000000000000094
 Root     10 :    10.124216515949180   Change is    0.000000000000009
 Root     11 :    10.297309614502420   Change is   -0.000000000000026
 Root     12 :    10.422274413767180   Change is   -0.000000000000008
 Root     13 :    10.663407706795160   Change is   -0.000000000000077
 Root     14 :    10.752494655439230   Change is    0.000000000000008
 Root     15 :    10.976978331594170   Change is   -0.000000000000029
 Convergence achieved on expansion vectors.
 ***********************************************************************
 Excited states from <AA,BB:AA,BB> singles matrix:
 ***********************************************************************
 
 1PDM for each excited state written to RWF  633
 Ground to excited state transition densities written to RWF  633
 Ground to excited state transition electric dipole moments (Au):
       state          X           Y           Z        Dip. S.      Osc.
         1         0.1977      0.0456      0.0103      0.0413      0.0070
         2         1.0581      0.4370     -0.0136      1.3108      0.2369
         3         0.1271     -0.0196     -0.1314      0.0338      0.0069
         4         0.0447      0.0108      0.0318      0.0031      0.0007
         5         1.0115     -0.5578      0.0620      1.3381      0.2999
         6        -0.1109     -0.1599      0.0229      0.0384      0.0088
         7         0.0967      0.9802      0.0506      0.9727      0.2257
         8         0.0408     -0.9481     -0.0435      0.9025      0.2109
         9        -0.1385      0.0997      0.0053      0.0291      0.0071
        10         0.0147      0.0696     -0.0338      0.0062      0.0015
        11         0.0863     -0.0157      0.0726      0.0130      0.0033
        12        -0.0140      0.0438     -0.0319      0.0031      0.0008
        13         0.1245     -0.0544      0.0679      0.0231      0.0060
        14         0.0447      0.0316     -0.1147      0.0161      0.0043
        15         0.0626      0.0006     -0.0372      0.0053      0.0014
 Ground to excited state transition velocity dipole moments (Au):
       state          X           Y           Z        Dip. S.      Osc.
         1         0.0143     -0.0382      0.0011      0.0017      0.0043
         2        -0.0011      0.0140     -0.0048      0.0002      0.0005
         3        -0.0051     -0.0007      0.0731      0.0054      0.0117
         4        -0.0064     -0.0005      0.0150      0.0003      0.0005
         5        -0.0601     -0.0079     -0.0089      0.0038      0.0075
         6         0.0114      0.0114      0.0029      0.0003      0.0005
         7        -0.0292     -0.0426      0.0040      0.0027      0.0051
         8         0.0214      0.0428      0.0026      0.0023      0.0044
         9         0.0166     -0.0038     -0.0210      0.0007      0.0013
        10        -0.0043     -0.0078     -0.0588      0.0035      0.0063
        11        -0.0107      0.0038     -0.0259      0.0008      0.0014
        12         0.0035     -0.0024      0.0080      0.0001      0.0001
        13        -0.0198      0.0016      0.0190      0.0008      0.0013
        14        -0.0066     -0.0083      0.0375      0.0015      0.0026
        15        -0.0114     -0.0066      0.0203      0.0006      0.0010
 Ground to excited state transition magnetic dipole moments (Au):
       state          X           Y           Z
         1        -0.0144     -0.0190     -0.0077
         2         0.1494      0.0266      0.3151
         3        -1.5852     -0.1933      0.0451
         4         0.1353     -0.1869     -0.0508
         5        -0.0451      0.1666     -0.1119
         6        -0.0910      0.4516      0.0390
         7         0.0276     -0.2738     -0.2190
         8         0.1924     -0.4070      0.1151
         9         0.0472      0.4141     -0.0056
        10         0.0504     -0.0727      0.0152
        11        -0.3624     -0.0597      0.0166
        12        -0.3677      0.1844     -0.0213
        13         0.0839      0.0285      0.0451
        14         0.9853     -1.0010      0.0224
        15         0.2064      0.0413      0.0259
 Ground to excited state transition velocity quadrupole moments (Au):
       state          XX          YY          ZZ          XY          XZ          YZ
         1        -0.0268     -0.0078      0.0179      0.0233      0.0013      0.0005
         2        -0.0408      0.1106     -0.0128      0.2095     -0.0040      0.0122
         3        -0.0186      0.0122      0.0035      0.0323      0.0142     -0.1598
         4         0.0058     -0.0147      0.0020     -0.0124     -0.1628     -0.0558
         5        -0.0209     -0.0293      0.0190     -0.2561      0.0017     -0.0107
         6        -0.0375      0.0605      0.0088      0.0454     -0.0873     -0.0079
         7         0.2196     -0.2089     -0.0216     -0.0775     -0.0074     -0.0199
         8        -0.2186      0.1798      0.0262      0.0285      0.0145     -0.0020
         9         0.0027      0.0033     -0.0013      0.0484     -0.0525      0.0260
        10         0.0194      0.0012     -0.0033      0.0269     -0.0398      0.0391
        11        -0.0204      0.0065      0.0022     -0.0076     -0.0534     -0.0332
        12         0.0420     -0.0119     -0.0032     -0.0039      0.0790     -0.1684
        13        -0.0091      0.0035     -0.0009     -0.0339     -0.0004      0.0915
        14         0.0105     -0.0299      0.0032     -0.0223      0.1016      0.0957
        15         0.0134     -0.0118      0.0065     -0.0354     -0.0645      0.0386
 <0|del|b> * <b|rxdel|0> + <0|del|b> * <b|delr+rdel|0>
 Rotatory Strengths (R) in cgs (10**-40 erg-esu-cm/Gauss)
       state          XX          YY          ZZ    R(velocity)    E-M Angle
         1         1.0944     -0.3222      0.6376      0.4699       60.03
         2        -2.7383     -0.9000      0.2123     -1.1420      104.64
         3         6.6756     11.4102      8.5770      8.8876       84.33
         4        -0.9973     -1.1528     -1.1124     -1.0875      113.41
         5         2.0892      2.1689      0.7709      1.6763       79.07
         6         6.5610     -1.1820      3.2916      2.8902       56.21
         7        10.3160     -0.8107     10.7720      6.7591       56.79
         8       -17.8161      4.3255    -12.7491     -8.7466      125.77
         9        -2.5792      2.2746     -0.9830     -0.4292       93.38
        10        -2.1096      0.2888      0.7891     -0.3439       95.84
        11        -0.2392      3.3761      2.8963      2.0111       71.91
        12        -0.4217     -1.8793     -1.2371     -1.1794      120.70
        13         0.2328     -1.7763      0.1741     -0.4565      106.15
        14         8.1750     -4.8498      1.4380      1.5877       87.21
        15        -0.7779     -1.3658     -1.5484     -1.2307      114.25
 1/2[<0|r|b>*<b|rxdel|0> + (<0|rxdel|b>*<b|r|0>)*]
 Rotatory Strengths (R) in cgs (10**-40 erg-esu-cm/Gauss)
       state          XX          YY          ZZ     R(length)
         1         2.0104      0.6117      0.0561      0.8928
         2      -111.7979     -8.2345      3.0340    -38.9995
         3       142.4444     -2.6786      4.1911     47.9856
         4        -4.2812      1.4288      1.1415     -0.5703
         5        32.2250     65.7146      4.9012     34.2803
         6        -7.1306     51.0635     -0.6331     14.4333
         7        -1.8873    189.7679      7.8283     65.2363
         8        -5.5570   -272.8894      3.5428    -91.6345
         9         4.6233    -29.1863      0.0212     -8.1806
        10        -0.5252      3.5815      0.3633      1.1399
        11        22.1259     -0.6626     -0.8521      6.8704
        12        -3.6463     -5.7155     -0.4795     -3.2804
        13        -7.3886      1.0974     -2.1662     -2.8191
        14       -31.1418     22.3463      1.8190     -2.3255
        15        -9.1391     -0.0181      0.6824     -2.8249
  1/2[<0|del|b>*<b|r|0> + (<0|r|b>*<b|del|0>)*] (Au)
       state          X           Y           Z        Dip. S.   Osc.(frdel)
         1         0.0028     -0.0017      0.0000     -0.0011     -0.0007
         2        -0.0012      0.0061      0.0001     -0.0050     -0.0033
         3        -0.0007      0.0000     -0.0096      0.0103      0.0068
         4        -0.0003      0.0000      0.0005     -0.0002     -0.0001
         5        -0.0608      0.0044     -0.0006      0.0570      0.0380
         6        -0.0013     -0.0018      0.0001      0.0030      0.0020
         7        -0.0028     -0.0418      0.0002      0.0444      0.0296
         8         0.0009     -0.0406     -0.0001      0.0398      0.0265
         9        -0.0023     -0.0004     -0.0001      0.0028      0.0019
        10        -0.0001     -0.0005      0.0020     -0.0014     -0.0009
        11        -0.0009     -0.0001     -0.0019      0.0029      0.0019
        12         0.0000     -0.0001     -0.0003      0.0004      0.0003
        13        -0.0025     -0.0001      0.0013      0.0013      0.0008
        14        -0.0003     -0.0003     -0.0043      0.0049      0.0032
        15        -0.0007      0.0000     -0.0008      0.0015      0.0010

 Excitation energies and oscillator strengths:
 
 Excited State   1:      Singlet-A      6.9584 eV  178.18 nm  f=0.0070  <S**2>=0.000
      17 -> 19         0.50726
      18 -> 19         0.14501
      18 -> 20         0.46250
 This state for optimization and/or second-order correction.
 Total Energy, E(CIS) =  -228.462082711    
 Copying the excited state density for this state as the 1-particle RhoCI density.
 
 Excited State   2:      Singlet-A      7.3767 eV  168.08 nm  f=0.2369  <S**2>=0.000
      18 -> 19         0.66361
      18 -> 20        -0.11799
 
 Excited State   3:      Singlet-A      8.3534 eV  148.42 nm  f=0.0069  <S**2>=0.000
      16 -> 19         0.69914
 
 Excited State   4:      Singlet-A      9.0577 eV  136.88 nm  f=0.0007  <S**2>=0.000
      18 -> 21         0.67088
      18 -> 22        -0.18363
 
 Excited State   5:      Singlet-A      9.1480 eV  135.53 nm  f=0.2999  <S**2>=0.000
      17 -> 19         0.28498
      17 -> 20         0.51355
      18 -> 20        -0.30811
 
 Excited State   6:      Singlet-A      9.3524 eV  132.57 nm  f=0.0088  <S**2>=0.000
      17 -> 20        -0.11296
      18 -> 21         0.18699
      18 -> 22         0.65822
 
 Excited State   7:      Singlet-A      9.4716 eV  130.90 nm  f=0.2257  <S**2>=0.000
      15 -> 19         0.42360
      16 -> 20        -0.19500
      17 -> 19        -0.23530
      17 -> 20         0.34795
      18 -> 20         0.26387
 
 Excited State   8:      Singlet-A      9.5400 eV  129.96 nm  f=0.2109  <S**2>=0.000
      15 -> 19         0.47674
      16 -> 20        -0.19952
      17 -> 19         0.23923
      17 -> 20        -0.24378
      18 -> 20        -0.26513
      18 -> 22        -0.11667
 
 Excited State   9:      Singlet-A      9.9321 eV  124.83 nm  f=0.0071  <S**2>=0.000
      15 -> 19         0.27565
      16 -> 20         0.61891
      18 -> 23         0.12305
 
 Excited State  10:      Singlet-A     10.1242 eV  122.46 nm  f=0.0015  <S**2>=0.000
      17 -> 21         0.67703
      18 -> 23         0.13649
 
 Excited State  11:      Singlet-A     10.2973 eV  120.40 nm  f=0.0033  <S**2>=0.000
      17 -> 21        -0.12293
      17 -> 22         0.45865
      18 -> 23         0.47845
      18 -> 24        -0.14803
 
 Excited State  12:      Singlet-A     10.4223 eV  118.96 nm  f=0.0008  <S**2>=0.000
      17 -> 21         0.10278
      17 -> 22         0.50297
      18 -> 23        -0.46020
 
 Excited State  13:      Singlet-A     10.6634 eV  116.27 nm  f=0.0060  <S**2>=0.000
      17 -> 22         0.14550
      18 -> 24         0.65120
      18 -> 25        -0.14035
 
 Excited State  14:      Singlet-A     10.7525 eV  115.31 nm  f=0.0043  <S**2>=0.000
      15 -> 20         0.68177
      18 -> 24        -0.11245
 
 Excited State  15:      Singlet-A     10.9770 eV  112.95 nm  f=0.0014  <S**2>=0.000
      14 -> 19         0.67934
 SavETr:  write IOETrn=   770 NScale= 10 NData=  16 NLR=1 NState=   15 LETran=     280.
 The selected state is a singlet
 CISAX will form     1 AO SS matrices at one time.
 NMat=     1 NSing=     1 JSym2X= 0.
 CISAX will form     1 AO SS matrices at one time.
 NMat=     1 NSing=     1 JSym2X= 0.
 Leave Link  914 at Tue Dec 15 16:20:23 2015, MaxMem=    33554432 cpu:        33.9
 (Enter /home/Applications/g09/g09/l1002.exe)
 Minotr:  Closed shell wavefunction.
          Computing CIS/TD-HF/TD-KS derivatives.
          Using Z-Vector for PSCF gradient.
          Skipping F1 and S1 gradient terms here.
          IDoAtm=111111111
          Frozen-core window.
          Direct CPHF calculation.
          Differentiating once with respect to electric field.
                with respect to dipole field.
          Differentiating once with respect to nuclear coordinates.
          Requested convergence is 1.0D-10 RMS, and 1.0D-09 maximum.
          NewPWx=F KeepS1=T KeepF1=T KeepIn=T MapXYZ=F SortEE=F KeepMc=T.
          MDV=      33554290 using IRadAn=       0.
 Using stored XC quadrature information.
 Keep R1 ints in memory in canonical form, NReq=1898913.
 FoFCou: FMM=F IPFlag=           0 FMFlag=           0 FMFlg1=           0
         NFxFlg=           0 DoJE=F BraDBF=F KetDBF=F FulRan=T
         wScrn=  0.000000 ICntrl=     600 IOpCl=  0 I1Cent=           0 NGrid=           0
         NMat0=    1 NMatS0=   1431 NMatT0=    0 NMatD0=    1 NMtDS0=    0 NMtDT0=    0
 Symmetry not used in FoFCou.
          Solving linear equations separately, MaxMat=       0.
          There are     1 degrees of freedom in the 1st order CPHF.  IDoFFX=0 NUNeed=     1.
 LinEq1:  Iter=  0 NonCon=     1 RMS=2.09D-02 Max=3.62D-01 NDo=     1
 AX will form     1 AO Fock derivatives at one time.
 LinEq1:  Iter=  1 NonCon=     1 RMS=7.05D-03 Max=6.92D-02 NDo=     1
 LinEq1:  Iter=  2 NonCon=     1 RMS=5.20D-03 Max=5.64D-02 NDo=     1
 LinEq1:  Iter=  3 NonCon=     1 RMS=2.11D-03 Max=2.23D-02 NDo=     1
 LinEq1:  Iter=  4 NonCon=     1 RMS=1.60D-03 Max=1.59D-02 NDo=     1
 LinEq1:  Iter=  5 NonCon=     1 RMS=4.77D-04 Max=2.98D-03 NDo=     1
 LinEq1:  Iter=  6 NonCon=     1 RMS=1.74D-04 Max=1.36D-03 NDo=     1
 LinEq1:  Iter=  7 NonCon=     1 RMS=7.46D-05 Max=7.90D-04 NDo=     1
 LinEq1:  Iter=  8 NonCon=     1 RMS=3.33D-05 Max=2.17D-04 NDo=     1
 LinEq1:  Iter=  9 NonCon=     1 RMS=3.66D-06 Max=1.79D-05 NDo=     1
 LinEq1:  Iter= 10 NonCon=     1 RMS=4.57D-07 Max=3.12D-06 NDo=     1
 LinEq1:  Iter= 11 NonCon=     1 RMS=7.60D-08 Max=4.79D-07 NDo=     1
 LinEq1:  Iter= 12 NonCon=     1 RMS=8.77D-09 Max=5.59D-08 NDo=     1
 LinEq1:  Iter= 13 NonCon=     1 RMS=8.87D-10 Max=5.38D-09 NDo=     1
 LinEq1:  Iter= 14 NonCon=     0 RMS=9.50D-11 Max=4.64D-10 NDo=     1
 Linear equations converged to 1.000D-10 1.000D-09 after    14 iterations.
 End of Minotr F.D. properties file   721 does not exist.
 End of Minotr F.D. properties file   722 does not exist.
 End of Minotr F.D. properties file   788 does not exist.
 Leave Link 1002 at Tue Dec 15 16:20:33 2015, MaxMem=    33554432 cpu:         9.8
 (Enter /home/Applications/g09/g09/l601.exe)
 Copying SCF densities to generalized density rwf, IOpCl= 0 IROHF=0.

 **********************************************************************

            Population analysis using the SCF density.

 **********************************************************************

 Orbital symmetries:
       Occupied  (A) (A) (A) (A) (A) (A) (A) (A) (A) (A) (A) (A)
                 (A) (A) (A) (A) (A) (A)
       Virtual   (A) (A) (A) (A) (A) (A) (A) (A) (A) (A) (A) (A)
                 (A) (A) (A) (A) (A) (A) (A) (A) (A) (A) (A) (A)
                 (A) (A) (A) (A) (A) (A) (A) (A) (A) (A) (A)
 The electronic state is 1-A.
 Alpha  occ. eigenvalues --  -19.11605 -10.18264 -10.16572 -10.12021 -10.11887
 Alpha  occ. eigenvalues --   -1.14663  -0.78809  -0.76550  -0.61136  -0.58445
 Alpha  occ. eigenvalues --   -0.54571  -0.47788  -0.45928  -0.43490  -0.38495
 Alpha  occ. eigenvalues --   -0.34512  -0.26843  -0.22925
 Alpha virt. eigenvalues --    0.02221   0.07192   0.14495   0.16285   0.19503
 Alpha virt. eigenvalues --    0.20416   0.22342   0.24179   0.34634   0.40464
 Alpha virt. eigenvalues --    0.47816   0.69227   0.69487   0.69976   0.74738
 Alpha virt. eigenvalues --    0.77186   0.78328   0.78903   0.81213   0.83956
 Alpha virt. eigenvalues --    0.91751   1.00854   1.02344   1.10367   1.18202
 Alpha virt. eigenvalues --    1.24849   1.32402   1.39385   1.50272   1.57613
 Alpha virt. eigenvalues --    1.61171   1.74324   1.97842   2.09714   3.23200
     Molecular Orbital Coefficients:
                           1         2         3         4         5
                           O         O         O         O         O
     Eigenvalues --   -19.11605 -10.18264 -10.16572 -10.12021 -10.11887
   1 1   C  1S          0.00016  -0.00850  -0.00116  -0.48436   0.85884
   2        2S          0.00066  -0.00388  -0.00008  -0.05716   0.09427
   3        2PX         0.00090   0.00047  -0.00037  -0.00130   0.00023
   4        2PY         0.00110   0.00181   0.00061   0.00084  -0.00040
   5        2PZ        -0.00006   0.00001  -0.00002  -0.00009   0.00021
   6        3S         -0.00498   0.02630  -0.01223   0.07377  -0.06912
   7        3PX        -0.00740  -0.00120  -0.00524   0.03017  -0.01053
   8        3PY         0.00538  -0.01510   0.00905  -0.01534   0.01470
   9        3PZ         0.00040   0.00012   0.00017   0.00059  -0.00080
  10 2   C  1S         -0.00033   0.98536   0.01243  -0.00329   0.00755
  11        2S         -0.00030   0.10597  -0.00163   0.00069  -0.00273
  12        2PX         0.00225   0.00252  -0.00114   0.00006  -0.00022
  13        2PY        -0.00128   0.00007  -0.00083  -0.00035  -0.00146
  14        2PZ         0.00006   0.00013   0.00008  -0.00008   0.00003
  15        3S          0.01712  -0.06638   0.01212  -0.02285   0.02703
  16        3PX         0.01739  -0.00154   0.01296  -0.00558   0.00810
  17        3PY         0.00470  -0.01412   0.01283  -0.00997   0.01662
  18        3PZ         0.00010  -0.00014  -0.00049   0.00030   0.00004
  19 3   O  1S          0.98286   0.00032   0.00031   0.00001   0.00008
  20        2S          0.10868   0.00183   0.00183  -0.00001   0.00030
  21        2PX        -0.00100  -0.00041   0.00016   0.00011  -0.00001
  22        2PY         0.00412   0.00045   0.00059  -0.00010  -0.00016
  23        2PZ        -0.00016  -0.00001  -0.00006  -0.00004  -0.00001
  24        3S         -0.06450  -0.00181  -0.00080  -0.00202  -0.00502
  25        3PX         0.00346   0.00268  -0.00023  -0.00321   0.00176
  26        3PY        -0.01391  -0.00369  -0.00410  -0.00078  -0.00159
  27        3PZ         0.00048   0.00013   0.00034   0.00012   0.00008
  28 4   C  1S         -0.00035  -0.01340   0.98522   0.00949   0.00668
  29        2S         -0.00039  -0.00441   0.10708  -0.00266  -0.00177
  30        2PX        -0.00159   0.00136  -0.00171   0.00108   0.00115
  31        2PY        -0.00211  -0.00037  -0.00115  -0.00116  -0.00172
  32        2PZ         0.00000  -0.00002   0.00005  -0.00010  -0.00003
  33        3S          0.01757   0.01214  -0.07385   0.03596   0.01095
  34        3PX        -0.01806  -0.01902   0.01089  -0.02130  -0.00529
  35        3PY        -0.00193   0.00753  -0.01290   0.01266   0.00722
  36        3PZ         0.00079   0.00047  -0.00049   0.00072   0.00009
  37 5   C  1S          0.00011  -0.00082  -0.01187   0.85907   0.48385
  38        2S          0.00031  -0.00061  -0.00541   0.09756   0.05061
  39        2PX        -0.00132  -0.00001  -0.00184  -0.00097   0.00032
  40        2PY         0.00078   0.00072   0.00224  -0.00167  -0.00035
  41        2PZ         0.00005   0.00000   0.00005  -0.00023  -0.00014
  42        3S         -0.00663  -0.01346   0.03479  -0.10541  -0.01742
  43        3PX         0.00186  -0.00235   0.00773   0.01784  -0.01114
  44        3PY         0.00841   0.00732  -0.01641   0.02938   0.00244
  45        3PZ        -0.00030   0.00031  -0.00061   0.00184   0.00038
  46 6   H  1S         -0.00086  -0.00012  -0.00112  -0.00292  -0.00212
  47        2S         -0.00256   0.00003   0.00166   0.00325   0.00673
  48 7   H  1S          0.00059   0.00163  -0.00513  -0.00009  -0.00040
  49        2S          0.00631   0.00959   0.01183   0.00663   0.00275
  50 8   H  1S          0.00081  -0.00315   0.00129   0.00027  -0.00019
  51        2S          0.00534   0.01050   0.00756  -0.00113   0.00457
  52 9   H  1S         -0.00097  -0.00122  -0.00060   0.00268  -0.00496
  53        2S         -0.00376   0.00090  -0.00244   0.00246   0.00790
                           6         7         8         9        10
                           O         O         O         O         O
     Eigenvalues --    -1.14663  -0.78809  -0.76550  -0.61136  -0.58445
   1 1   C  1S         -0.02222  -0.13874   0.07879  -0.12221   0.02306
   2        2S          0.02119   0.14685  -0.08340   0.12391  -0.02430
   3        2PX         0.01400   0.06516   0.01839  -0.12232  -0.09953
   4        2PY        -0.02519  -0.02332   0.05865   0.01833  -0.07931
   5        2PZ         0.00075   0.00491  -0.00276   0.00723  -0.00292
   6        3S          0.03589   0.28869  -0.16104   0.39281  -0.05783
   7        3PX         0.03497   0.02749  -0.02861  -0.02143  -0.04228
   8        3PY        -0.02734  -0.02753  -0.00184  -0.02598  -0.02232
   9        3PZ        -0.00145   0.00347  -0.00223   0.00446  -0.00152
  10 2   C  1S         -0.07465  -0.03146   0.14448   0.01568  -0.10684
  11        2S          0.08209   0.03840  -0.15647  -0.01716   0.11788
  12        2PX         0.09388  -0.03307  -0.04863  -0.10810  -0.14168
  13        2PY        -0.01122   0.11454   0.00404   0.14119  -0.05584
  14        2PZ         0.00195  -0.00058  -0.00394  -0.00267   0.00143
  15        3S          0.05681   0.03811  -0.32772  -0.06967   0.33009
  16        3PX        -0.05065  -0.00159  -0.00922  -0.04353  -0.08608
  17        3PY        -0.02524   0.02989  -0.03723   0.02386  -0.03161
  18        3PZ         0.00063  -0.00041  -0.00086  -0.00046   0.00183
  19 3   O  1S         -0.21306   0.08444  -0.00485  -0.01424   0.03478
  20        2S          0.19242  -0.08187   0.00503   0.01423  -0.03518
  21        2PX        -0.02432   0.02289   0.24430   0.23837  -0.02007
  22        2PY         0.10900   0.03999   0.04985   0.02724  -0.06787
  23        2PZ        -0.00397   0.00132  -0.00009  -0.00068  -0.00189
  24        3S          0.68808  -0.30928   0.01398   0.05448  -0.15919
  25        3PX        -0.03236   0.02201   0.20445   0.20972  -0.01782
  26        3PY         0.14094   0.02097   0.04101   0.02424  -0.06431
  27        3PZ        -0.00510   0.00106  -0.00032  -0.00062  -0.00193
  28 4   C  1S         -0.07726  -0.07063  -0.14466   0.00352  -0.09886
  29        2S          0.08554   0.08197   0.15635  -0.00649   0.10796
  30        2PX        -0.08050  -0.03571  -0.01972   0.00395   0.21927
  31        2PY        -0.04875   0.11335  -0.04568  -0.21816   0.00899
  32        2PZ         0.00215   0.00119   0.00248  -0.00048  -0.00691
  33        3S          0.05241   0.11960   0.34275   0.02794   0.31414
  34        3PX         0.06341  -0.01929  -0.02716  -0.00989   0.10432
  35        3PY        -0.01012   0.03643   0.02765  -0.07104   0.00443
  36        3PZ        -0.00260   0.00138   0.00156   0.00027  -0.00371
  37 5   C  1S         -0.02733  -0.15502  -0.03774   0.10237   0.04287
  38        2S          0.02694   0.16466   0.04150  -0.10490  -0.04217
  39        2PX        -0.00023  -0.03423   0.07534  -0.11700   0.11281
  40        2PY        -0.03565  -0.06284  -0.04498   0.01874  -0.02457
  41        2PZ        -0.00104  -0.00721  -0.00180   0.00685   0.00115
  42        3S          0.06087   0.31563   0.05923  -0.33454  -0.14018
  43        3PX        -0.01275  -0.01604  -0.01981  -0.03128   0.05800
  44        3PY        -0.05110  -0.03269   0.00942   0.04112   0.01750
  45        3PZ         0.00058  -0.00506  -0.00048   0.00563   0.00111
  46 6   H  1S          0.00752   0.06695   0.01927  -0.09070  -0.02427
  47        2S          0.01545   0.01515   0.00380  -0.04972  -0.02127
  48 7   H  1S          0.01531   0.03335   0.10041   0.01900   0.20645
  49        2S         -0.04043   0.00949   0.03268   0.01539   0.09420
  50 8   H  1S          0.00951   0.00959  -0.07567  -0.00969   0.16069
  51        2S         -0.03233   0.00413  -0.02581  -0.01008   0.07638
  52 9   H  1S          0.00786   0.07212  -0.04758   0.15840  -0.00830
  53        2S          0.01804   0.01654  -0.01544   0.08173  -0.00627
                          11        12        13        14        15
                           O         O         O         O         O
     Eigenvalues --    -0.54571  -0.47788  -0.45928  -0.43490  -0.38495
   1 1   C  1S         -0.03840  -0.04181  -0.00258  -0.00670   0.02229
   2        2S          0.03501   0.04577   0.00342   0.00807  -0.02092
   3        2PX        -0.06101  -0.00879  -0.03450   0.28223  -0.20887
   4        2PY         0.21983   0.00776   0.02176  -0.16432  -0.17322
   5        2PZ         0.00663  -0.00472   0.08987   0.00485  -0.00671
   6        3S          0.16438   0.13111   0.00141   0.03239  -0.11291
   7        3PX        -0.04601   0.01091  -0.03101   0.18151  -0.11983
   8        3PY         0.10249   0.00860   0.02006  -0.09617  -0.07589
   9        3PZ         0.00554  -0.00318   0.06527   0.00453  -0.00394
  10 2   C  1S          0.04496   0.03380   0.00826  -0.02388  -0.03369
  11        2S         -0.05154  -0.03188  -0.00922   0.02690   0.03965
  12        2PX        -0.00414   0.27971   0.02213   0.00275   0.07206
  13        2PY        -0.14487   0.08779  -0.00557   0.11691   0.20972
  14        2PZ         0.00271  -0.01768   0.18181   0.02356   0.00090
  15        3S         -0.11852  -0.14017  -0.02271   0.08673   0.13434
  16        3PX        -0.01450   0.15552   0.01131   0.02404   0.04176
  17        3PY        -0.11994   0.07304   0.00058   0.05427   0.19793
  18        3PZ         0.00137  -0.01687   0.16496   0.02395   0.00232
  19 3   O  1S         -0.06347   0.01028  -0.00099  -0.00400   0.00432
  20        2S          0.06321  -0.01040   0.00064   0.00604  -0.00712
  21        2PX        -0.03368  -0.23587  -0.03591   0.07469   0.00257
  22        2PY        -0.19691   0.00328   0.00683  -0.07735   0.17919
  23        2PZ         0.00148  -0.04093   0.39010   0.05813   0.01324
  24        3S          0.25054  -0.03658   0.00645  -0.00011   0.01380
  25        3PX        -0.03172  -0.22185  -0.03358   0.08253   0.00696
  26        3PY        -0.18162   0.00592   0.00759  -0.07522   0.18545
  27        3PZ         0.00178  -0.04024   0.39260   0.05985   0.01345
  28 4   C  1S          0.02762  -0.02933  -0.00741   0.03711   0.01825
  29        2S         -0.03514   0.03019   0.00906  -0.04490  -0.01988
  30        2PX         0.14564   0.22893   0.00950   0.17511   0.01026
  31        2PY        -0.02648   0.03703   0.03459  -0.19953  -0.06734
  32        2PZ        -0.00507  -0.02869   0.18962   0.01654   0.00678
  33        3S         -0.05150   0.09245   0.01807  -0.13922  -0.06737
  34        3PX         0.09497   0.12484   0.01181   0.12746   0.00893
  35        3PY        -0.06042   0.02335   0.02052  -0.14770   0.00121
  36        3PZ        -0.00220  -0.02259   0.16916   0.01863   0.00718
  37 5   C  1S         -0.05895   0.05010   0.00519  -0.01738   0.02011
  38        2S          0.05713  -0.05300  -0.00625   0.01405  -0.02406
  39        2PX         0.00329  -0.03951   0.02036  -0.21700   0.23589
  40        2PY         0.21625  -0.05513  -0.03729   0.17097   0.24676
  41        2PZ        -0.00348  -0.00737   0.10172   0.00891   0.00043
  42        3S          0.22732  -0.17917  -0.01360   0.09704  -0.07616
  43        3PX         0.03161  -0.01700  -0.00052  -0.09228   0.16033
  44        3PY         0.12396  -0.04521  -0.03579   0.07607   0.17017
  45        3PZ        -0.00490  -0.00413   0.07542   0.00664   0.00071
  46 6   H  1S          0.14900  -0.08940  -0.02443   0.06401   0.21402
  47        2S          0.07653  -0.05463  -0.00965   0.05331   0.20775
  48 7   H  1S          0.04856   0.17847   0.00722   0.09950  -0.01469
  49        2S          0.01576   0.12211   0.00232   0.07525  -0.00806
  50 8   H  1S         -0.00109  -0.20542  -0.01608  -0.01559  -0.09364
  51        2S         -0.01231  -0.15008  -0.01356  -0.01444  -0.08836
  52 9   H  1S          0.13694   0.05808   0.03307  -0.21535   0.00721
  53        2S          0.06867   0.03667   0.01615  -0.16801   0.00908
                          16        17        18        19        20
                           O         O         O         V         V
     Eigenvalues --    -0.34512  -0.26843  -0.22925   0.02221   0.07192
   1 1   C  1S          0.02513  -0.00466   0.00308  -0.00766  -0.00387
   2        2S         -0.02101   0.00639  -0.00268   0.00824   0.00086
   3        2PX         0.05798   0.00260  -0.00384   0.00562  -0.01656
   4        2PY         0.20590   0.01761  -0.01334   0.00495   0.00730
   5        2PZ         0.01627  -0.28177   0.20639  -0.20880  -0.31366
   6        3S         -0.17274   0.00339  -0.01581   0.04161   0.04034
   7        3PX         0.06782  -0.00638  -0.00618  -0.00906  -0.04126
   8        3PY         0.16142   0.01674  -0.01346   0.03514   0.02948
   9        3PZ         0.01047  -0.29850   0.22791  -0.35111  -0.60225
  10 2   C  1S         -0.01531   0.00182   0.00318   0.00326   0.00538
  11        2S          0.02223  -0.00262  -0.00351  -0.00258  -0.00777
  12        2PX         0.04568  -0.00189  -0.00695   0.00519  -0.00873
  13        2PY        -0.20800  -0.01048   0.01530   0.00502   0.00399
  14        2PZ         0.01681  -0.04002   0.33035   0.35707   0.15800
  15        3S          0.04368  -0.00229  -0.01532  -0.01333  -0.02265
  16        3PX        -0.01947  -0.00093  -0.00168   0.01753  -0.00469
  17        3PY        -0.04437  -0.00238   0.01075   0.02597   0.02585
  18        3PZ         0.01242  -0.01397   0.35732   0.53978   0.29811
  19 3   O  1S          0.05940  -0.00059  -0.00235   0.00014  -0.00270
  20        2S         -0.05923   0.00046   0.00205   0.00044   0.00296
  21        2PX        -0.08353  -0.00435   0.00407  -0.00161  -0.00815
  22        2PY         0.39357   0.01383  -0.01060  -0.00187   0.00388
  23        2PZ        -0.00624   0.28343  -0.01058  -0.29500   0.03687
  24        3S         -0.21548   0.00462   0.01157  -0.00106   0.01394
  25        3PX        -0.09118  -0.00413   0.00609   0.00071  -0.01468
  26        3PY         0.43310   0.01531  -0.01158  -0.00212   0.00116
  27        3PZ        -0.00760   0.32539  -0.01198  -0.42050   0.05853
  28 4   C  1S         -0.01667  -0.00202  -0.00038   0.00025   0.00104
  29        2S          0.02409   0.00252   0.00135   0.00277  -0.00429
  30        2PX         0.01292  -0.00488  -0.01330   0.00941  -0.00595
  31        2PY        -0.18852   0.00300   0.00878  -0.00228  -0.00327
  32        2PZ        -0.00632  -0.09735  -0.32349   0.28226  -0.25880
  33        3S          0.03934   0.00628  -0.00559  -0.02271   0.01750
  34        3PX         0.00960  -0.00157  -0.00651   0.04036  -0.03348
  35        3PY        -0.01422   0.00719   0.00065  -0.01773   0.00667
  36        3PZ        -0.00539  -0.06532  -0.35260   0.42577  -0.48632
  37 5   C  1S          0.01835   0.00753   0.00171   0.00370  -0.00887
  38        2S         -0.01949  -0.00926  -0.00204  -0.00406   0.00389
  39        2PX        -0.13250  -0.00208   0.00333   0.00847   0.00721
  40        2PY         0.12902  -0.00141  -0.00292  -0.00428   0.01246
  41        2PZ         0.00603  -0.30832  -0.15848  -0.10980   0.36316
  42        3S         -0.10686  -0.02299  -0.00038  -0.00035   0.08425
  43        3PX        -0.15060  -0.01477   0.00456   0.01586   0.00342
  44        3PY         0.06364  -0.00690  -0.00970  -0.02741   0.04196
  45        3PZ         0.00950  -0.32178  -0.16375  -0.19403   0.70514
  46 6   H  1S          0.03221  -0.00017   0.00459   0.00198  -0.01789
  47        2S          0.06489   0.00243   0.00673   0.01063  -0.06806
  48 7   H  1S          0.07913   0.00200  -0.00332  -0.00315   0.00173
  49        2S          0.07673   0.00084  -0.00707  -0.02120   0.01082
  50 8   H  1S          0.10515   0.00414   0.00078   0.00709   0.00286
  51        2S          0.11386   0.00695   0.00133   0.02808   0.01658
  52 9   H  1S          0.03976   0.00216   0.00181  -0.00889  -0.01696
  53        2S          0.06282   0.00273   0.00008  -0.03560  -0.05807
                          21        22        23        24        25
                           V         V         V         V         V
     Eigenvalues --     0.14495   0.16285   0.19503   0.20416   0.22342
   1 1   C  1S         -0.01055   0.04342   0.05524   0.08245   0.09160
   2        2S          0.02299  -0.03164  -0.04728  -0.05932  -0.05871
   3        2PX         0.05009   0.03422  -0.06730  -0.01462   0.25404
   4        2PY        -0.05253  -0.13260   0.00933  -0.14664   0.01718
   5        2PZ         0.00403  -0.02300  -0.00528  -0.01130  -0.02020
   6        3S         -0.12685  -0.57900  -0.45281  -1.04006  -1.46189
   7        3PX        -0.03180   0.22854  -0.01725   0.11810   1.23287
   8        3PY        -0.06822  -0.45329  -0.18235  -0.82512   0.02349
   9        3PZ         0.01206  -0.07875  -0.01156  -0.03542  -0.07655
  10 2   C  1S          0.13161   0.00382  -0.01663   0.01768  -0.07286
  11        2S         -0.09640   0.00110   0.01635   0.00637   0.04700
  12        2PX         0.04917   0.13004  -0.20809   0.13772  -0.08671
  13        2PY         0.19816  -0.05642  -0.03960   0.03650   0.11405
  14        2PZ        -0.01787   0.00808   0.00482   0.00163   0.00671
  15        3S         -1.37252  -0.21499   0.28570  -0.60107   0.90112
  16        3PX         0.37769   0.24856  -0.77194   0.22780  -0.45319
  17        3PY         0.62434  -0.29072  -0.14320  -0.00110   0.42917
  18        3PZ        -0.04340   0.02866   0.01824   0.00904   0.03048
  19 3   O  1S         -0.08391   0.07295  -0.03528   0.03653  -0.05052
  20        2S          0.06110  -0.04812   0.02513  -0.01829   0.01840
  21        2PX        -0.04472  -0.00083  -0.02656  -0.05255   0.11651
  22        2PY         0.06280  -0.12972   0.03762  -0.03142   0.01578
  23        2PZ        -0.00203   0.00368  -0.00996   0.00153  -0.00380
  24        3S          0.67567  -0.63892   0.29479  -0.36610   0.55532
  25        3PX        -0.04817  -0.00417  -0.11780  -0.17097   0.19025
  26        3PY         0.09791  -0.24307   0.03539  -0.09444   0.09113
  27        3PZ        -0.00399   0.00814  -0.02081   0.00165  -0.01221
  28 4   C  1S          0.07203   0.00226   0.09332  -0.00940   0.00305
  29        2S         -0.05550   0.00447  -0.07383  -0.00456  -0.02228
  30        2PX         0.04100  -0.15824  -0.19507   0.05100   0.14542
  31        2PY         0.13821  -0.11859   0.05250  -0.15222   0.16194
  32        2PZ         0.00080  -0.00282   0.01347   0.00495  -0.00671
  33        3S         -0.72193  -0.35874  -1.25603   0.33043   0.39971
  34        3PX        -0.07010  -0.32231  -1.13459   0.01498   0.29141
  35        3PY         0.40754  -0.38945   0.22315  -0.56475   0.62443
  36        3PZ         0.00998  -0.01991   0.05968   0.02732  -0.01985
  37 5   C  1S          0.01189   0.03902  -0.07041  -0.12137   0.04758
  38        2S         -0.00416  -0.02343   0.06610   0.07058  -0.00097
  39        2PX        -0.02102  -0.06719  -0.06565   0.02512  -0.02757
  40        2PY        -0.01981  -0.22209  -0.01773   0.15262  -0.00247
  41        2PZ         0.00237   0.02241  -0.01489  -0.02199   0.01053
  42        3S         -0.19435  -0.54256   0.41952   1.61266  -1.07035
  43        3PX        -0.05466  -0.19029  -0.05592   0.11659   0.02272
  44        3PY        -0.03025  -0.70658   0.32948   0.68784   0.27290
  45        3PZ         0.00360   0.06891  -0.03585  -0.06859   0.06950
  46 6   H  1S         -0.00375   0.09800  -0.01960  -0.00168  -0.06149
  47        2S          0.13850   1.28725  -0.46432  -1.43039   0.10897
  48 7   H  1S          0.05472   0.01034   0.06588   0.01111  -0.00304
  49        2S          0.65327   0.49205   2.03303  -0.38508  -0.37339
  50 8   H  1S          0.11600  -0.01148  -0.02614  -0.02356   0.01590
  51        2S          1.56571   0.15733  -0.92364   0.48784  -0.47945
  52 9   H  1S         -0.01171   0.07241  -0.00056   0.04236  -0.01073
  53        2S          0.10795   0.99302   0.27491   1.26685   1.78031
                          26        27        28        29        30
                           V         V         V         V         V
     Eigenvalues --     0.24179   0.34634   0.40464   0.47816   0.69227
   1 1   C  1S         -0.05727   0.07812   0.01997   0.12346   0.03014
   2        2S          0.00346  -0.02213  -0.03222  -0.02278   0.08928
   3        2PX         0.09159  -0.04886  -0.16035  -0.21811  -0.31800
   4        2PY         0.05463   0.21417  -0.15308   0.16867  -0.12065
   5        2PZ        -0.00076   0.01189  -0.00875   0.00741   0.00530
   6        3S          1.15795  -1.25704  -0.09917  -2.31503   0.11002
   7        3PX         0.86384  -0.20701  -0.63711  -2.01194   0.61852
   8        3PY         0.09250   1.77601  -0.77186   1.17259  -0.06745
   9        3PZ         0.03087   0.03549  -0.03057  -0.03749  -0.01456
  10 2   C  1S         -0.05821  -0.08109  -0.00795  -0.09406   0.02752
  11        2S          0.04878   0.00530  -0.03255   0.03708  -0.01434
  12        2PX         0.22045   0.08477   0.10215   0.22680  -0.59436
  13        2PY        -0.04553   0.31470   0.01994  -0.03232   0.49323
  14        2PZ         0.00369  -0.00487   0.00736  -0.00450   0.04476
  15        3S          0.40184   1.43244  -0.15591   1.57056  -0.08624
  16        3PX         0.68027   0.47946   0.82645   1.02163   0.52689
  17        3PY        -0.33877   1.65751  -0.72687   0.98551  -0.54859
  18        3PZ         0.01139  -0.02439   0.03511   0.00296  -0.03787
  19 3   O  1S          0.04199   0.06047   0.03704  -0.00869  -0.02140
  20        2S         -0.01735  -0.02195  -0.01253   0.00064   0.06756
  21        2PX         0.26530  -0.08794   0.17918   0.27370  -0.12014
  22        2PY         0.03971  -0.16208  -0.03655   0.03840   0.06223
  23        2PZ         0.00857   0.00399  -0.00562  -0.00574  -0.00171
  24        3S         -0.47083  -0.79839  -0.52183   0.13767  -0.28285
  25        3PX         0.57895  -0.21716   0.50196   0.63139   0.02508
  26        3PY         0.02889  -0.50149  -0.17657   0.15747   0.01523
  27        3PZ         0.01438   0.01100  -0.00742   0.00055   0.01154
  28 4   C  1S          0.09024  -0.05086  -0.07949   0.10445   0.02115
  29        2S         -0.06770  -0.00622   0.00610  -0.02333  -0.01074
  30        2PX        -0.02961  -0.16852  -0.11540   0.25823   0.23699
  31        2PY         0.01683   0.06349   0.19359   0.13894  -0.01115
  32        2PZ        -0.00549   0.00707   0.01168  -0.00778   0.04929
  33        3S         -1.32083   0.65185   1.91106  -1.72362  -0.17791
  34        3PX        -0.27040  -0.91220  -1.15163   1.74813  -0.45114
  35        3PY        -0.06998  -0.28716   1.91487  -0.42672   0.07610
  36        3PZ        -0.01328   0.03901   0.08294  -0.05652  -0.03287
  37 5   C  1S          0.01114   0.03455   0.05950  -0.12674  -0.02119
[...]
     2  C    0.450582   5.045027   0.303774  -0.141578  -0.130618   0.005741
     3  O   -0.083392   0.303774   8.155812   0.270539  -0.078697   0.003287
     4  C   -0.113058  -0.141578   0.270539   5.004543   0.487325  -0.033821
     5  C    0.445167  -0.130618  -0.078697   0.487325   5.227426   0.377908
     6  H   -0.033363   0.005741   0.003287  -0.033821   0.377908   0.504209
     7  H    0.002073   0.003215  -0.030668   0.401176  -0.042565  -0.000511
     8  H   -0.042029   0.379170  -0.026048   0.003330   0.003043  -0.000030
     9  H    0.398949  -0.029433   0.002379   0.003863  -0.026347  -0.000986
               7          8          9
     1  C    0.002073  -0.042029   0.398949
     2  C    0.003215   0.379170  -0.029433
     3  O   -0.030668  -0.026048   0.002379
     4  C    0.401176   0.003330   0.003863
     5  C   -0.042565   0.003043  -0.026347
     6  H   -0.000511  -0.000030  -0.000986
     7  H    0.440612  -0.000022  -0.000016
     8  H   -0.000022   0.461773   0.000031
     9  H   -0.000016   0.000031   0.470519
 Mulliken charges:
               1
     1  C   -0.258268
     2  C    0.114121
     3  O   -0.516986
     4  C    0.117683
     5  C   -0.262642
     6  H    0.177564
     7  H    0.226705
     8  H    0.220782
     9  H    0.181041
 Sum of Mulliken charges =   0.00000
 Mulliken charges with hydrogens summed into heavy atoms:
               1
     1  C   -0.077227
     2  C    0.334903
     3  O   -0.516986
     4  C    0.344388
     5  C   -0.085077
 Electronic spatial extent (au):  <R**2>=            287.9457
 Charge=              0.0000 electrons
 Dipole moment (field-independent basis, Debye):
    X=             -0.1414    Y=              0.3885    Z=             -0.0191  Tot=              0.4138
 Quadrupole moment (field-independent basis, Debye-Ang):
   XX=            -23.3704   YY=            -28.0618   ZZ=            -31.6781
   XY=              0.7654   XZ=             -0.3161   YZ=              0.0014
 Traceless Quadrupole moment (field-independent basis, Debye-Ang):
   XX=              4.3331   YY=             -0.3584   ZZ=             -3.9747
   XY=              0.7654   XZ=             -0.3161   YZ=              0.0014
 Octapole moment (field-independent basis, Debye-Ang**2):
  XXX=              2.4544  YYY=              0.2636  ZZZ=              0.1344  XYY=             -2.2733
  XXY=             -3.6503  XXZ=             -0.0024  XZZ=              1.0018  YZZ=             -3.3117
  YYZ=             -0.0102  XYZ=             -0.1096
 Hexadecapole moment (field-independent basis, Debye-Ang**3):
 XXXX=           -154.1240 YYYY=           -153.3355 ZZZZ=            -30.9068 XXXY=             -2.7114
 XXXZ=             -1.2359 YYYX=              2.9732 YYYZ=             -0.2927 ZZZX=             -0.3646
 ZZZY=             -0.1420 XXYY=            -47.4897 XXZZ=            -39.0266 YYZZ=            -33.6475
 XXYZ=              0.0486 YYXZ=             -0.6125 ZZXY=             -0.9846
 N-N= 1.619238612442D+02 E-N=-8.564746003611D+02  KE= 2.271349684742D+02
 Orbital energies and kinetic energies (alpha):
                                 1                 2
   1         O               -19.116054         28.827971
   2         O               -10.182640         15.801915
   3         O               -10.165725         15.795524
   4         O               -10.120207         15.804082
   5         O               -10.118868         15.807173
   6         O                -1.146633          2.560434
   7         O                -0.788092          1.754125
   8         O                -0.765502          1.846629
   9         O                -0.611363          1.654765
  10         O                -0.584452          1.333008
  11         O                -0.545707          1.444296
  12         O                -0.477878          1.479368
  13         O                -0.459277          1.647985
  14         O                -0.434902          1.446465
  15         O                -0.384947          1.476303
  16         O                -0.345117          2.210750
  17         O                -0.268434          1.468793
  18         O                -0.229250          1.207898
  19         V                 0.022212          1.851566
  20         V                 0.071915          1.492894
  21         V                 0.144946          1.592126
  22         V                 0.162846          1.362416
  23         V                 0.195029          1.259395
  24         V                 0.204163          1.345853
  25         V                 0.223418          1.478812
  26         V                 0.241786          1.889812
  27         V                 0.346345          1.954409
  28         V                 0.404641          1.762720
  29         V                 0.478161          3.000238
  30         V                 0.692270          2.499811
  31         V                 0.694868          2.689415
  32         V                 0.699758          2.530890
  33         V                 0.747382          2.682166
  34         V                 0.771856          2.522002
  35         V                 0.783276          2.697616
  36         V                 0.789031          2.586035
  37         V                 0.812126          2.806304
  38         V                 0.839562          2.581306
  39         V                 0.917513          2.740264
  40         V                 1.008545          3.096850
  41         V                 1.023438          3.204870
  42         V                 1.103668          3.284681
  43         V                 1.182022          2.680661
  44         V                 1.248495          2.809206
  45         V                 1.324019          2.541618
  46         V                 1.393852          3.042841
  47         V                 1.502716          4.947742
  48         V                 1.576126          3.475639
  49         V                 1.611708          3.755904
  50         V                 1.743239          4.357618
  51         V                 1.978420          3.969845
  52         V                 2.097145          4.340974
  53         V                 3.232001          6.836490
 Total kinetic energy from orbitals= 2.271349684742D+02
 No NMR shielding tensors so no spin-rotation constants.
 Leave Link  601 at Tue Dec 15 16:20:33 2015, MaxMem=    33554432 cpu:         0.1
 (Enter /home/Applications/g09/g09/l701.exe)
 Compute integral first derivatives.
 ... and contract with generalized density number  6.
 Leave Link  701 at Tue Dec 15 16:20:33 2015, MaxMem=    33554432 cpu:         0.1
 (Enter /home/Applications/g09/g09/l702.exe)
 L702 exits ... SP integral derivatives will be done elsewhere.
 Leave Link  702 at Tue Dec 15 16:20:33 2015, MaxMem=    33554432 cpu:         0.0
 (Enter /home/Applications/g09/g09/l703.exe)
 Compute integral first derivatives, UseDBF=F ICtDFT=           0.
 Integral derivatives from FoFJK, PRISM(SPDF).
 Calling FoFJK, ICntrl=  10005127 FMM=F ISym2X=0 I1Cent= 0 IOpClX= 0 NMat=1 NMatS=1 NMatT=0.
 FoFJK:  IHMeth= 1 ICntrl=10005127 DoSepK=F KAlg= 0 I1Cent=   0 FoldK=F
 IRaf=         0 NMat=   1 IRICut=       1 DoRegI=T DoRafI=F ISym2E= 0.
 FoFCou: FMM=F IPFlag=           0 FMFlag=      100000 FMFlg1=         800
         NFxFlg=           0 DoJE=F BraDBF=F KetDBF=F FulRan=T
         wScrn=  0.000000 ICntrl=10005127 IOpCl=  0 I1Cent=           0 NGrid=           0
         NMat0=    1 NMatS0=      1 NMatT0=    0 NMatD0=    1 NMtDS0=    0 NMtDT0=    0
 Symmetry not used in FoFCou.
 Leave Link  703 at Tue Dec 15 16:20:34 2015, MaxMem=    33554432 cpu:         1.2
 (Enter /home/Applications/g09/g09/l716.exe)
 Dipole        = 1.88656739D-01 3.08798713D-01 1.04871853D-02
 ***** Axes restored to original set *****
 -------------------------------------------------------------------
 Center     Atomic                   Forces (Hartrees/Bohr)
 Number     Number              X              Y              Z
 -------------------------------------------------------------------
      1        6          -0.067691330    0.044068583    0.004635790
      2        6           0.037094450   -0.074472647    0.002565358
      3        8          -0.120693819    0.008528961   -0.002633750
      4        6           0.018649588   -0.042303317   -0.003529398
      5        6           0.103554725    0.014253508    0.003501046
      6        1           0.006740001    0.007212011   -0.000743962
      7        1          -0.045693843    0.086640664    0.001703302
      8        1          -0.008835396    0.009993708   -0.000319298
      9        1           0.076875624   -0.053921472   -0.005179087
 -------------------------------------------------------------------
 Cartesian Forces:  Max     0.120693819 RMS     0.047111999
 Z-matrix is all fixed cartesians, so copy forces.
 Force constants in Cartesian coordinates: 
                1             2             3             4             5 
      1  0.899245D+00
      2 -0.145997D+00  0.808971D+00
      3 -0.961934D-02 -0.315025D-03  0.180238D+00
      4 -0.391448D+00 -0.683034D-01 -0.409718D-02  0.805116D+00
      5 -0.486944D-01 -0.182063D+00 -0.110200D-02 -0.508326D-01  0.947765D+00
      6 -0.101255D-01 -0.272265D-02 -0.777145D-01  0.258199D-01 -0.642246D-02
      7 -0.750700D-02  0.300443D-01 -0.164952D-02 -0.293058D+00  0.187606D+00
      8 -0.482209D-02  0.192756D-01 -0.378573D-03  0.232824D+00 -0.457624D+00
      9 -0.655844D-03  0.101722D-02  0.815904D-02 -0.166647D-01  0.153035D-01
     10  0.110564D-01  0.637754D-03 -0.123605D-04  0.278741D-01  0.178810D-01
     11  0.334505D-01  0.190470D-02 -0.889782D-03 -0.183202D-01 -0.117599D-01
     12 -0.243298D-02 -0.215652D-03 -0.320491D-02  0.211300D-02  0.123495D-02
     13 -0.164241D+00  0.218015D-01 -0.226478D-03  0.811466D-02 -0.325014D-01
     14  0.363576D-02 -0.375651D+00  0.164809D-01  0.465746D-03 -0.190981D-02
     15 -0.664349D-03  0.162139D-01 -0.739398D-01  0.338618D-03 -0.646707D-03
     16  0.167244D-01  0.984504D-03  0.343879D-03  0.941657D-05 -0.124751D-04
     17 -0.231244D-01 -0.143428D-02 -0.225233D-02 -0.314740D-05  0.416968D-05
     18  0.285525D-02  0.844766D-03  0.165230D-01 -0.898716D-04  0.119062D-03
     19  0.101675D-05  0.164059D-05  0.384812D-04  0.193418D-05  0.000000D+00
     20 -0.443790D-05 -0.716081D-05 -0.167962D-03  0.110446D-04 -0.147810D-05
     21  0.202642D-03  0.326975D-03  0.766945D-02 -0.416472D-03  0.557364D-04
     22  0.648184D-02 -0.257409D-01 -0.113335D-02 -0.151755D+00 -0.926515D-01
     23 -0.280617D-02  0.111953D-01 -0.158497D-03 -0.897260D-01 -0.318712D+00
     24 -0.122155D-03 -0.103869D-02  0.192932D-01 -0.638879D-02 -0.946408D-02
     25 -0.370312D+00  0.186571D+00  0.163559D-01 -0.485467D-02  0.192053D-01
     26  0.188362D+00 -0.282191D+00 -0.112167D-01 -0.611539D-02  0.243017D-01
     27  0.205622D-01 -0.141108D-01 -0.770230D-01 -0.614464D-03  0.922036D-03
                6             7             8             9            10 
      6  0.160007D+00
      7 -0.147806D-01  0.558169D+00
      8  0.165183D-01  0.175237D-02  0.885038D+00
      9 -0.499636D-01  0.248196D-01 -0.459823D-02  0.660256D-01
     10  0.119806D-02 -0.297552D+00 -0.234716D+00 -0.951678D-02  0.966606D+00
     11 -0.920437D-03 -0.190719D+00 -0.451892D+00 -0.108321D-01 -0.565173D-01
     12 -0.194453D-02 -0.962735D-02 -0.122457D-01 -0.530444D-01 -0.490055D-03
     13  0.209111D-02 -0.102102D-01  0.667355D-02  0.651727D-03 -0.491460D+00
     14  0.427400D-03 -0.307260D-01  0.200944D-01  0.113974D-02  0.113779D+00
     15 -0.703584D-03 -0.123451D-02  0.391963D-03  0.106906D-01  0.507886D-02
     16 -0.316820D-03  0.000000D+00  0.324629D-05 -0.105074D-03 -0.576458D-02
     17  0.105894D-03 -0.113318D-05  0.172123D-04 -0.557121D-03  0.780026D-02
     18  0.302372D-02  0.132017D-04 -0.200525D-03  0.649050D-02  0.593470D-03
     19 -0.341123D-04  0.261692D-01 -0.171372D-01 -0.308768D-03 -0.210798D+00
     20 -0.194790D-03  0.124872D-01 -0.817487D-02 -0.231879D-03  0.151129D+00
     21  0.734515D-02  0.101652D-02 -0.768535D-03  0.346732D-02  0.342569D-02
     22 -0.563324D-02  0.239891D-01  0.154226D-01  0.178609D-02  0.278655D-04
     23 -0.765767D-02 -0.104537D-01 -0.672554D-02 -0.889285D-03  0.000000D+00
     24 -0.593570D-01  0.156928D-02  0.115337D-02  0.341115D-02 -0.385675D-03
     25  0.178121D-02  0.000000D+00  0.000000D+00 -0.624602D-05  0.101789D-04
     26  0.866411D-03  0.935023D-05 -0.944669D-05 -0.351777D-03  0.506225D-05
     27  0.193078D-01 -0.126622D-03  0.127928D-03  0.476380D-02  0.108798D-03
               11            12            13            14            15 
     11  0.111332D+01
     12  0.222989D-01  0.216631D+00
     13  0.929698D-01  0.924868D-02  0.911800D+00
     14 -0.222988D+00 -0.280216D-02  0.826873D-02  0.769751D+00
     15 -0.283610D-02 -0.104891D+00  0.128527D-01 -0.355917D-03  0.192843D+00
     16 -0.172912D-01 -0.239480D-02 -0.282796D+00 -0.125446D+00 -0.163645D-01
     17  0.235033D-01  0.380982D-03 -0.126396D+00 -0.204526D+00 -0.101485D-01
     18  0.799068D-03  0.267426D-01 -0.208118D-01 -0.132075D-01 -0.761913D-01
     19  0.156414D+00  0.368971D-02  0.960667D-02  0.289381D-01  0.687524D-03
     20 -0.452092D+00 -0.882685D-02  0.460298D-02  0.138932D-01 -0.418314D-03
     21 -0.784667D-02 -0.912086D-01 -0.407449D-03 -0.236678D-02  0.307431D-01
     22 -0.372924D-05 -0.491453D-03  0.144290D-05 -0.191155D-05 -0.485462D-04
     23  0.000000D+00 -0.160443D-04  0.317776D-05 -0.420990D-05 -0.106916D-03
     24  0.516149D-04  0.680200D-02 -0.112912D-03  0.149586D-03  0.379891D-02
     25  0.164243D-04  0.385244D-03  0.191834D-01  0.108650D-02 -0.645794D-03
     26  0.816823D-05  0.191592D-03  0.245776D-01  0.133998D-02 -0.209335D-02
     27  0.175552D-03  0.411770D-02 -0.328552D-02  0.534779D-03  0.176496D-01
               16            17            18            19            20 
     16  0.271769D+00
     17  0.141738D+00  0.182467D+00
     18  0.180398D-01  0.116538D-01  0.410664D-01
     19  0.000000D+00  0.511596D-05 -0.596013D-04  0.175018D+00
     20 -0.421150D-05 -0.223300D-04  0.260147D-03 -0.168222D+00  0.446405D+00
     21  0.192305D-03  0.101963D-02 -0.118788D-01 -0.401324D-02  0.957964D-02
     22  0.000000D+00  0.000000D+00  0.000000D+00  0.000000D+00  0.000000D+00
     23  0.000000D+00  0.000000D+00  0.000000D+00  0.000000D+00  0.000000D+00
     24  0.000000D+00  0.000000D+00  0.000000D+00  0.000000D+00  0.000000D+00
     25  0.566217D-04 -0.189253D-04 -0.540397D-03  0.000000D+00  0.000000D+00
     26  0.281594D-04 -0.941204D-05 -0.268753D-03  0.000000D+00  0.000000D+00
     27  0.605205D-03 -0.202284D-03 -0.577606D-02  0.000000D+00  0.000000D+00
               21            22            23            24            25 
     21  0.538624D-01
     22  0.000000D+00  0.121255D+00
     23  0.000000D+00  0.102982D+00  0.314262D+00
     24  0.000000D+00  0.543107D-02  0.863147D-02  0.330496D-01
     25  0.000000D+00  0.000000D+00  0.000000D+00  0.917503D-05  0.355917D+00
     26  0.000000D+00 -0.660340D-05 -0.145430D-04  0.516739D-03 -0.206860D+00
     27  0.000000D+00  0.894239D-04  0.196943D-03 -0.699774D-02 -0.173391D-01
               26            27 
     26  0.256574D+00
     27  0.123559D-01  0.439579D-01
 Leave Link  716 at Tue Dec 15 16:20:34 2015, MaxMem=    33554432 cpu:         0.0
 (Enter /home/Applications/g09/g09/l103.exe)

 GradGradGradGradGradGradGradGradGradGradGradGradGradGradGradGradGradGrad
 Berny optimization.
 Search for a local minimum.
 Step number   1 out of a maximum of    2
 All quantities printed in internal units (Hartrees-Bohrs-Radians)
 Second derivative matrix not updated -- first step.
 ITU=  0
     Eigenvalues ---    0.01591   0.03559   0.07569   0.07680   0.08025
     Eigenvalues ---    0.08942   0.13009   0.13192   0.17313   0.25292
     Eigenvalues ---    0.26839   0.27991   0.37449   0.46272   0.70316
     Eigenvalues ---    0.90718   1.23848   1.33737   1.46096   1.66481
     Eigenvalues ---    1.76584
 Quadratic step=4.896D-01 exceeds max=3.000D-01 adjusted using Lamda=-1.737D-01.
 Angle between NR and scaled steps=  16.98 degrees.
 Angle between quadratic step and forces=  32.15 degrees.
 Linear search not attempted -- first point.
 TrRot= -0.010407 -0.006392  0.000687 -0.317408 -0.000239  0.317805
 MatCor failed.
 Variable       Old X    -DE/DX   Delta X   Delta X   Delta X     New X
                                 (Linear)    (Quad)   (Total)
    X1        1.88213  -0.06769   0.00000   0.00759  -0.00228   1.87985
    Y1       -1.40295   0.04407   0.00000   0.01081   0.00517  -1.39778
    Z1        0.07347   0.00464   0.00000   0.00169   0.00290   0.07637
    X2       -0.74236   0.03709   0.00000  -0.00614  -0.01572  -0.75808
    Y2       -2.06153  -0.07447   0.00000  -0.04615  -0.05284  -2.11437
    Z2        0.02140   0.00257   0.00000  -0.00010   0.00057   0.02197
    X3       -2.09294  -0.12069   0.00000  -0.15229  -0.16270  -2.25564
    Y3        0.04995   0.00853   0.00000  -0.01701  -0.02430   0.02565
    Z3       -0.07120  -0.00263   0.00000   0.00340   0.00357  -0.06763
    X4       -0.71850   0.01865   0.00000  -0.00006  -0.01131  -0.72981
    Y4        2.14765  -0.04230   0.00000  -0.01641  -0.02309   2.12456
    Z4       -0.00919  -0.00353   0.00000  -0.00921  -0.00884  -0.01803
    X5        1.72311   0.10355   0.00000   0.12610   0.11515   1.83826
    Y5        1.33781   0.01425   0.00000   0.03456   0.02890   1.36671
    Z5       -0.03918   0.00350   0.00000   0.00819   0.00919  -0.02999
    X6        3.34489   0.00674   0.00000   0.08984   0.07839   3.42328
    Y6        2.52659   0.00721   0.00000   0.05221   0.04719   2.57379
    Z6        0.08912  -0.00074   0.00000   0.00368   0.00496   0.09407
    X7       -1.51168  -0.04569   0.00000  -0.06168  -0.07365  -1.58533
    Y7        3.80663   0.08664   0.00000   0.11311   0.10609   3.91272
    Z7        0.03112   0.00170   0.00000  -0.00232  -0.00228   0.02884
    X8       -1.55428  -0.00884   0.00000  -0.02815  -0.03698  -1.59126
    Y8       -3.93419   0.00999   0.00000  -0.00718  -0.01421  -3.94839
    Z8       -0.04168  -0.00032   0.00000  -0.00257  -0.00194  -0.04363
    X9        3.33057   0.07688   0.00000   0.11845   0.10908   3.43965
    Y9       -2.54450  -0.05392   0.00000  -0.06790  -0.07292  -2.61743
    Z9       -0.00893  -0.00518   0.00000  -0.00979  -0.00813  -0.01706
         Item               Value     Threshold  Converged?
 Maximum Force            0.120694     0.000450     NO 
 RMS     Force            0.047112     0.000300     NO 
 Maximum Displacement     0.162698     0.001800     NO 
 RMS     Displacement     0.057417     0.001200     NO 
 Predicted change in Energy=-3.899743D-02
 GradGradGradGradGradGradGradGradGradGradGradGradGradGradGradGradGradGrad

 Leave Link  103 at Tue Dec 15 16:20:34 2015, MaxMem=    33554432 cpu:         0.0
 (Enter /home/Applications/g09/g09/l9999.exe)
 1\1\GINC-DUSTIN-DESKTOP\Force\RB3LYP-FC\3-21G\C4H4O1\DUSTIN\15-Dec-201
 5\0\\#P B3LYP/3-21G CIS(Singlets,NStates=15) pop(full) force\\FuranDFT
 \\0,1\C,0.995979,-0.742408,0.038878\C,-0.392842,-1.090915,0.011322\O,-
 1.107536,0.02643,-0.03768\C,-0.380215,1.136487,-0.004864\C,0.911828,0.
 707941,-0.020732\H,1.770041,1.337015,0.047159\H,-0.799948,2.014381,0.0
 16468\H,-0.822489,-2.081883,-0.022058\H,1.76246,-1.346494,-0.004725\\V
 ersion=ES64L-G09RevD.01\State=1-A\HF=-228.7177992\RMSD=4.279e-09\RMSF=
 4.711e-02\Dipole=0.2603715,0.2514073,-0.0076856\PG=C01 [X(C4H4O1)]\\@


 I FIND THAT THE THREE TRULY GREAT TIMES FOR THINKING THOUGHTS
 ARE WHEN I AM STANDING IN THE SHOWER, SITTING ON THE JOHN, OR WALKING.

                                    -- COLIN FLETCHER
 Job cpu time:       0 days  0 hours  0 minutes 49.7 seconds.
 File lengths (MBytes):  RWF=     14 Int=      0 D2E=      0 Chk=      3 Scr=      1
 Normal termination of Gaussian 09 at Tue Dec 15 16:20:34 2015.
