 Entering Gaussian System, Link 0=g09
 Input=FuranAM1Best0.com
 Output=FuranAM1Best0.log
 Initial command:
 /home/Applications/g09/g09/l1.exe "/home/Applications/g09/scratch/Gau-20937.inp" -scrdir="/home/Applications/g09/scratch/"
 Entering Link 1 = /home/Applications/g09/g09/l1.exe PID=     20939.
  
 Copyright (c) 1988,1990,1992,1993,1995,1998,2003,2009,2013,
            Gaussian, Inc.  All Rights Reserved.
  
 This is part of the Gaussian(R) 09 program.  It is based on
 the Gaussian(R) 03 system (copyright 2003, Gaussian, Inc.),
 the Gaussian(R) 98 system (copyright 1998, Gaussian, Inc.),
 the Gaussian(R) 94 system (copyright 1995, Gaussian, Inc.),
 the Gaussian 92(TM) system (copyright 1992, Gaussian, Inc.),
 the Gaussian 90(TM) system (copyright 1990, Gaussian, Inc.),
 the Gaussian 88(TM) system (copyright 1988, Gaussian, Inc.),
 the Gaussian 86(TM) system (copyright 1986, Carnegie Mellon
 University), and the Gaussian 82(TM) system (copyright 1983,
 Carnegie Mellon University). Gaussian is a federally registered
 trademark of Gaussian, Inc.
  
 This software contains proprietary and confidential information,
 including trade secrets, belonging to Gaussian, Inc.
  
 This software is provided under written license and may be
 used, copied, transmitted, or stored only in accord with that
 written license.
  
 The following legend is applicable only to US Government
 contracts under FAR:
  
                    RESTRICTED RIGHTS LEGEND
  
 Use, reproduction and disclosure by the US Government is
 subject to restrictions as set forth in subparagraphs (a)
 and (c) of the Commercial Computer Software - Restricted
 Rights clause in FAR 52.227-19.
  
 Gaussian, Inc.
 340 Quinnipiac St., Bldg. 40, Wallingford CT 06492
  
  
 ---------------------------------------------------------------
 Warning -- This program may not be used in any manner that
 competes with the business of Gaussian, Inc. or will provide
 assistance to any competitor of Gaussian, Inc.  The licensee
 of this program is prohibited from giving any competitor of
 Gaussian, Inc. access to this program.  By using this program,
 the user acknowledges that Gaussian, Inc. is engaged in the
 business of creating and licensing software in the field of
 computational chemistry and represents and warrants to the
 licensee that it is not a competitor of Gaussian, Inc. and that
 it will not use this program in any manner prohibited above.
 ---------------------------------------------------------------
  

 Cite this work as:
 Gaussian 09, Revision D.01,
 M. J. Frisch, G. W. Trucks, H. B. Schlegel, G. E. Scuseria, 
 M. A. Robb, J. R. Cheeseman, G. Scalmani, V. Barone, B. Mennucci, 
 G. A. Petersson, H. Nakatsuji, M. Caricato, X. Li, H. P. Hratchian, 
 A. F. Izmaylov, J. Bloino, G. Zheng, J. L. Sonnenberg, M. Hada, 
 M. Ehara, K. Toyota, R. Fukuda, J. Hasegawa, M. Ishida, T. Nakajima, 
 Y. Honda, O. Kitao, H. Nakai, T. Vreven, J. A. Montgomery, Jr., 
 J. E. Peralta, F. Ogliaro, M. Bearpark, J. J. Heyd, E. Brothers, 
 K. N. Kudin, V. N. Staroverov, T. Keith, R. Kobayashi, J. Normand, 
 K. Raghavachari, A. Rendell, J. C. Burant, S. S. Iyengar, J. Tomasi, 
 M. Cossi, N. Rega, J. M. Millam, M. Klene, J. E. Knox, J. B. Cross, 
 V. Bakken, C. Adamo, J. Jaramillo, R. Gomperts, R. E. Stratmann, 
 O. Yazyev, A. J. Austin, R. Cammi, C. Pomelli, J. W. Ochterski, 
 R. L. Martin, K. Morokuma, V. G. Zakrzewski, G. A. Voth, 
 P. Salvador, J. J. Dannenberg, S. Dapprich, A. D. Daniels, 
 O. Farkas, J. B. Foresman, J. V. Ortiz, J. Cioslowski, 
 and D. J. Fox, Gaussian, Inc., Wallingford CT, 2013.
 
 ******************************************
 Gaussian 09:  ES64L-G09RevD.01 24-Apr-2013
                29-Nov-2015 
 ******************************************
 ----------------------------
 #P AM1(Input,print) Opt Freq
 ----------------------------
 1/14=-1,18=20,19=15,26=1,38=1/1,3;
 2/9=110,12=2,17=6,18=5,40=1/2;
 3/5=2,16=1,25=1,41=700000,71=1,135=100,136=1/1,2,3;
 4/35=1/1;
 5/5=2,35=1,38=5/2;
 6/7=2,8=2,9=2,10=2,28=1/1;
 7//1,2,3,16;
 1/14=-1,18=20,19=15,26=1/3(2);
 2/9=110/2;
 99//99;
 2/9=110/2;
 3/5=2,16=1,25=1,41=700000,71=1,135=20,136=1/1,2,3;
 4/5=5,16=3,35=1/1;
 5/5=2,35=1,38=5/2;
 7//1,2,3,16;
 1/14=-1,18=20,19=15,26=1/3(-5);
 2/9=110/2;
 6/7=2,8=2,9=2,10=2,19=2,28=1/1;
 99/9=1/99;
 Leave Link    1 at Sun Nov 29 12:22:23 2015, MaxMem=           0 cpu:         0.0
 (Enter /home/Applications/g09/g09/l101.exe)
 -----------------
 AM1-Reparam Input
 -----------------
 Symbolic Z-matrix:
 Charge =  0 Multiplicity = 1
 6                     0.93508  -0.69267  -0.0427 
 6                    -0.34791  -1.06544   0.02873 
 8                    -1.11575   0.01381  -0.03829 
 6                    -0.36815   1.06075   0.00945 
 6                     0.93863   0.70035   0.0418 
 1                     1.82983   1.32037   0.01643 
 1                    -0.84646   2.02189   0.03841 
 1                    -0.88356  -2.07965  -0.02077 
 1                     1.85737  -1.40632  -0.04176 
 
 NAtoms=      9 NQM=        9 NQMF=       0 NMMI=      0 NMMIF=      0
                NMic=       0 NMicF=      0.
                    Isotopes and Nuclear Properties:
 (Nuclear quadrupole moments (NQMom) in fm**2, nuclear magnetic moments (NMagM)
  in nuclear magnetons)

  Atom         1           2           3           4           5           6           7           8           9
 IAtWgt=          12          12          16          12          12           1           1           1           1
 AtmWgt=  12.0000000  12.0000000  15.9949146  12.0000000  12.0000000   1.0078250   1.0078250   1.0078250   1.0078250
 NucSpn=           0           0           0           0           0           1           1           1           1
 AtZEff=   0.0000000   0.0000000   0.0000000   0.0000000   0.0000000   0.0000000   0.0000000   0.0000000   0.0000000
 NQMom=    0.0000000   0.0000000   0.0000000   0.0000000   0.0000000   0.0000000   0.0000000   0.0000000   0.0000000
 NMagM=    0.0000000   0.0000000   0.0000000   0.0000000   0.0000000   2.7928460   2.7928460   2.7928460   2.7928460
 AtZNuc=   6.0000000   6.0000000   8.0000000   6.0000000   6.0000000   1.0000000   1.0000000   1.0000000   1.0000000
 Leave Link  101 at Sun Nov 29 12:22:23 2015, MaxMem=    33554432 cpu:         0.0
 (Enter /home/Applications/g09/g09/l103.exe)

 GradGradGradGradGradGradGradGradGradGradGradGradGradGradGradGradGradGrad
 Berny optimization.
 Initialization pass.
                           ----------------------------
                           !    Initial Parameters    !
                           ! (Angstroms and Degrees)  !
 --------------------------                            --------------------------
 ! Name  Definition              Value          Derivative Info.                !
 --------------------------------------------------------------------------------
 ! R1    R(1,2)                  1.338          estimate D2E/DX2                !
 ! R2    R(1,5)                  1.3956         estimate D2E/DX2                !
 ! R3    R(1,9)                  1.1662         estimate D2E/DX2                !
 ! R4    R(2,3)                  1.3262         estimate D2E/DX2                !
 ! R5    R(2,8)                  1.148          estimate D2E/DX2                !
 ! R6    R(3,4)                  1.2873         estimate D2E/DX2                !
 ! R7    R(4,5)                  1.356          estimate D2E/DX2                !
 ! R8    R(4,7)                  1.074          estimate D2E/DX2                !
 ! R9    R(5,6)                  1.086          estimate D2E/DX2                !
 ! A1    A(2,1,5)              106.1            estimate D2E/DX2                !
 ! A2    A(2,1,9)              126.0036         estimate D2E/DX2                !
 ! A3    A(5,1,9)              127.5018         estimate D2E/DX2                !
 ! A4    A(1,2,3)              109.0113         estimate D2E/DX2                !
 ! A5    A(1,2,8)              133.7292         estimate D2E/DX2                !
 ! A6    A(3,2,8)              116.5257         estimate D2E/DX2                !
 ! A7    A(2,3,4)              108.887          estimate D2E/DX2                !
 ! A8    A(3,4,5)              110.1453         estimate D2E/DX2                !
 ! A9    A(3,4,7)              118.0451         estimate D2E/DX2                !
 ! A10   A(5,4,7)              131.7933         estimate D2E/DX2                !
 ! A11   A(1,5,4)              105.1535         estimate D2E/DX2                !
 ! A12   A(1,5,6)              124.7902         estimate D2E/DX2                !
 ! A13   A(4,5,6)              129.6861         estimate D2E/DX2                !
 ! D1    D(5,1,2,3)              8.6305         estimate D2E/DX2                !
 ! D2    D(5,1,2,8)            178.138          estimate D2E/DX2                !
 ! D3    D(9,1,2,3)           -178.1583         estimate D2E/DX2                !
 ! D4    D(9,1,2,8)             -8.6508         estimate D2E/DX2                !
 ! D5    D(2,1,5,4)             -6.5573         estimate D2E/DX2                !
 ! D6    D(2,1,5,6)            179.8542         estimate D2E/DX2                !
 ! D7    D(9,1,5,4)           -179.634          estimate D2E/DX2                !
 ! D8    D(9,1,5,6)              6.7775         estimate D2E/DX2                !
 ! D9    D(1,2,3,4)             -7.4841         estimate D2E/DX2                !
 ! D10   D(8,2,3,4)           -179.0267         estimate D2E/DX2                !
 ! D11   D(2,3,4,5)              3.1151         estimate D2E/DX2                !
 ! D12   D(2,3,4,7)           -175.5885         estimate D2E/DX2                !
 ! D13   D(3,4,5,1)              2.2063         estimate D2E/DX2                !
 ! D14   D(3,4,5,6)            175.3621         estimate D2E/DX2                !
 ! D15   D(7,4,5,1)           -179.3283         estimate D2E/DX2                !
 ! D16   D(7,4,5,6)             -6.1725         estimate D2E/DX2                !
 --------------------------------------------------------------------------------
 Trust Radius=3.00D-01 FncErr=1.00D-07 GrdErr=1.00D-07
 Number of steps in this run=     48 maximum allowed number of steps=    100.
 GradGradGradGradGradGradGradGradGradGradGradGradGradGradGradGradGradGrad

 Leave Link  103 at Sun Nov 29 12:22:23 2015, MaxMem=    33554432 cpu:         0.0
 (Enter /home/Applications/g09/g09/l202.exe)
                          Input orientation:                          
 ---------------------------------------------------------------------
 Center     Atomic      Atomic             Coordinates (Angstroms)
 Number     Number       Type             X           Y           Z
 ---------------------------------------------------------------------
      1          6           0        0.935080   -0.692665   -0.042701
      2          6           0       -0.347905   -1.065443    0.028730
      3          8           0       -1.115753    0.013814   -0.038288
      4          6           0       -0.368147    1.060748    0.009447
      5          6           0        0.938632    0.700346    0.041798
      6          1           0        1.829831    1.320374    0.016430
      7          1           0       -0.846464    2.021889    0.038406
      8          1           0       -0.883558   -2.079649   -0.020766
      9          1           0        1.857366   -1.406320   -0.041755
 ---------------------------------------------------------------------
                    Distance matrix (angstroms):
                    1          2          3          4          5
     1  C    0.000000
     2  C    1.337952   0.000000
     3  O    2.169112   1.326227   0.000000
     4  C    2.185309   2.126375   1.287348   0.000000
     5  C    1.395576   2.184802   2.167542   1.355953   0.000000
     6  H    2.203725   3.230295   3.222818   2.213269   1.085962
     7  H    3.247966   3.127343   2.027502   1.073973   2.221048
     8  H    2.287280   1.148036   2.106373   3.182555   3.324555
     9  H    1.166154   2.232574   3.294879   3.322944   2.299803
                    6          7          8          9
     6  H    0.000000
     7  H    2.766796   0.000000
     8  H    4.350175   4.102133   0.000000
     9  H    2.727454   4.366891   2.822495   0.000000
 Stoichiometry    C4H4O
 Framework group  C1[X(C4H4O)]
 Deg. of freedom    21
 Full point group                 C1      NOp   1
 Largest Abelian subgroup         C1      NOp   1
 Largest concise Abelian subgroup C1      NOp   1
                         Standard orientation:                         
 ---------------------------------------------------------------------
 Center     Atomic      Atomic             Coordinates (Angstroms)
 Number     Number       Type             X           Y           Z
 ---------------------------------------------------------------------
      1          6           0        0.863917    0.780168   -0.036904
      2          6           0        0.974947   -0.550464    0.047995
      3          8           0       -0.233867   -1.090621   -0.028662
      4          6           0       -1.112934   -0.150574   -0.000068
      5          6           0       -0.501841    1.059529    0.028618
      6          1           0       -0.933198    2.055358   -0.011018
      7          1           0       -2.149915   -0.429368    0.018950
      8          1           0        1.863836   -1.276294    0.015807
      9          1           0        1.745676    1.543316   -0.032295
 ---------------------------------------------------------------------
 Rotational constants (GHZ):      9.9188646      9.6160731      4.8890308
 Leave Link  202 at Sun Nov 29 12:22:23 2015, MaxMem=    33554432 cpu:         0.0
 (Enter /home/Applications/g09/g09/l301.exe)

 Semi-emprical parameters in input format:
 Method=8 CoreType=1 PeptideFC=0.0105570000 RIJScale=0.4899110000
 ****
 H       
 PQN=1 NValence=1 F0ss=0.4577290000 ZetaOverlap=1.0659780000 U=-0.3880320000
 Beta=-0.2381360000 CoreKO=1.1144350000 KON=0,0,0,1.0186160000 KON=1,0,1,1.0557690000
 KON=0,1,1,1.0725930000 KON=2,1,1,1.1590830000 EISol=-0.4188110042 EHeat=0.0830298228
 Alpha=1.5252600000
 GCore=0.0099350000,1.3986240000,2.1461900000
 GCore=0.0003630000,1.5415670000,2.7171030000
 GCore=-0.0012530000,0.5088300000,4.2039300000
 ****
 C       
 PQN=2,2 NValence=4 F0ss=0.4263360000 F0sp=0.4580860000 F0pp=0.3261620000 F2pp=0.2036090000
 G1sp=0.2073130000
 ZetaOverlap=2.1016200000,1.8587190000
 U=-1.9018080000,-1.4557970000
 Beta=-0.4792560000,-0.2700630000 DDN=0,1,0.8034860000 DDN=1,1,0.7591540000
 CoreKO=1.1325510000 KON=0,0,0,1.1996250000 KON=1,0,1,0.8437060000 KON=0,1,1,1.0478550000
 KON=2,1,1,0.8168110000 EISol=-4.4398989268 EHeat=0.2723305520 Alpha=1.4381970000
 DipHyp=1.6068795495
 GCore=0.0008260000,1.4798740000,2.8384620000
 GCore=0.0031480000,1.6675340000,3.8116200000
 GCore=-0.0011560000,1.5029710000,3.9059920000
 GCore=-0.0000920000,1.1754400000,4.8520980000
 ****
 O       
 PQN=2,2 NValence=6 F0ss=0.5413910000 F0sp=0.5145480000 F0pp=0.5091470000 F2pp=0.2175940000
 G1sp=0.4302620000
 ZetaOverlap=3.3296350000,2.5240390000
 U=-3.3343200000,-2.9854240000
 Beta=-0.9082740000,-1.1340310000 DDN=0,1,0.4988900000 DDN=1,1,0.5206270000
 CoreKO=0.9688900000 KON=0,0,0,0.8976510000 KON=1,0,1,0.5186760000 KON=0,1,1,0.8274210000
 KON=2,1,1,0.5315430000 EISol=-11.6164441184 EHeat=0.0949133088 Alpha=2.3722000000
 DipHyp=0.9977225968
 GCore=0.0212480000,1.1747580000,1.6499540000
 GCore=0.0064050000,2.1096700000,2.7148630000
 ****
 
 Standard basis: VSTO-6G (5D, 7F)
 Ernie: Thresh=  0.10000D-02 Tol=  0.10000D-05 Strict=F.
  NNHCO=     0 NNPyr=     0 NCTC=     0               EPep=         0.000000000
    EC=        68.799673776  ECS=         1.731337271   EG=         0.482463522
   EHC=         0.000000000  EAt=       -31.051283842  AtH=         1.516354808
 EPDDG=         0.000000000  ECC=        71.013474569 EAtT=        32.567638650
 There are    24 symmetry adapted cartesian basis functions of A   symmetry.
 There are    24 symmetry adapted basis functions of A   symmetry.
    24 basis functions,   144 primitive gaussians,    24 cartesian basis functions
    13 alpha electrons       13 beta electrons
       nuclear repulsion energy       103.5811132195 Hartrees.
 IExCor=    0 DFT=F Ex=HF Corr=None ExCW=0 ScaHFX=  1.000000
 ScaDFX=  1.000000  1.000000  1.000000  1.000000 ScalE2=  1.000000  1.000000
 IRadAn=      0 IRanWt=     -1 IRanGd=            0 ICorTp=0 IEmpDi=  4
 Integral buffers will be    131072 words long.
 Regular integral format.
 Two-electron integral symmetry is turned off.
 Leave Link  301 at Sun Nov 29 12:22:23 2015, MaxMem=    33554432 cpu:         0.0
 (Enter /home/Applications/g09/g09/l302.exe)
 Do NDO integrals.
 NPDir=0 NMtPBC=     1 NCelOv=     1 NCel=       1 NClECP=     1 NCelD=      1
         NCelK=      1 NCelE2=     1 NClLst=     1 CellRange=     0.0.
 One-electron integrals computed using PRISM.
 NBasis=    24 RedAO= F EigKep=  0.00D+00  NBF=    24
 NBsUse=    24 1.00D-04 EigRej=  0.00D+00 NBFU=    24
 Leave Link  302 at Sun Nov 29 12:22:23 2015, MaxMem=    33554432 cpu:         0.0
 (Enter /home/Applications/g09/g09/l303.exe)
 DipDrv:  MaxL=1.
 Leave Link  303 at Sun Nov 29 12:22:23 2015, MaxMem=    33554432 cpu:         0.0
 (Enter /home/Applications/g09/g09/l401.exe)
 Simple Huckel Guess.
 JPrj=0 DoOrth=F DoCkMO=F.
 Leave Link  401 at Sun Nov 29 12:22:23 2015, MaxMem=    33554432 cpu:         0.0
 (Enter /home/Applications/g09/g09/l502.exe)
 Closed shell SCF:
 Using DIIS extrapolation, IDIIS=  1040.
 Overlap will be assumed to be unity.
 Two-electron integral symmetry not used.
 Keep J ints in memory in canonical form, NReq=888082.
 IVT=       79475 IEndB=       79475 NGot=    33554432 MDV=    33473473
 LenX=    33473473 LenY=    33472456
 Requested convergence on RMS density matrix=1.00D-08 within 128 cycles.
 Requested convergence on MAX density matrix=1.00D-06.
 Requested convergence on             energy=1.00D-06.
 No special actions if energy rises.
 FoFCou: FMM=F IPFlag=           0 FMFlag=           0 FMFlg1=           0
         NFxFlg=           0 DoJE=F BraDBF=F KetDBF=F FulRan=T
         wScrn=  0.000000 ICntrl=     600 IOpCl=  2 I1Cent=           0 NGrid=           0
         NMat0=    1 NMatS0=     54 NMatT0=    0 NMatD0=    1 NMtDS0=    0 NMtDT0=    0
 Symmetry not used in FoFCou.

 Cycle   1  Pass 1  IDiag  1:
 E=  1.02670797418520    
 DIIS: error= 5.47D-02 at cycle   1 NSaved=   1.
 NSaved= 1 IEnMin= 1 EnMin=  1.02670797418520     IErMin= 1 ErrMin= 5.47D-02
 ErrMax= 5.47D-02  0.00D+00 EMaxC= 1.00D-01 BMatC= 7.81D-02 BMatP= 7.81D-02
 IDIUse=3 WtCom= 4.53D-01 WtEn= 5.47D-01
 Coeff-Com:  0.100D+01
 Coeff-En:   0.100D+01
 Coeff:      0.100D+01
 GapD=    2.000 DampG=2.000 DampE=0.500 DampFc=1.0000 IDamp=-1.
 RMSDP=1.90D-02 MaxDP=1.75D-01              OVMax= 0.00D+00

 Cycle   2  Pass 1  IDiag  1:
 E= 0.788395121096770     Delta-E=       -0.238312853088 Rises=F Damp=F
 DIIS: error= 1.91D-02 at cycle   2 NSaved=   2.
 NSaved= 2 IEnMin= 2 EnMin= 0.788395121096770     IErMin= 2 ErrMin= 1.91D-02
 ErrMax= 1.91D-02  0.00D+00 EMaxC= 1.00D-01 BMatC= 9.46D-03 BMatP= 7.81D-02
 IDIUse=3 WtCom= 8.09D-01 WtEn= 1.91D-01
 Coeff-Com: -0.442D+00 0.144D+01
 Coeff-En:   0.000D+00 0.100D+01
 Coeff:     -0.358D+00 0.136D+01
 RMSDP=9.44D-03 MaxDP=5.66D-02 DE=-2.38D-01 OVMax= 0.00D+00

 Cycle   3  Pass 1  IDiag  3:
 E= 0.752064791153117     Delta-E=       -0.036330329944 Rises=F Damp=F
 DIIS: error= 3.12D-03 at cycle   3 NSaved=   3.
 NSaved= 3 IEnMin= 3 EnMin= 0.752064791153117     IErMin= 3 ErrMin= 3.12D-03
 ErrMax= 3.12D-03  0.00D+00 EMaxC= 1.00D-01 BMatC= 5.48D-04 BMatP= 9.46D-03
 IDIUse=3 WtCom= 9.69D-01 WtEn= 3.12D-02
 Coeff-Com:  0.204D+00-0.805D+00 0.160D+01
 Coeff-En:   0.000D+00 0.000D+00 0.100D+01
 Coeff:      0.198D+00-0.780D+00 0.158D+01
 Gap=     0.370 Goal=   None    Shift=    0.000
 RMSDP=3.11D-03 MaxDP=1.97D-02 DE=-3.63D-02 OVMax= 1.36D-02

 Cycle   4  Pass 1  IDiag  3:
 E= 0.749118034234783     Delta-E=       -0.002946756918 Rises=F Damp=F
 DIIS: error= 1.04D-03 at cycle   4 NSaved=   4.
 NSaved= 4 IEnMin= 4 EnMin= 0.749118034234783     IErMin= 4 ErrMin= 1.04D-03
 ErrMax= 1.04D-03  0.00D+00 EMaxC= 1.00D-01 BMatC= 3.98D-05 BMatP= 5.48D-04
 IDIUse=3 WtCom= 9.90D-01 WtEn= 1.04D-02
 Coeff-Com: -0.434D-02 0.191D-01-0.230D+00 0.122D+01
 Coeff-En:   0.000D+00 0.000D+00 0.000D+00 0.100D+01
 Coeff:     -0.429D-02 0.189D-01-0.227D+00 0.121D+01
 Gap=     0.371 Goal=   None    Shift=    0.000
 RMSDP=9.17D-04 MaxDP=6.48D-03 DE=-2.95D-03 OVMax= 9.30D-03

 Cycle   5  Pass 1  IDiag  3:
 E= 0.748846958969452     Delta-E=       -0.000271075265 Rises=F Damp=F
 DIIS: error= 5.11D-04 at cycle   5 NSaved=   5.
 NSaved= 5 IEnMin= 5 EnMin= 0.748846958969452     IErMin= 5 ErrMin= 5.11D-04
 ErrMax= 5.11D-04  0.00D+00 EMaxC= 1.00D-01 BMatC= 1.21D-05 BMatP= 3.98D-05
 IDIUse=3 WtCom= 9.95D-01 WtEn= 5.11D-03
 Coeff-Com: -0.259D-01 0.103D+00-0.589D-01-0.979D+00 0.196D+01
 Coeff-En:   0.000D+00 0.000D+00 0.000D+00 0.000D+00 0.100D+01
 Coeff:     -0.257D-01 0.102D+00-0.586D-01-0.974D+00 0.196D+01
 Gap=     0.371 Goal=   None    Shift=    0.000
 RMSDP=7.97D-04 MaxDP=6.31D-03 DE=-2.71D-04 OVMax= 9.35D-03

 Cycle   6  Pass 1  IDiag  3:
 E= 0.748723762316217     Delta-E=       -0.000123196653 Rises=F Damp=F
 DIIS: error= 2.61D-04 at cycle   6 NSaved=   6.
 NSaved= 6 IEnMin= 6 EnMin= 0.748723762316217     IErMin= 6 ErrMin= 2.61D-04
 ErrMax= 2.61D-04  0.00D+00 EMaxC= 1.00D-01 BMatC= 2.67D-06 BMatP= 1.21D-05
 IDIUse=3 WtCom= 9.97D-01 WtEn= 2.61D-03
 Coeff-Com:  0.160D-01-0.644D-01 0.144D-01 0.855D+00-0.199D+01 0.217D+01
 Coeff-En:   0.000D+00 0.000D+00 0.000D+00 0.000D+00 0.000D+00 0.100D+01
 Coeff:      0.160D-01-0.642D-01 0.143D-01 0.853D+00-0.199D+01 0.217D+01
 Gap=     0.372 Goal=   None    Shift=    0.000
 RMSDP=4.82D-04 MaxDP=4.24D-03 DE=-1.23D-04 OVMax= 5.62D-03

 Cycle   7  Pass 1  IDiag  3:
 E= 0.748691734436903     Delta-E=       -0.000032027879 Rises=F Damp=F
 DIIS: error= 1.40D-04 at cycle   7 NSaved=   7.
 NSaved= 7 IEnMin= 7 EnMin= 0.748691734436903     IErMin= 7 ErrMin= 1.40D-04
 ErrMax= 1.40D-04  0.00D+00 EMaxC= 1.00D-01 BMatC= 3.94D-07 BMatP= 2.67D-06
 IDIUse=3 WtCom= 9.99D-01 WtEn= 1.40D-03
 Coeff-Com: -0.389D-02 0.143D-01 0.642D-02-0.295D+00 0.774D+00-0.133D+01
 Coeff-Com:  0.183D+01
 Coeff-En:   0.000D+00 0.000D+00 0.000D+00 0.000D+00 0.000D+00 0.000D+00
 Coeff-En:   0.100D+01
 Coeff:     -0.389D-02 0.143D-01 0.641D-02-0.295D+00 0.773D+00-0.132D+01
 Coeff:      0.183D+01
 Gap=     0.372 Goal=   None    Shift=    0.000
 RMSDP=2.08D-04 MaxDP=2.19D-03 DE=-3.20D-05 OVMax= 2.28D-03

 Cycle   8  Pass 1  IDiag  3:
 E= 0.748686774434049     Delta-E=       -0.000004960003 Rises=F Damp=F
 DIIS: error= 5.44D-05 at cycle   8 NSaved=   8.
 NSaved= 8 IEnMin= 8 EnMin= 0.748686774434049     IErMin= 8 ErrMin= 5.44D-05
 ErrMax= 5.44D-05  0.00D+00 EMaxC= 1.00D-01 BMatC= 8.38D-08 BMatP= 3.94D-07
 IDIUse=1 WtCom= 1.00D+00 WtEn= 0.00D+00
 Coeff-Com:  0.522D-03-0.132D-02-0.104D-01 0.122D+00-0.308D+00 0.592D+00
 Coeff-Com: -0.106D+01 0.166D+01
 Coeff:      0.522D-03-0.132D-02-0.104D-01 0.122D+00-0.308D+00 0.592D+00
 Coeff:     -0.106D+01 0.166D+01
 Gap=     0.372 Goal=   None    Shift=    0.000
 RMSDP=6.36D-05 MaxDP=6.59D-04 DE=-4.96D-06 OVMax= 6.10D-04

 Cycle   9  Pass 1  IDiag  3:
 E= 0.748685775619407     Delta-E=       -0.000000998815 Rises=F Damp=F
 DIIS: error= 4.51D-05 at cycle   9 NSaved=   9.
 NSaved= 9 IEnMin= 9 EnMin= 0.748685775619407     IErMin= 9 ErrMin= 4.51D-05
 ErrMax= 4.51D-05  0.00D+00 EMaxC= 1.00D-01 BMatC= 5.24D-08 BMatP= 8.38D-08
 IDIUse=1 WtCom= 1.00D+00 WtEn= 0.00D+00
 Coeff-Com: -0.692D-03 0.541D-03 0.387D-01-0.373D+00 0.903D+00-0.169D+01
 Coeff-Com:  0.309D+01-0.600D+01 0.504D+01
 Coeff:     -0.692D-03 0.541D-03 0.387D-01-0.373D+00 0.903D+00-0.169D+01
 Coeff:      0.309D+01-0.600D+01 0.504D+01
 Gap=     0.372 Goal=   None    Shift=    0.000
 RMSDP=1.54D-04 MaxDP=1.46D-03 DE=-9.99D-07 OVMax= 1.54D-03

 Cycle  10  Pass 1  IDiag  3:
 E= 0.748684162256893     Delta-E=       -0.000001613363 Rises=F Damp=F
 DIIS: error= 2.30D-05 at cycle  10 NSaved=  10.
 NSaved=10 IEnMin=10 EnMin= 0.748684162256893     IErMin=10 ErrMin= 2.30D-05
 ErrMax= 2.30D-05  0.00D+00 EMaxC= 1.00D-01 BMatC= 1.17D-08 BMatP= 5.24D-08
 IDIUse=1 WtCom= 1.00D+00 WtEn= 0.00D+00
 Coeff-Com: -0.386D-03 0.293D-02-0.278D-01 0.216D+00-0.516D+00 0.100D+01
 Coeff-Com: -0.190D+01 0.396D+01-0.405D+01 0.232D+01
 Coeff:     -0.386D-03 0.293D-02-0.278D-01 0.216D+00-0.516D+00 0.100D+01
 Coeff:     -0.190D+01 0.396D+01-0.405D+01 0.232D+01
 Gap=     0.372 Goal=   None    Shift=    0.000
 RMSDP=1.04D-04 MaxDP=1.03D-03 DE=-1.61D-06 OVMax= 1.02D-03

 Cycle  11  Pass 1  IDiag  3:
 E= 0.748683786525092     Delta-E=       -0.000000375732 Rises=F Damp=F
 DIIS: error= 3.79D-06 at cycle  11 NSaved=  11.
 NSaved=11 IEnMin=11 EnMin= 0.748683786525092     IErMin=11 ErrMin= 3.79D-06
 ErrMax= 3.79D-06  0.00D+00 EMaxC= 1.00D-01 BMatC= 6.69D-10 BMatP= 1.17D-08
 IDIUse=1 WtCom= 1.00D+00 WtEn= 0.00D+00
 Coeff-Com:  0.833D-04-0.891D-03 0.112D-01-0.922D-01 0.222D+00-0.424D+00
 Coeff-Com:  0.795D+00-0.164D+01 0.167D+01-0.107D+01 0.152D+01
 Coeff:      0.833D-04-0.891D-03 0.112D-01-0.922D-01 0.222D+00-0.424D+00
 Coeff:      0.795D+00-0.164D+01 0.167D+01-0.107D+01 0.152D+01
 Gap=     0.372 Goal=   None    Shift=    0.000
 RMSDP=1.19D-05 MaxDP=1.20D-04 DE=-3.76D-07 OVMax= 1.13D-04

 Cycle  12  Pass 1  IDiag  3:
 E= 0.748683779577178     Delta-E=       -0.000000006948 Rises=F Damp=F
 DIIS: error= 8.99D-07 at cycle  12 NSaved=  12.
 NSaved=12 IEnMin=12 EnMin= 0.748683779577178     IErMin=12 ErrMin= 8.99D-07
 ErrMax= 8.99D-07  0.00D+00 EMaxC= 1.00D-01 BMatC= 5.97D-11 BMatP= 6.69D-10
 IDIUse=1 WtCom= 1.00D+00 WtEn= 0.00D+00
 Coeff-Com: -0.373D-04 0.389D-03-0.480D-02 0.396D-01-0.956D-01 0.184D+00
 Coeff-Com: -0.345D+00 0.713D+00-0.729D+00 0.466D+00-0.788D+00 0.156D+01
 Coeff:     -0.373D-04 0.389D-03-0.480D-02 0.396D-01-0.956D-01 0.184D+00
 Coeff:     -0.345D+00 0.713D+00-0.729D+00 0.466D+00-0.788D+00 0.156D+01
 Gap=     0.372 Goal=   None    Shift=    0.000
 RMSDP=1.67D-06 MaxDP=1.49D-05 DE=-6.95D-09 OVMax= 1.39D-05

 Cycle  13  Pass 1  IDiag  3:
 E= 0.748683779226056     Delta-E=       -0.000000000351 Rises=F Damp=F
 DIIS: error= 2.08D-07 at cycle  13 NSaved=  13.
 NSaved=13 IEnMin=13 EnMin= 0.748683779226056     IErMin=13 ErrMin= 2.08D-07
 ErrMax= 2.08D-07  0.00D+00 EMaxC= 1.00D-01 BMatC= 2.20D-12 BMatP= 5.97D-11
 IDIUse=1 WtCom= 1.00D+00 WtEn= 0.00D+00
 Coeff-Com:  0.155D-04-0.164D-03 0.202D-02-0.167D-01 0.404D-01-0.776D-01
 Coeff-Com:  0.146D+00-0.302D+00 0.310D+00-0.200D+00 0.341D+00-0.768D+00
 Coeff-Com:  0.153D+01
 Coeff:      0.155D-04-0.164D-03 0.202D-02-0.167D-01 0.404D-01-0.776D-01
 Coeff:      0.146D+00-0.302D+00 0.310D+00-0.200D+00 0.341D+00-0.768D+00
 Coeff:      0.153D+01
 Gap=     0.372 Goal=   None    Shift=    0.000
 RMSDP=2.52D-07 MaxDP=1.29D-06 DE=-3.51D-10 OVMax= 1.37D-06

 Cycle  14  Pass 1  IDiag  3:
 E= 0.748683779211987     Delta-E=       -0.000000000014 Rises=F Damp=F
 DIIS: error= 5.58D-08 at cycle  14 NSaved=  14.
 NSaved=14 IEnMin=14 EnMin= 0.748683779211987     IErMin=14 ErrMin= 5.58D-08
 ErrMax= 5.58D-08  0.00D+00 EMaxC= 1.00D-01 BMatC= 1.32D-13 BMatP= 2.20D-12
 IDIUse=1 WtCom= 1.00D+00 WtEn= 0.00D+00
 Coeff-Com: -0.432D-05 0.482D-04-0.601D-03 0.501D-02-0.122D-01 0.234D-01
 Coeff-Com: -0.438D-01 0.915D-01-0.944D-01 0.618D-01-0.107D+00 0.247D+00
 Coeff-Com: -0.626D+00 0.146D+01
 Coeff:     -0.432D-05 0.482D-04-0.601D-03 0.501D-02-0.122D-01 0.234D-01
 Coeff:     -0.438D-01 0.915D-01-0.944D-01 0.618D-01-0.107D+00 0.247D+00
 Coeff:     -0.626D+00 0.146D+01
 Gap=     0.372 Goal=   None    Shift=    0.000
 RMSDP=9.25D-08 MaxDP=8.91D-07 DE=-1.41D-11 OVMax= 1.01D-06

 Cycle  15  Pass 1  IDiag  3:
 E= 0.748683779210893     Delta-E=       -0.000000000001 Rises=F Damp=F
 DIIS: error= 1.89D-08 at cycle  15 NSaved=  15.
 NSaved=15 IEnMin=15 EnMin= 0.748683779210893     IErMin=15 ErrMin= 1.89D-08
 ErrMax= 1.89D-08  0.00D+00 EMaxC= 1.00D-01 BMatC= 1.18D-14 BMatP= 1.32D-13
 IDIUse=1 WtCom= 1.00D+00 WtEn= 0.00D+00
 Coeff-Com:  0.390D-06-0.421D-05 0.473D-04-0.405D-03 0.100D-02-0.191D-02
 Coeff-Com:  0.358D-02-0.787D-02 0.844D-02-0.618D-02 0.119D-01-0.312D-01
 Coeff-Com:  0.123D+00-0.602D+00 0.150D+01
 Coeff:      0.390D-06-0.421D-05 0.473D-04-0.405D-03 0.100D-02-0.191D-02
 Coeff:      0.358D-02-0.787D-02 0.844D-02-0.618D-02 0.119D-01-0.312D-01
 Coeff:      0.123D+00-0.602D+00 0.150D+01
 Gap=     0.372 Goal=   None    Shift=    0.000
 RMSDP=2.33D-08 MaxDP=1.53D-07 DE=-1.09D-12 OVMax= 1.87D-07

 Cycle  16  Pass 1  IDiag  3:
 E= 0.748683779210879     Delta-E=        0.000000000000 Rises=F Damp=F
 DIIS: error= 5.04D-09 at cycle  16 NSaved=  16.
 NSaved=16 IEnMin=16 EnMin= 0.748683779210879     IErMin=16 ErrMin= 5.04D-09
 ErrMax= 5.04D-09  0.00D+00 EMaxC= 1.00D-01 BMatC= 8.54D-16 BMatP= 1.18D-14
 IDIUse=1 WtCom= 1.00D+00 WtEn= 0.00D+00
 Large coefficients: NSaved= 16 BigCof=    0.00 CofMax=   10.00 Det=-6.06D-16
 Inversion failed.  Reducing to 15 matrices.
 Coeff-Com:  0.114D-07 0.275D-05-0.156D-04 0.268D-04-0.552D-04 0.105D-03
 Coeff-Com:  0.175D-04-0.207D-03 0.545D-03-0.169D-02 0.569D-02-0.378D-01
 Coeff-Com:  0.274D+00-0.909D+00 0.167D+01
 Coeff:      0.114D-07 0.275D-05-0.156D-04 0.268D-04-0.552D-04 0.105D-03
 Coeff:      0.175D-04-0.207D-03 0.545D-03-0.169D-02 0.569D-02-0.378D-01
 Coeff:      0.274D+00-0.909D+00 0.167D+01
 Gap=     0.372 Goal=   None    Shift=    0.000
 RMSDP=6.38D-09 MaxDP=4.77D-08 DE=-1.42D-14 OVMax= 5.72D-08

 Cycle  17  Pass 2  IDiag  1:
 SCF Done:  E(RAM1) =  0.748683779211     A.U. after   17 cycles
            NFock= 16  Conv=0.64D-08     -V/T= 1.0496
 KE=-1.510200742220D+01 PE=-1.732889652375D+02 EE= 8.555854321941D+01
 Leave Link  502 at Sun Nov 29 12:22:23 2015, MaxMem=    33554432 cpu:         0.0
 (Enter /home/Applications/g09/g09/l601.exe)
 Copying SCF densities to generalized density rwf, IOpCl= 0 IROHF=0.

 **********************************************************************

            Population analysis using the SCF density.

 **********************************************************************

 Orbital symmetries:
       Occupied  (A) (A) (A) (A) (A) (A) (A) (A) (A) (A) (A) (A)
                 (A)
       Virtual   (A) (A) (A) (A) (A) (A) (A) (A) (A) (A) (A)
 The electronic state is 1-A.
 Alpha  occ. eigenvalues --   -1.25106  -0.94673  -0.93033  -0.74538  -0.68971
 Alpha  occ. eigenvalues --   -0.66619  -0.64094  -0.52332  -0.51163  -0.49379
 Alpha  occ. eigenvalues --   -0.48068  -0.40816  -0.34902
 Alpha virt. eigenvalues --    0.02274   0.02852   0.12577   0.14392   0.15731
 Alpha virt. eigenvalues --    0.16787   0.19841   0.20706   0.22136   0.24585
 Alpha virt. eigenvalues --    0.24839
          Condensed to atoms (all electrons):
               1          2          3          4          5          6
     1  C    4.508183   0.000000   0.000000   0.000000   0.000000   0.000000
     2  C    0.000000   3.898384   0.000000   0.000000   0.000000   0.000000
     3  O    0.000000   0.000000   6.353316   0.000000   0.000000   0.000000
     4  C    0.000000   0.000000   0.000000   3.789676   0.000000   0.000000
     5  C    0.000000   0.000000   0.000000   0.000000   4.635226   0.000000
     6  H    0.000000   0.000000   0.000000   0.000000   0.000000   0.689530
     7  H    0.000000   0.000000   0.000000   0.000000   0.000000   0.000000
     8  H    0.000000   0.000000   0.000000   0.000000   0.000000   0.000000
     9  H    0.000000   0.000000   0.000000   0.000000   0.000000   0.000000
               7          8          9
     1  C    0.000000   0.000000   0.000000
     2  C    0.000000   0.000000   0.000000
     3  O    0.000000   0.000000   0.000000
     4  C    0.000000   0.000000   0.000000
     5  C    0.000000   0.000000   0.000000
     6  H    0.000000   0.000000   0.000000
     7  H    0.730635   0.000000   0.000000
     8  H    0.000000   0.710815   0.000000
     9  H    0.000000   0.000000   0.684235
 Mulliken charges:
               1
     1  C   -0.508183
     2  C    0.101616
     3  O   -0.353316
     4  C    0.210324
     5  C   -0.635226
     6  H    0.310470
     7  H    0.269365
     8  H    0.289185
     9  H    0.315765
 Sum of Mulliken charges =   0.00000
 Mulliken charges with hydrogens summed into heavy atoms:
               1
     1  C   -0.192419
     2  C    0.390801
     3  O   -0.353316
     4  C    0.479689
     5  C   -0.324755
 Charge=              0.0000 electrons
 Dipole moment (field-independent basis, Debye):
    X=              0.1405    Y=             -0.7167    Z=              0.0065  Tot=              0.7304
 N-N= 1.035811132195D+02 E-N=-1.732889652401D+02  KE=-1.510200742220D+01
 Leave Link  601 at Sun Nov 29 12:22:23 2015, MaxMem=    33554432 cpu:         0.0
 (Enter /home/Applications/g09/g09/l701.exe)
 Compute integral first derivatives.
 ... and contract with generalized density number  0.
 Leave Link  701 at Sun Nov 29 12:22:23 2015, MaxMem=    33554432 cpu:         0.0
 (Enter /home/Applications/g09/g09/l702.exe)
 L702 exits ... SP integral derivatives will be done elsewhere.
 Leave Link  702 at Sun Nov 29 12:22:23 2015, MaxMem=    33554432 cpu:         0.0
 (Enter /home/Applications/g09/g09/l703.exe)
 Compute integral first derivatives, UseDBF=F ICtDFT=           0.
 Integral derivatives from FoFJK, PRISM(SPDF).
 Calling FoFJK, ICntrl=      2127 FMM=F ISym2X=0 I1Cent= 0 IOpClX= 0 NMat=1 NMatS=1 NMatT=0.
 FoFJK:  IHMeth= 8 ICntrl=    2127 DoSepK=F KAlg= 0 I1Cent=   0 FoldK=F
 IRaf=         0 NMat=   1 IRICut=       1 DoRegI=T DoRafI=F ISym2E= 0.
 FoFCou: FMM=F IPFlag=           0 FMFlag=      100000 FMFlg1=         800
         NFxFlg=           0 DoJE=F BraDBF=F KetDBF=F FulRan=T
         wScrn=  0.000000 ICntrl=    2127 IOpCl=  0 I1Cent=           0 NGrid=           0
         NMat0=    1 NMatS0=      1 NMatT0=    0 NMatD0=    1 NMtDS0=    0 NMtDT0=    0
 Symmetry not used in FoFCou.
 Leave Link  703 at Sun Nov 29 12:22:23 2015, MaxMem=    33554432 cpu:         0.0
 (Enter /home/Applications/g09/g09/l716.exe)
 Dipole        = 5.52865215D-02-2.81971785D-01 2.55940736D-03
 ***** Axes restored to original set *****
 -------------------------------------------------------------------
 Center     Atomic                   Forces (Hartrees/Bohr)
 Number     Number              X              Y              Z
 -------------------------------------------------------------------
      1        6           0.065857138   -0.049442523    0.017742403
      2        6          -0.016300902   -0.067979800   -0.019942317
      3        8          -0.085915818   -0.025256434    0.006554996
      4        6           0.029900510    0.053157645    0.004323697
      5        6           0.027324919    0.022416724   -0.012937072
      6        1           0.000425741    0.000179870    0.002737556
      7        1          -0.005782463    0.014992864   -0.000622628
      8        1           0.012927553    0.024724737    0.003597241
      9        1          -0.028436677    0.027206916   -0.001453876
 -------------------------------------------------------------------
 Cartesian Forces:  Max     0.085915818 RMS     0.032322012
 Leave Link  716 at Sun Nov 29 12:22:23 2015, MaxMem=    33554432 cpu:         0.0
 (Enter /home/Applications/g09/g09/l103.exe)

 GradGradGradGradGradGradGradGradGradGradGradGradGradGradGradGradGradGrad
 Berny optimization.
 FormGI is forming the generalized inverse of G from B-inverse, IUseBI=4.
 Internal  Forces:  Max     0.077165776 RMS     0.019741892
 Search for a local minimum.
 Step number   1 out of a maximum of   48
 All quantities printed in internal units (Hartrees-Bohrs-Radians)
 RMS Force = .19742D-01 SwitMx=.10000D-02 MixMth= 1
 Mixed Optimization -- RFO/linear search
 Second derivative matrix not updated -- first step.
 ITU=  0
     Eigenvalues ---    0.02387   0.02572   0.02592   0.02789   0.02870
     Eigenvalues ---    0.02951   0.15744   0.15816   0.15882   0.15996
     Eigenvalues ---    0.21970   0.22858   0.27310   0.28883   0.35283
     Eigenvalues ---    0.36732   0.43628   0.47873   0.55564   0.57965
     Eigenvalues ---    0.67581
 RFO step:  Lambda=-3.14268122D-02 EMin= 2.38698440D-02
 Linear search not attempted -- first point.
 Iteration  1 RMS(Cart)=  0.04679822 RMS(Int)=  0.00227410
 Iteration  2 RMS(Cart)=  0.00172690 RMS(Int)=  0.00116582
 Iteration  3 RMS(Cart)=  0.00000310 RMS(Int)=  0.00116582
 Iteration  4 RMS(Cart)=  0.00000000 RMS(Int)=  0.00116582
 ITry= 1 IFail=0 DXMaxC= 1.08D-01 DCOld= 1.00D+10 DXMaxT= 3.00D-01 DXLimC= 3.00D+00 Rises=F
 Variable       Old X    -DE/DX   Delta X   Delta X   Delta X     New X
                                 (Linear)    (Quad)   (Total)
    R1        2.52836   0.03924   0.00000   0.06205   0.06180   2.59016
    R2        2.63726   0.03159   0.00000   0.05657   0.05618   2.69344
    R3        2.20371  -0.03914   0.00000  -0.12853  -0.12853   2.07518
    R4        2.50621   0.04731   0.00000   0.07850   0.07872   2.58492
    R5        2.16947  -0.02803   0.00000  -0.08752  -0.08752   2.08195
    R6        2.43273   0.07717   0.00000   0.10869   0.10909   2.54183
    R7        2.56238   0.02800   0.00000   0.04847   0.04852   2.61090
    R8        2.02951   0.01598   0.00000   0.04007   0.04007   2.06958
    R9        2.05217   0.00039   0.00000   0.00101   0.00101   2.05318
    A1        1.85179   0.00558   0.00000   0.00540   0.00207   1.85386
    A2        2.19918   0.00203   0.00000   0.02633   0.02597   2.22515
    A3        2.22533  -0.00701   0.00000  -0.02108  -0.02150   2.20383
    A4        1.90261   0.00507   0.00000   0.02675   0.02287   1.92547
    A5        2.33401  -0.00138   0.00000  -0.00106  -0.00287   2.33114
    A6        2.03376  -0.00251   0.00000  -0.00614  -0.00793   2.02583
    A7        1.90044  -0.01650   0.00000  -0.03243  -0.03362   1.86682
    A8        1.92240   0.00108   0.00000   0.01353   0.01257   1.93497
    A9        2.06028   0.00098   0.00000   0.00119   0.00165   2.06192
   A10        2.30023  -0.00204   0.00000  -0.01456  -0.01409   2.28614
   A11        1.83528   0.00621   0.00000   0.01102   0.00822   1.84349
   A12        2.17800  -0.00300   0.00000  -0.00191  -0.00222   2.17578
   A13        2.26345  -0.00264   0.00000   0.00022  -0.00006   2.26339
    D1        0.15063  -0.00807   0.00000  -0.14825  -0.14951   0.00112
    D2        3.10909   0.00018   0.00000  -0.00962  -0.01079   3.09830
    D3       -3.10945  -0.00350   0.00000  -0.05887  -0.05813   3.11561
    D4       -0.15099   0.00475   0.00000   0.07976   0.08059  -0.07040
    D5       -0.11445   0.00709   0.00000   0.12406   0.12342   0.00897
    D6        3.13905   0.00230   0.00000   0.04354   0.04318  -3.10095
    D7       -3.13520   0.00160   0.00000   0.02861   0.02926  -3.10595
    D8        0.11829  -0.00319   0.00000  -0.05191  -0.05098   0.06731
    D9       -0.13062   0.00772   0.00000   0.11984   0.11952  -0.01110
   D10       -3.12460   0.00111   0.00000   0.00823   0.00773  -3.11687
   D11        0.05437  -0.00238   0.00000  -0.03741  -0.03721   0.01716
   D12       -3.06460  -0.00284   0.00000  -0.04339  -0.04294  -3.10754
   D13        0.03851  -0.00351   0.00000  -0.05554  -0.05485  -0.01635
   D14        3.06065   0.00161   0.00000   0.03028   0.03075   3.09140
   D15       -3.12987  -0.00291   0.00000  -0.04809  -0.04780   3.10552
   D16       -0.10773   0.00221   0.00000   0.03773   0.03781  -0.06992
         Item               Value     Threshold  Converged?
 Maximum Force            0.077166     0.000450     NO 
 RMS     Force            0.019742     0.000300     NO 
 Maximum Displacement     0.107648     0.001800     NO 
 RMS     Displacement     0.046501     0.001200     NO 
 Predicted change in Energy=-1.782348D-02
 Lowest energy point so far.  Saving SCF results.
 GradGradGradGradGradGradGradGradGradGradGradGradGradGradGradGradGradGrad

 Leave Link  103 at Sun Nov 29 12:22:23 2015, MaxMem=    33554432 cpu:         0.0
 (Enter /home/Applications/g09/g09/l202.exe)
                          Input orientation:                          
 ---------------------------------------------------------------------
 Center     Atomic      Atomic             Coordinates (Angstroms)
 Number     Number       Type             X           Y           Z
 ---------------------------------------------------------------------
      1          6           0        0.957361   -0.722905   -0.008090
      2          6           0       -0.358978   -1.104900   -0.012515
      3          8           0       -1.172718   -0.005417   -0.004272
      4          6           0       -0.372067    1.075146    0.019673
      5          6           0        0.958232    0.702340    0.005157
      6          1           0        1.851549    1.320046   -0.024817
      7          1           0       -0.840442    2.064182    0.062579
      8          1           0       -0.865852   -2.082109   -0.056484
      9          1           0        1.841997   -1.373290    0.010068
 ---------------------------------------------------------------------
                    Distance matrix (angstroms):
                    1          2          3          4          5
     1  C    0.000000
     2  C    1.370653   0.000000
     3  O    2.247674   1.367883   0.000000
     4  C    2.236322   2.180323   1.345076   0.000000
     5  C    1.425307   2.236397   2.245430   1.381626   0.000000
     6  H    2.230135   3.281303   3.302039   2.237504   1.086497
     7  H    3.317370   3.206326   2.097168   1.095175   2.256798
     8  H    2.274617   1.101722   2.099892   3.196543   3.329300
     9  H    1.098140   2.217394   3.310557   3.301062   2.255949
                    6          7          8          9
     6  H    0.000000
     7  H    2.794314   0.000000
     8  H    4.354301   4.148079   0.000000
     9  H    2.693579   4.360556   2.799874   0.000000
 Stoichiometry    C4H4O
 Framework group  C1[X(C4H4O)]
 Deg. of freedom    21
 Full point group                 C1      NOp   1
 RotChk:  IX=2 Diff= 7.37D-02
 Largest Abelian subgroup         C1      NOp   1
 Largest concise Abelian subgroup C1      NOp   1
                         Standard orientation:                         
 ---------------------------------------------------------------------
 Center     Atomic      Atomic             Coordinates (Angstroms)
 Number     Number       Type             X           Y           Z
 ---------------------------------------------------------------------
      1          6           0        0.845381    0.850447    0.003300
      2          6           0        1.030019   -0.507713    0.003382
      3          8           0       -0.177016   -1.151223   -0.004730
      4          6           0       -1.128565   -0.200589    0.004316
      5          6           0       -0.564337    1.060549   -0.003879
      6          1           0       -1.043718    2.034825   -0.042045
      7          1           0       -2.176155   -0.518642    0.032700
      8          1           0        1.922758   -1.152608   -0.026951
      9          1           0        1.618260    1.630047    0.031426
 ---------------------------------------------------------------------
 Rotational constants (GHZ):      9.5317627      9.1070236      4.6577571
 Leave Link  202 at Sun Nov 29 12:22:23 2015, MaxMem=    33554432 cpu:         0.0
 (Enter /home/Applications/g09/g09/l301.exe)

 Semi-emprical parameters in input format:
 Method=8 CoreType=1 PeptideFC=0.0105570000 RIJScale=0.4899110000
 ****
 H       
 PQN=1 NValence=1 F0ss=0.4577290000 ZetaOverlap=1.0659780000 U=-0.3880320000
 Beta=-0.2381360000 CoreKO=1.1144350000 KON=0,0,0,1.0186160000 KON=1,0,1,1.0557690000
 KON=0,1,1,1.0725930000 KON=2,1,1,1.1590830000 EISol=-0.4188110042 EHeat=0.0830298228
 Alpha=1.5252600000
 GCore=0.0099350000,1.3986240000,2.1461900000
 GCore=0.0003630000,1.5415670000,2.7171030000
 GCore=-0.0012530000,0.5088300000,4.2039300000
 ****
 C       
 PQN=2,2 NValence=4 F0ss=0.4263360000 F0sp=0.4580860000 F0pp=0.3261620000 F2pp=0.2036090000
 G1sp=0.2073130000
 ZetaOverlap=2.1016200000,1.8587190000
 U=-1.9018080000,-1.4557970000
 Beta=-0.4792560000,-0.2700630000 DDN=0,1,0.8034860000 DDN=1,1,0.7591540000
 CoreKO=1.1325510000 KON=0,0,0,1.1996250000 KON=1,0,1,0.8437060000 KON=0,1,1,1.0478550000
 KON=2,1,1,0.8168110000 EISol=-4.4398989268 EHeat=0.2723305520 Alpha=1.4381970000
 DipHyp=1.6068795495
 GCore=0.0008260000,1.4798740000,2.8384620000
 GCore=0.0031480000,1.6675340000,3.8116200000
 GCore=-0.0011560000,1.5029710000,3.9059920000
 GCore=-0.0000920000,1.1754400000,4.8520980000
 ****
 O       
 PQN=2,2 NValence=6 F0ss=0.5413910000 F0sp=0.5145480000 F0pp=0.5091470000 F2pp=0.2175940000
 G1sp=0.4302620000
 ZetaOverlap=3.3296350000,2.5240390000
 U=-3.3343200000,-2.9854240000
 Beta=-0.9082740000,-1.1340310000 DDN=0,1,0.4988900000 DDN=1,1,0.5206270000
 CoreKO=0.9688900000 KON=0,0,0,0.8976510000 KON=1,0,1,0.5186760000 KON=0,1,1,0.8274210000
 KON=2,1,1,0.5315430000 EISol=-11.6164441184 EHeat=0.0949133088 Alpha=2.3722000000
 DipHyp=0.9977225968
 GCore=0.0212480000,1.1747580000,1.6499540000
 GCore=0.0064050000,2.1096700000,2.7148630000
 ****
 
 Standard basis: VSTO-6G (5D, 7F)
 Ernie: Thresh=  0.10000D-02 Tol=  0.10000D-05 Strict=F.
  NNHCO=     0 NNPyr=     0 NCTC=     0               EPep=         0.000000000
    EC=        67.787666442  ECS=         1.614550834   EG=         0.440662850
   EHC=         0.000000000  EAt=       -31.051283842  AtH=         1.516354808
 EPDDG=         0.000000000  ECC=        69.842880126 EAtT=        32.567638650
 There are    24 symmetry adapted cartesian basis functions of A   symmetry.
 There are    24 symmetry adapted basis functions of A   symmetry.
    24 basis functions,   144 primitive gaussians,    24 cartesian basis functions
    13 alpha electrons       13 beta electrons
       nuclear repulsion energy       102.4105187767 Hartrees.
 IExCor=    0 DFT=F Ex=HF Corr=None ExCW=0 ScaHFX=  1.000000
 ScaDFX=  1.000000  1.000000  1.000000  1.000000 ScalE2=  1.000000  1.000000
 IRadAn=      0 IRanWt=     -1 IRanGd=            0 ICorTp=0 IEmpDi=  4
 Integral buffers will be    131072 words long.
 Regular integral format.
 Two-electron integral symmetry is turned off.
 Leave Link  301 at Sun Nov 29 12:22:24 2015, MaxMem=    33554432 cpu:         0.0
 (Enter /home/Applications/g09/g09/l302.exe)
 Do NDO integrals.
 NPDir=0 NMtPBC=     1 NCelOv=     1 NCel=       1 NClECP=     1 NCelD=      1
         NCelK=      1 NCelE2=     1 NClLst=     1 CellRange=     0.0.
 One-electron integrals computed using PRISM.
 NBasis=    24 RedAO= F EigKep=  0.00D+00  NBF=    24
 NBsUse=    24 1.00D-04 EigRej=  0.00D+00 NBFU=    24
 Leave Link  302 at Sun Nov 29 12:22:24 2015, MaxMem=    33554432 cpu:         0.0
 (Enter /home/Applications/g09/g09/l303.exe)
 DipDrv:  MaxL=1.
 Leave Link  303 at Sun Nov 29 12:22:24 2015, MaxMem=    33554432 cpu:         0.0
 (Enter /home/Applications/g09/g09/l401.exe)
 Initial guess from the checkpoint file:  "/home/Applications/g09/scratch/Gau-20939.chk"
 B after Tr=     0.000000    0.000000    0.000000
         Rot=    0.999661    0.000145    0.000000   -0.026041 Ang=   2.98 deg.
 Guess basis will be translated and rotated to current coordinates.
 JPrj=0 DoOrth=T DoCkMO=T.
 Leave Link  401 at Sun Nov 29 12:22:24 2015, MaxMem=    33554432 cpu:         0.0
 (Enter /home/Applications/g09/g09/l502.exe)
 Closed shell SCF:
 Using DIIS extrapolation, IDIIS=  1040.
 Overlap will be assumed to be unity.
 Two-electron integral symmetry not used.
 Keep J ints in memory in canonical form, NReq=888082.
 IVT=       79475 IEndB=       79475 NGot=    33554432 MDV=    33473473
 LenX=    33473473 LenY=    33472456
 Requested convergence on RMS density matrix=1.00D-08 within 128 cycles.
 Requested convergence on MAX density matrix=1.00D-06.
 Requested convergence on             energy=1.00D-06.
 No special actions if energy rises.
 FoFCou: FMM=F IPFlag=           0 FMFlag=           0 FMFlg1=           0
         NFxFlg=           0 DoJE=F BraDBF=F KetDBF=F FulRan=T
         wScrn=  0.000000 ICntrl=     600 IOpCl=  2 I1Cent=           0 NGrid=           0
         NMat0=    1 NMatS0=     54 NMatT0=    0 NMatD0=    1 NMtDS0=    0 NMtDT0=    0
 Symmetry not used in FoFCou.

 Cycle   1  Pass 1  IDiag  1:
 E= 0.740891504703939    
 DIIS: error= 6.58D-03 at cycle   1 NSaved=   1.
 NSaved= 1 IEnMin= 1 EnMin= 0.740891504703939     IErMin= 1 ErrMin= 6.58D-03
 ErrMax= 6.58D-03  0.00D+00 EMaxC= 1.00D-01 BMatC= 2.00D-03 BMatP= 2.00D-03
 IDIUse=3 WtCom= 9.34D-01 WtEn= 6.58D-02
 Coeff-Com:  0.100D+01
 Coeff-En:   0.100D+01
 Coeff:      0.100D+01
 GapD=    2.000 DampG=2.000 DampE=1.000 DampFc=2.0000 IDamp=-1.
 RMSDP=3.35D-03 MaxDP=1.54D-02              OVMax= 0.00D+00

 Cycle   2  Pass 1  IDiag  3:
 E= 0.734064751690880     Delta-E=       -0.006826753013 Rises=F Damp=F
 DIIS: error= 2.56D-03 at cycle   2 NSaved=   2.
 NSaved= 2 IEnMin= 2 EnMin= 0.734064751690880     IErMin= 2 ErrMin= 2.56D-03
 ErrMax= 2.56D-03  0.00D+00 EMaxC= 1.00D-01 BMatC= 3.14D-04 BMatP= 2.00D-03
 IDIUse=3 WtCom= 9.74D-01 WtEn= 2.56D-02
 Coeff-Com: -0.530D+00 0.153D+01
 Coeff-En:   0.000D+00 0.100D+01
 Coeff:     -0.516D+00 0.152D+01
 Gap=     0.359 Goal=   None    Shift=    0.000
 RMSDP=2.32D-03 MaxDP=1.27D-02 DE=-6.83D-03 OVMax= 1.03D-02

 Cycle   3  Pass 1  IDiag  3:
 E= 0.732432389770139     Delta-E=       -0.001632361921 Rises=F Damp=F
 DIIS: error= 6.87D-04 at cycle   3 NSaved=   3.
 NSaved= 3 IEnMin= 3 EnMin= 0.732432389770139     IErMin= 3 ErrMin= 6.87D-04
 ErrMax= 6.87D-04  0.00D+00 EMaxC= 1.00D-01 BMatC= 1.82D-05 BMatP= 3.14D-04
 IDIUse=3 WtCom= 9.93D-01 WtEn= 6.87D-03
 Coeff-Com:  0.188D+00-0.683D+00 0.149D+01
 Coeff-En:   0.000D+00 0.000D+00 0.100D+01
 Coeff:      0.187D+00-0.678D+00 0.149D+01
 Gap=     0.359 Goal=   None    Shift=    0.000
 RMSDP=7.58D-04 MaxDP=4.56D-03 DE=-1.63D-03 OVMax= 3.93D-03

 Cycle   4  Pass 1  IDiag  3:
 E= 0.732298356590235     Delta-E=       -0.000134033180 Rises=F Damp=F
 DIIS: error= 1.92D-04 at cycle   4 NSaved=   4.
 NSaved= 4 IEnMin= 4 EnMin= 0.732298356590235     IErMin= 4 ErrMin= 1.92D-04
 ErrMax= 1.92D-04  0.00D+00 EMaxC= 1.00D-01 BMatC= 1.67D-06 BMatP= 1.82D-05
 IDIUse=3 WtCom= 9.98D-01 WtEn= 1.92D-03
 Coeff-Com: -0.148D-01 0.818D-01-0.458D+00 0.139D+01
 Coeff-En:   0.000D+00 0.000D+00 0.000D+00 0.100D+01
 Coeff:     -0.148D-01 0.816D-01-0.457D+00 0.139D+01
 Gap=     0.359 Goal=   None    Shift=    0.000
 RMSDP=2.66D-04 MaxDP=1.80D-03 DE=-1.34D-04 OVMax= 2.32D-03

 Cycle   5  Pass 1  IDiag  3:
 E= 0.732283141672653     Delta-E=       -0.000015214918 Rises=F Damp=F
 DIIS: error= 1.26D-04 at cycle   5 NSaved=   5.
 NSaved= 5 IEnMin= 5 EnMin= 0.732283141672653     IErMin= 5 ErrMin= 1.26D-04
 ErrMax= 1.26D-04  0.00D+00 EMaxC= 1.00D-01 BMatC= 4.06D-07 BMatP= 1.67D-06
 IDIUse=3 WtCom= 9.99D-01 WtEn= 1.26D-03
 Coeff-Com: -0.176D-01 0.354D-01 0.171D+00-0.109D+01 0.190D+01
 Coeff-En:   0.000D+00 0.000D+00 0.000D+00 0.000D+00 0.100D+01
 Coeff:     -0.175D-01 0.353D-01 0.171D+00-0.109D+01 0.190D+01
 Gap=     0.359 Goal=   None    Shift=    0.000
 RMSDP=1.63D-04 MaxDP=1.62D-03 DE=-1.52D-05 OVMax= 1.67D-03

 Cycle   6  Pass 1  IDiag  3:
 E= 0.732278169682317     Delta-E=       -0.000004971990 Rises=F Damp=F
 DIIS: error= 8.89D-05 at cycle   6 NSaved=   6.
 NSaved= 6 IEnMin= 6 EnMin= 0.732278169682317     IErMin= 6 ErrMin= 8.89D-05
 ErrMax= 8.89D-05  0.00D+00 EMaxC= 1.00D-01 BMatC= 1.61D-07 BMatP= 4.06D-07
 IDIUse=1 WtCom= 1.00D+00 WtEn= 0.00D+00
 Coeff-Com:  0.202D-01-0.347D-01-0.280D+00 0.167D+01-0.334D+01 0.296D+01
 Coeff:      0.202D-01-0.347D-01-0.280D+00 0.167D+01-0.334D+01 0.296D+01
 Gap=     0.359 Goal=   None    Shift=    0.000
 RMSDP=1.62D-04 MaxDP=1.80D-03 DE=-4.97D-06 OVMax= 1.28D-03

 Cycle   7  Pass 1  IDiag  3:
 E= 0.732275129555333     Delta-E=       -0.000003040127 Rises=F Damp=F
 DIIS: error= 4.55D-05 at cycle   7 NSaved=   7.
 NSaved= 7 IEnMin= 7 EnMin= 0.732275129555333     IErMin= 7 ErrMin= 4.55D-05
 ErrMax= 4.55D-05  0.00D+00 EMaxC= 1.00D-01 BMatC= 5.65D-08 BMatP= 1.61D-07
 IDIUse=1 WtCom= 1.00D+00 WtEn= 0.00D+00
 Coeff-Com: -0.186D-01 0.318D-01 0.270D+00-0.162D+01 0.339D+01-0.363D+01
 Coeff-Com:  0.258D+01
 Coeff:     -0.186D-01 0.318D-01 0.270D+00-0.162D+01 0.339D+01-0.363D+01
 Coeff:      0.258D+01
 Gap=     0.359 Goal=   None    Shift=    0.000
 RMSDP=1.19D-04 MaxDP=1.26D-03 DE=-3.04D-06 OVMax= 1.14D-03

 Cycle   8  Pass 1  IDiag  3:
 E= 0.732273811828421     Delta-E=       -0.000001317727 Rises=F Damp=F
 DIIS: error= 3.29D-05 at cycle   8 NSaved=   8.
 NSaved= 8 IEnMin= 8 EnMin= 0.732273811828421     IErMin= 8 ErrMin= 3.29D-05
 ErrMax= 3.29D-05  0.00D+00 EMaxC= 1.00D-01 BMatC= 2.34D-08 BMatP= 5.65D-08
 IDIUse=1 WtCom= 1.00D+00 WtEn= 0.00D+00
 Coeff-Com:  0.293D-01-0.565D-01-0.340D+00 0.217D+01-0.459D+01 0.507D+01
 Coeff-Com: -0.425D+01 0.297D+01
 Coeff:      0.293D-01-0.565D-01-0.340D+00 0.217D+01-0.459D+01 0.507D+01
 Coeff:     -0.425D+01 0.297D+01
 Gap=     0.359 Goal=   None    Shift=    0.000
 RMSDP=8.58D-05 MaxDP=8.29D-04 DE=-1.32D-06 OVMax= 8.64D-04

 Cycle   9  Pass 1  IDiag  3:
 E= 0.732273214718390     Delta-E=       -0.000000597110 Rises=F Damp=F
 DIIS: error= 1.85D-05 at cycle   9 NSaved=   9.
 NSaved= 9 IEnMin= 9 EnMin= 0.732273214718390     IErMin= 9 ErrMin= 1.85D-05
 ErrMax= 1.85D-05  0.00D+00 EMaxC= 1.00D-01 BMatC= 7.44D-09 BMatP= 2.34D-08
 IDIUse=1 WtCom= 1.00D+00 WtEn= 0.00D+00
 Coeff-Com: -0.173D-01 0.303D-01 0.238D+00-0.144D+01 0.299D+01-0.334D+01
 Coeff-Com:  0.302D+01-0.305D+01 0.257D+01
 Coeff:     -0.173D-01 0.303D-01 0.238D+00-0.144D+01 0.299D+01-0.334D+01
 Coeff:      0.302D+01-0.305D+01 0.257D+01
 Gap=     0.359 Goal=   None    Shift=    0.000
 RMSDP=7.28D-05 MaxDP=7.32D-04 DE=-5.97D-07 OVMax= 7.39D-04

 Cycle  10  Pass 1  IDiag  3:
 E= 0.732273001678053     Delta-E=       -0.000000213040 Rises=F Damp=F
 DIIS: error= 4.37D-06 at cycle  10 NSaved=  10.
 NSaved=10 IEnMin=10 EnMin= 0.732273001678053     IErMin=10 ErrMin= 4.37D-06
 ErrMax= 4.37D-06  0.00D+00 EMaxC= 1.00D-01 BMatC= 7.29D-10 BMatP= 7.44D-09
 IDIUse=1 WtCom= 1.00D+00 WtEn= 0.00D+00
 Coeff-Com:  0.632D-02-0.108D-01-0.880D-01 0.526D+00-0.108D+01 0.122D+01
 Coeff-Com: -0.115D+01 0.141D+01-0.164D+01 0.181D+01
 Coeff:      0.632D-02-0.108D-01-0.880D-01 0.526D+00-0.108D+01 0.122D+01
 Coeff:     -0.115D+01 0.141D+01-0.164D+01 0.181D+01
 Gap=     0.359 Goal=   None    Shift=    0.000
 RMSDP=1.48D-05 MaxDP=1.56D-04 DE=-2.13D-07 OVMax= 1.41D-04

 Cycle  11  Pass 1  IDiag  3:
 E= 0.732272990956417     Delta-E=       -0.000000010722 Rises=F Damp=F
 DIIS: error= 1.12D-06 at cycle  11 NSaved=  11.
 NSaved=11 IEnMin=11 EnMin= 0.732272990956417     IErMin=11 ErrMin= 1.12D-06
 ErrMax= 1.12D-06  0.00D+00 EMaxC= 1.00D-01 BMatC= 4.71D-11 BMatP= 7.29D-10
 IDIUse=1 WtCom= 1.00D+00 WtEn= 0.00D+00
 Coeff-Com: -0.165D-02 0.246D-02 0.272D-01-0.155D+00 0.312D+00-0.351D+00
 Coeff-Com:  0.332D+00-0.430D+00 0.560D+00-0.823D+00 0.153D+01
 Coeff:     -0.165D-02 0.246D-02 0.272D-01-0.155D+00 0.312D+00-0.351D+00
 Coeff:      0.332D+00-0.430D+00 0.560D+00-0.823D+00 0.153D+01
 Gap=     0.359 Goal=   None    Shift=    0.000
 RMSDP=2.02D-06 MaxDP=1.60D-05 DE=-1.07D-08 OVMax= 1.58D-05

 Cycle  12  Pass 1  IDiag  3:
 E= 0.732272990544487     Delta-E=       -0.000000000412 Rises=F Damp=F
 DIIS: error= 2.86D-07 at cycle  12 NSaved=  12.
 NSaved=12 IEnMin=12 EnMin= 0.732272990544487     IErMin=12 ErrMin= 2.86D-07
 ErrMax= 2.86D-07  0.00D+00 EMaxC= 1.00D-01 BMatC= 2.95D-12 BMatP= 4.71D-11
 IDIUse=1 WtCom= 1.00D+00 WtEn= 0.00D+00
 Coeff-Com:  0.452D-03-0.608D-03-0.810D-02 0.450D-01-0.890D-01 0.999D-01
 Coeff-Com: -0.956D-01 0.135D+00-0.195D+00 0.316D+00-0.766D+00 0.156D+01
 Coeff:      0.452D-03-0.608D-03-0.810D-02 0.450D-01-0.890D-01 0.999D-01
 Coeff:     -0.956D-01 0.135D+00-0.195D+00 0.316D+00-0.766D+00 0.156D+01
 Gap=     0.359 Goal=   None    Shift=    0.000
 RMSDP=4.06D-07 MaxDP=2.48D-06 DE=-4.12D-10 OVMax= 4.55D-06

 Cycle  13  Pass 1  IDiag  3:
 E= 0.732272990519803     Delta-E=       -0.000000000025 Rises=F Damp=F
 DIIS: error= 7.60D-08 at cycle  13 NSaved=  13.
 NSaved=13 IEnMin=13 EnMin= 0.732272990519803     IErMin=13 ErrMin= 7.60D-08
 ErrMax= 7.60D-08  0.00D+00 EMaxC= 1.00D-01 BMatC= 1.85D-13 BMatP= 2.95D-12
 IDIUse=1 WtCom= 1.00D+00 WtEn= 0.00D+00
 Coeff-Com: -0.783D-04 0.485D-04 0.202D-02-0.103D-01 0.193D-01-0.214D-01
 Coeff-Com:  0.208D-01-0.353D-01 0.606D-01-0.111D+00 0.308D+00-0.825D+00
 Coeff-Com:  0.159D+01
 Coeff:     -0.783D-04 0.485D-04 0.202D-02-0.103D-01 0.193D-01-0.214D-01
 Coeff:      0.208D-01-0.353D-01 0.606D-01-0.111D+00 0.308D+00-0.825D+00
 Coeff:      0.159D+01
 Gap=     0.359 Goal=   None    Shift=    0.000
 RMSDP=1.08D-07 MaxDP=8.50D-07 DE=-2.47D-11 OVMax= 1.09D-06

 Cycle  14  Pass 1  IDiag  3:
 E= 0.732272990518268     Delta-E=       -0.000000000002 Rises=F Damp=F
 DIIS: error= 1.25D-08 at cycle  14 NSaved=  14.
 NSaved=14 IEnMin=14 EnMin= 0.732272990518268     IErMin=14 ErrMin= 1.25D-08
 ErrMax= 1.25D-08  0.00D+00 EMaxC= 1.00D-01 BMatC= 8.12D-15 BMatP= 1.85D-13
 IDIUse=1 WtCom= 1.00D+00 WtEn= 0.00D+00
 Coeff-Com:  0.370D-05 0.261D-04-0.402D-03 0.172D-02-0.282D-02 0.306D-02
 Coeff-Com: -0.321D-02 0.789D-02-0.168D-01 0.343D-01-0.103D+00 0.301D+00
 Coeff-Com: -0.735D+00 0.151D+01
 Coeff:      0.370D-05 0.261D-04-0.402D-03 0.172D-02-0.282D-02 0.306D-02
 Coeff:     -0.321D-02 0.789D-02-0.168D-01 0.343D-01-0.103D+00 0.301D+00
 Coeff:     -0.735D+00 0.151D+01
 Gap=     0.359 Goal=   None    Shift=    0.000
 RMSDP=1.91D-08 MaxDP=1.06D-07 DE=-1.53D-12 OVMax= 1.60D-07

 Cycle  15  Pass 1  IDiag  3:
 E= 0.732272990517856     Delta-E=        0.000000000000 Rises=F Damp=F
 DIIS: error= 2.70D-09 at cycle  15 NSaved=  15.
 NSaved=15 IEnMin=15 EnMin= 0.732272990517856     IErMin=15 ErrMin= 2.70D-09
 ErrMax= 2.70D-09  0.00D+00 EMaxC= 1.00D-01 BMatC= 3.86D-16 BMatP= 8.12D-15
 IDIUse=1 WtCom= 1.00D+00 WtEn= 0.00D+00
 Coeff-Com:  0.274D-05-0.202D-04 0.128D-03-0.438D-03 0.559D-03-0.586D-03
 Coeff-Com:  0.729D-03-0.285D-02 0.699D-02-0.151D-01 0.471D-01-0.140D+00
 Coeff-Com:  0.356D+00-0.864D+00 0.161D+01
 Coeff:      0.274D-05-0.202D-04 0.128D-03-0.438D-03 0.559D-03-0.586D-03
 Coeff:      0.729D-03-0.285D-02 0.699D-02-0.151D-01 0.471D-01-0.140D+00
 Coeff:      0.356D+00-0.864D+00 0.161D+01
 Gap=     0.359 Goal=   None    Shift=    0.000
 RMSDP=4.17D-09 MaxDP=2.41D-08 DE=-4.12D-13 OVMax= 2.63D-08

 Cycle  16  Pass 2  IDiag  1:
 SCF Done:  E(RAM1) =  0.732272990518     A.U. after   16 cycles
            NFock= 15  Conv=0.42D-08     -V/T= 1.0489
 KE=-1.497678123725D+01 PE=-1.712876853450D+02 EE= 8.458622079612D+01
 Leave Link  502 at Sun Nov 29 12:22:24 2015, MaxMem=    33554432 cpu:         0.0
 (Enter /home/Applications/g09/g09/l701.exe)
 Compute integral first derivatives.
 ... and contract with generalized density number  0.
 Leave Link  701 at Sun Nov 29 12:22:24 2015, MaxMem=    33554432 cpu:         0.0
 (Enter /home/Applications/g09/g09/l702.exe)
 L702 exits ... SP integral derivatives will be done elsewhere.
 Leave Link  702 at Sun Nov 29 12:22:24 2015, MaxMem=    33554432 cpu:         0.0
 (Enter /home/Applications/g09/g09/l703.exe)
 Compute integral first derivatives, UseDBF=F ICtDFT=           0.
 Integral derivatives from FoFJK, PRISM(SPDF).
 Calling FoFJK, ICntrl=      2127 FMM=F ISym2X=0 I1Cent= 0 IOpClX= 0 NMat=1 NMatS=1 NMatT=0.
 FoFJK:  IHMeth= 8 ICntrl=    2127 DoSepK=F KAlg= 0 I1Cent=   0 FoldK=F
 IRaf=         0 NMat=   1 IRICut=       1 DoRegI=T DoRafI=F ISym2E= 0.
 FoFCou: FMM=F IPFlag=           0 FMFlag=      100000 FMFlg1=         800
         NFxFlg=           0 DoJE=F BraDBF=F KetDBF=F FulRan=T
         wScrn=  0.000000 ICntrl=    2127 IOpCl=  0 I1Cent=           0 NGrid=           0
         NMat0=    1 NMatS0=      1 NMatT0=    0 NMatD0=    1 NMtDS0=    0 NMtDT0=    0
 Symmetry not used in FoFCou.
 Leave Link  703 at Sun Nov 29 12:22:24 2015, MaxMem=    33554432 cpu:         0.0
 (Enter /home/Applications/g09/g09/l716.exe)
 Dipole        =-1.93691563D-02-2.22628264D-01 3.94187909D-04
 ***** Axes restored to original set *****
 -------------------------------------------------------------------
 Center     Atomic                   Forces (Hartrees/Bohr)
 Number     Number              X              Y              Z
 -------------------------------------------------------------------
      1        6          -0.004717463   -0.008568082    0.001609611
      2        6           0.007320631   -0.007999157   -0.002996120
      3        8          -0.007573417   -0.006429864    0.001520808
      4        6           0.023816777    0.011691776    0.000054001
      5        6          -0.014989338    0.002336667   -0.000889022
      6        1          -0.000898488   -0.000548562    0.001274736
      7        1          -0.001220199   -0.001482748   -0.000870081
      8        1           0.002427595    0.004869879    0.001278091
      9        1          -0.004166098    0.006130091   -0.000982025
 -------------------------------------------------------------------
 Cartesian Forces:  Max     0.023816777 RMS     0.007084186
 Leave Link  716 at Sun Nov 29 12:22:24 2015, MaxMem=    33554432 cpu:         0.0
 (Enter /home/Applications/g09/g09/l103.exe)

 GradGradGradGradGradGradGradGradGradGradGradGradGradGradGradGradGradGrad
 Berny optimization.
 Using GEDIIS/GDIIS optimizer.
 FormGI is forming the generalized inverse of G from B-inverse, IUseBI=4.
 Internal  Forces:  Max     0.015414627 RMS     0.004059101
 Search for a local minimum.
 Step number   2 out of a maximum of   48
 All quantities printed in internal units (Hartrees-Bohrs-Radians)
 RMS Force = .40591D-02 SwitMx=.10000D-02 MixMth= 1
 Mixed Optimization -- RFO/linear search
 Update second derivatives using D2CorX and points    1    2
 DE= -1.64D-02 DEPred=-1.78D-02 R= 9.21D-01
 TightC=F SS=  1.41D+00  RLast= 3.67D-01 DXNew= 5.0454D-01 1.1008D+00
 Trust test= 9.21D-01 RLast= 3.67D-01 DXMaxT set to 5.05D-01
 ITU=  1  0
 Use linear search instead of GDIIS.
     Eigenvalues ---    0.02374   0.02555   0.02732   0.02810   0.02847
     Eigenvalues ---    0.03131   0.15833   0.15986   0.15989   0.16036
     Eigenvalues ---    0.21982   0.23099   0.25760   0.28506   0.35286
     Eigenvalues ---    0.36836   0.44084   0.47842   0.53862   0.62548
     Eigenvalues ---    0.65221
 RFO step:  Lambda=-1.59128864D-03 EMin= 2.37379401D-02
 Quartic linear search produced a step of  0.07228.
 Iteration  1 RMS(Cart)=  0.01417996 RMS(Int)=  0.00025302
 Iteration  2 RMS(Cart)=  0.00019366 RMS(Int)=  0.00012598
 Iteration  3 RMS(Cart)=  0.00000004 RMS(Int)=  0.00012598
 ITry= 1 IFail=0 DXMaxC= 4.19D-02 DCOld= 1.00D+10 DXMaxT= 5.05D-01 DXLimC= 3.00D+00 Rises=F
 Variable       Old X    -DE/DX   Delta X   Delta X   Delta X     New X
                                 (Linear)    (Quad)   (Total)
    R1        2.59016  -0.00846   0.00447  -0.01768  -0.01318   2.57698
    R2        2.69344   0.00203   0.00406   0.00085   0.00493   2.69837
    R3        2.07518  -0.00700  -0.00929  -0.02401  -0.03330   2.04188
    R4        2.58492   0.00347   0.00569   0.00586   0.01155   2.59647
    R5        2.08195  -0.00549  -0.00633  -0.01802  -0.02434   2.05761
    R6        2.54183   0.01187   0.00789   0.01673   0.02458   2.56641
    R7        2.61090  -0.01541   0.00351  -0.03237  -0.02888   2.58202
    R8        2.06958  -0.00085   0.00290  -0.00346  -0.00056   2.06902
    R9        2.05318  -0.00109   0.00007  -0.00331  -0.00324   2.04995
    A1        1.85386   0.00244   0.00015   0.00518   0.00514   1.85900
    A2        2.22515   0.00134   0.00188   0.01370   0.01551   2.24066
    A3        2.20383  -0.00377  -0.00155  -0.01887  -0.02050   2.18333
    A4        1.92547  -0.00273   0.00165  -0.01164  -0.01040   1.91507
    A5        2.33114   0.00150  -0.00021   0.00692   0.00645   2.33759
    A6        2.02583   0.00126  -0.00057   0.00547   0.00464   2.03047
    A7        1.86682  -0.00071  -0.00243   0.00732   0.00466   1.87148
    A8        1.93497  -0.00284   0.00091  -0.01216  -0.01143   1.92354
    A9        2.06192  -0.00039   0.00012  -0.00621  -0.00602   2.05590
   A10        2.28614   0.00323  -0.00102   0.01823   0.01728   2.30342
   A11        1.84349   0.00385   0.00059   0.01174   0.01212   1.85561
   A12        2.17578  -0.00186  -0.00016  -0.00535  -0.00554   2.17024
   A13        2.26339  -0.00199   0.00000  -0.00629  -0.00633   2.25706
    D1        0.00112  -0.00024  -0.01081   0.00089  -0.01004  -0.00892
    D2        3.09830   0.00066  -0.00078   0.02341   0.02254   3.12084
    D3        3.11561  -0.00012  -0.00420   0.00084  -0.00329   3.11232
    D4       -0.07040   0.00078   0.00583   0.02335   0.02929  -0.04111
    D5        0.00897  -0.00010   0.00892  -0.01403  -0.00524   0.00373
    D6       -3.10095  -0.00029   0.00312  -0.01709  -0.01411  -3.11506
    D7       -3.10595  -0.00032   0.00211  -0.01463  -0.01241  -3.11836
    D8        0.06731  -0.00052  -0.00368  -0.01769  -0.02128   0.04603
    D9       -0.01110   0.00062   0.00864   0.01324   0.02183   0.01073
   D10       -3.11687  -0.00014   0.00056  -0.00505  -0.00448  -3.12135
   D11        0.01716  -0.00070  -0.00269  -0.02279  -0.02545  -0.00829
   D12       -3.10754  -0.00054  -0.00310  -0.01509  -0.01829  -3.12583
   D13       -0.01635   0.00054  -0.00396   0.02316   0.01919   0.00284
   D14        3.09140   0.00076   0.00222   0.02649   0.02871   3.12010
   D15        3.10552   0.00029  -0.00345   0.01379   0.01029   3.11581
   D16       -0.06992   0.00051   0.00273   0.01712   0.01981  -0.05011
         Item               Value     Threshold  Converged?
 Maximum Force            0.015415     0.000450     NO 
 RMS     Force            0.004059     0.000300     NO 
 Maximum Displacement     0.041931     0.001800     NO 
 RMS     Displacement     0.014187     0.001200     NO 
 Predicted change in Energy=-8.637554D-04
 Lowest energy point so far.  Saving SCF results.
 GradGradGradGradGradGradGradGradGradGradGradGradGradGradGradGradGradGrad

 Leave Link  103 at Sun Nov 29 12:22:24 2015, MaxMem=    33554432 cpu:         0.0
 (Enter /home/Applications/g09/g09/l202.exe)
                          Input orientation:                          
 ---------------------------------------------------------------------
 Center     Atomic      Atomic             Coordinates (Angstroms)
 Number     Number       Type             X           Y           Z
 ---------------------------------------------------------------------
      1          6           0        0.950030   -0.729377   -0.011926
      2          6           0       -0.357535   -1.116477   -0.018370
      3          8           0       -1.169385   -0.008271    0.006815
      4          6           0       -0.360635    1.082713    0.015305
      5          6           0        0.950526    0.698417    0.006761
      6          1           0        1.846098    1.310372   -0.008048
      7          1           0       -0.834380    2.069162    0.050469
      8          1           0       -0.859339   -2.082345   -0.047814
      9          1           0        1.833703   -1.351101   -0.001891
 ---------------------------------------------------------------------
                    Distance matrix (angstroms):
                    1          2          3          4          5
     1  C    0.000000
     2  C    1.363677   0.000000
     3  O    2.238809   1.373992   0.000000
     4  C    2.236572   2.199450   1.358085   0.000000
     5  C    1.427917   2.237297   2.234599   1.366345   0.000000
     6  H    2.227898   3.278064   3.291228   2.218568   1.084785
     7  H    3.319614   3.221865   2.104724   1.094876   2.250942
     8  H    2.259563   1.088841   2.097831   3.204728   3.318317
     9  H    1.080518   2.203825   3.289651   3.277020   2.231726
                    6          7          8          9
     6  H    0.000000
     7  H    2.786423   0.000000
     8  H    4.339528   4.152745   0.000000
     9  H    2.661509   4.338157   2.790932   0.000000
 Stoichiometry    C4H4O
 Framework group  C1[X(C4H4O)]
 Deg. of freedom    21
 Full point group                 C1      NOp   1
 RotChk:  IX=0 Diff= 1.57D-01
 Largest Abelian subgroup         C1      NOp   1
 Largest concise Abelian subgroup C1      NOp   1
                         Standard orientation:                         
 ---------------------------------------------------------------------
 Center     Atomic      Atomic             Coordinates (Angstroms)
 Number     Number       Type             X           Y           Z
 ---------------------------------------------------------------------
      1          6           0        0.749386    0.931267    0.002214
      2          6           0        1.089185   -0.389387   -0.002723
      3          8           0       -0.047803   -1.160803    0.002894
      4          6           0       -1.108947   -0.313253   -0.002492
      5          6           0       -0.677582    0.983211   -0.000803
      6          1           0       -1.256580    1.900312   -0.021913
      7          1           0       -2.112244   -0.751205    0.016087
      8          1           0        2.036687   -0.925619   -0.019163
      9          1           0        1.402313    1.791907    0.024658
 ---------------------------------------------------------------------
 Rotational constants (GHZ):      9.4449150      9.2170903      4.6649858
 Leave Link  202 at Sun Nov 29 12:22:24 2015, MaxMem=    33554432 cpu:         0.0
 (Enter /home/Applications/g09/g09/l301.exe)

 Semi-emprical parameters in input format:
 Method=8 CoreType=1 PeptideFC=0.0105570000 RIJScale=0.4899110000
 ****
 H       
 PQN=1 NValence=1 F0ss=0.4577290000 ZetaOverlap=1.0659780000 U=-0.3880320000
 Beta=-0.2381360000 CoreKO=1.1144350000 KON=0,0,0,1.0186160000 KON=1,0,1,1.0557690000
 KON=0,1,1,1.0725930000 KON=2,1,1,1.1590830000 EISol=-0.4188110042 EHeat=0.0830298228
 Alpha=1.5252600000
 GCore=0.0099350000,1.3986240000,2.1461900000
 GCore=0.0003630000,1.5415670000,2.7171030000
 GCore=-0.0012530000,0.5088300000,4.2039300000
 ****
 C       
 PQN=2,2 NValence=4 F0ss=0.4263360000 F0sp=0.4580860000 F0pp=0.3261620000 F2pp=0.2036090000
 G1sp=0.2073130000
 ZetaOverlap=2.1016200000,1.8587190000
 U=-1.9018080000,-1.4557970000
 Beta=-0.4792560000,-0.2700630000 DDN=0,1,0.8034860000 DDN=1,1,0.7591540000
 CoreKO=1.1325510000 KON=0,0,0,1.1996250000 KON=1,0,1,0.8437060000 KON=0,1,1,1.0478550000
 KON=2,1,1,0.8168110000 EISol=-4.4398989268 EHeat=0.2723305520 Alpha=1.4381970000
 DipHyp=1.6068795495
 GCore=0.0008260000,1.4798740000,2.8384620000
 GCore=0.0031480000,1.6675340000,3.8116200000
 GCore=-0.0011560000,1.5029710000,3.9059920000
 GCore=-0.0000920000,1.1754400000,4.8520980000
 ****
 O       
 PQN=2,2 NValence=6 F0ss=0.5413910000 F0sp=0.5145480000 F0pp=0.5091470000 F2pp=0.2175940000
 G1sp=0.4302620000
 ZetaOverlap=3.3296350000,2.5240390000
 U=-3.3343200000,-2.9854240000
 Beta=-0.9082740000,-1.1340310000 DDN=0,1,0.4988900000 DDN=1,1,0.5206270000
 CoreKO=0.9688900000 KON=0,0,0,0.8976510000 KON=1,0,1,0.5186760000 KON=0,1,1,0.8274210000
 KON=2,1,1,0.5315430000 EISol=-11.6164441184 EHeat=0.0949133088 Alpha=2.3722000000
 DipHyp=0.9977225968
 GCore=0.0212480000,1.1747580000,1.6499540000
 GCore=0.0064050000,2.1096700000,2.7148630000
 ****
 
 Standard basis: VSTO-6G (5D, 7F)
 Ernie: Thresh=  0.10000D-02 Tol=  0.10000D-05 Strict=F.
  NNHCO=     0 NNPyr=     0 NCTC=     0               EPep=         0.000000000
    EC=        67.827817218  ECS=         1.629461876   EG=         0.434589653
   EHC=         0.000000000  EAt=       -31.051283842  AtH=         1.516354808
 EPDDG=         0.000000000  ECC=        69.891868747 EAtT=        32.567638650
 There are    24 symmetry adapted cartesian basis functions of A   symmetry.
 There are    24 symmetry adapted basis functions of A   symmetry.
    24 basis functions,   144 primitive gaussians,    24 cartesian basis functions
    13 alpha electrons       13 beta electrons
       nuclear repulsion energy       102.4595073977 Hartrees.
 IExCor=    0 DFT=F Ex=HF Corr=None ExCW=0 ScaHFX=  1.000000
 ScaDFX=  1.000000  1.000000  1.000000  1.000000 ScalE2=  1.000000  1.000000
 IRadAn=      0 IRanWt=     -1 IRanGd=            0 ICorTp=0 IEmpDi=  4
 Integral buffers will be    131072 words long.
 Regular integral format.
 Two-electron integral symmetry is turned off.
 Leave Link  301 at Sun Nov 29 12:22:24 2015, MaxMem=    33554432 cpu:         0.0
 (Enter /home/Applications/g09/g09/l302.exe)
 Do NDO integrals.
 NPDir=0 NMtPBC=     1 NCelOv=     1 NCel=       1 NClECP=     1 NCelD=      1
         NCelK=      1 NCelE2=     1 NClLst=     1 CellRange=     0.0.
 One-electron integrals computed using PRISM.
 NBasis=    24 RedAO= F EigKep=  0.00D+00  NBF=    24
 NBsUse=    24 1.00D-04 EigRej=  0.00D+00 NBFU=    24
 Leave Link  302 at Sun Nov 29 12:22:24 2015, MaxMem=    33554432 cpu:         0.0
 (Enter /home/Applications/g09/g09/l303.exe)
 DipDrv:  MaxL=1.
 Leave Link  303 at Sun Nov 29 12:22:24 2015, MaxMem=    33554432 cpu:         0.0
 (Enter /home/Applications/g09/g09/l401.exe)
 Initial guess from the checkpoint file:  "/home/Applications/g09/scratch/Gau-20939.chk"
 B after Tr=     0.000000    0.000000    0.000000
         Rot=    0.998484    0.000002    0.000031   -0.055045 Ang=   6.31 deg.
 Guess basis will be translated and rotated to current coordinates.
 JPrj=0 DoOrth=T DoCkMO=T.
 Leave Link  401 at Sun Nov 29 12:22:24 2015, MaxMem=    33554432 cpu:         0.0
 (Enter /home/Applications/g09/g09/l502.exe)
 Closed shell SCF:
 Using DIIS extrapolation, IDIIS=  1040.
 Overlap will be assumed to be unity.
 Two-electron integral symmetry not used.
 Keep J ints in memory in canonical form, NReq=888082.
 IVT=       79475 IEndB=       79475 NGot=    33554432 MDV=    33473473
 LenX=    33473473 LenY=    33472456
 Requested convergence on RMS density matrix=1.00D-08 within 128 cycles.
 Requested convergence on MAX density matrix=1.00D-06.
 Requested convergence on             energy=1.00D-06.
 No special actions if energy rises.
 FoFCou: FMM=F IPFlag=           0 FMFlag=           0 FMFlg1=           0
         NFxFlg=           0 DoJE=F BraDBF=F KetDBF=F FulRan=T
         wScrn=  0.000000 ICntrl=     600 IOpCl=  2 I1Cent=           0 NGrid=           0
         NMat0=    1 NMatS0=     54 NMatT0=    0 NMatD0=    1 NMtDS0=    0 NMtDT0=    0
 Symmetry not used in FoFCou.

 Cycle   1  Pass 1  IDiag  1:
 E= 0.731851056361961    
 DIIS: error= 1.32D-03 at cycle   1 NSaved=   1.
 NSaved= 1 IEnMin= 1 EnMin= 0.731851056361961     IErMin= 1 ErrMin= 1.32D-03
 ErrMax= 1.32D-03  0.00D+00 EMaxC= 1.00D-01 BMatC= 1.26D-04 BMatP= 1.26D-04
 IDIUse=3 WtCom= 9.87D-01 WtEn= 1.32D-02
 Coeff-Com:  0.100D+01
 Coeff-En:   0.100D+01
 Coeff:      0.100D+01
 GapD=    2.000 DampG=2.000 DampE=1.000 DampFc=2.0000 IDamp=-1.
 RMSDP=8.61D-04 MaxDP=3.17D-03              OVMax= 0.00D+00

 Cycle   2  Pass 1  IDiag  3:
 E= 0.731417461483744     Delta-E=       -0.000433594878 Rises=F Damp=F
 DIIS: error= 5.81D-04 at cycle   2 NSaved=   2.
 NSaved= 2 IEnMin= 2 EnMin= 0.731417461483744     IErMin= 2 ErrMin= 5.81D-04
 ErrMax= 5.81D-04  0.00D+00 EMaxC= 1.00D-01 BMatC= 1.86D-05 BMatP= 1.26D-04
 IDIUse=3 WtCom= 9.94D-01 WtEn= 5.81D-03
 Coeff-Com: -0.496D+00 0.150D+01
 Coeff-En:   0.000D+00 0.100D+01
 Coeff:     -0.493D+00 0.149D+01
 Gap=     0.362 Goal=   None    Shift=    0.000
 RMSDP=5.90D-04 MaxDP=3.00D-03 DE=-4.34D-04 OVMax= 4.37D-03

 Cycle   3  Pass 1  IDiag  3:
 E= 0.731315974258635     Delta-E=       -0.000101487225 Rises=F Damp=F
 DIIS: error= 2.06D-04 at cycle   3 NSaved=   3.
 NSaved= 3 IEnMin= 3 EnMin= 0.731315974258635     IErMin= 3 ErrMin= 2.06D-04
 ErrMax= 2.06D-04  0.00D+00 EMaxC= 1.00D-01 BMatC= 1.47D-06 BMatP= 1.86D-05
 IDIUse=3 WtCom= 9.98D-01 WtEn= 2.06D-03
 Coeff-Com:  0.164D+00-0.627D+00 0.146D+01
 Coeff-En:   0.000D+00 0.000D+00 0.100D+01
 Coeff:      0.164D+00-0.626D+00 0.146D+01
 Gap=     0.362 Goal=   None    Shift=    0.000
 RMSDP=2.26D-04 MaxDP=1.64D-03 DE=-1.01D-04 OVMax= 2.41D-03

 Cycle   4  Pass 1  IDiag  3:
 E= 0.731303534362084     Delta-E=       -0.000012439897 Rises=F Damp=F
 DIIS: error= 9.86D-05 at cycle   4 NSaved=   4.
 NSaved= 4 IEnMin= 4 EnMin= 0.731303534362084     IErMin= 4 ErrMin= 9.86D-05
 ErrMax= 9.86D-05  0.00D+00 EMaxC= 1.00D-01 BMatC= 3.26D-07 BMatP= 1.47D-06
 IDIUse=1 WtCom= 1.00D+00 WtEn= 0.00D+00
 Coeff-Com: -0.425D-01 0.196D+00-0.853D+00 0.170D+01
 Coeff:     -0.425D-01 0.196D+00-0.853D+00 0.170D+01
 Gap=     0.362 Goal=   None    Shift=    0.000
 RMSDP=1.40D-04 MaxDP=1.23D-03 DE=-1.24D-05 OVMax= 1.73D-03

 Cycle   5  Pass 1  IDiag  3:
 E= 0.731299925876968     Delta-E=       -0.000003608485 Rises=F Damp=F
 DIIS: error= 6.21D-05 at cycle   5 NSaved=   5.
 NSaved= 5 IEnMin= 5 EnMin= 0.731299925876968     IErMin= 5 ErrMin= 6.21D-05
 ErrMax= 6.21D-05  0.00D+00 EMaxC= 1.00D-01 BMatC= 9.55D-08 BMatP= 3.26D-07
 IDIUse=1 WtCom= 1.00D+00 WtEn= 0.00D+00
 Coeff-Com: -0.256D-01 0.392D-01 0.464D+00-0.185D+01 0.237D+01
 Coeff:     -0.256D-01 0.392D-01 0.464D+00-0.185D+01 0.237D+01
 Gap=     0.362 Goal=   None    Shift=    0.000
 RMSDP=1.08D-04 MaxDP=1.12D-03 DE=-3.61D-06 OVMax= 1.26D-03

 Cycle   6  Pass 1  IDiag  3:
 E= 0.731298604993441     Delta-E=       -0.000001320884 Rises=F Damp=F
 DIIS: error= 2.81D-05 at cycle   6 NSaved=   6.
 NSaved= 6 IEnMin= 6 EnMin= 0.731298604993441     IErMin= 6 ErrMin= 2.81D-05
 ErrMax= 2.81D-05  0.00D+00 EMaxC= 1.00D-01 BMatC= 1.80D-08 BMatP= 9.55D-08
 IDIUse=1 WtCom= 1.00D+00 WtEn= 0.00D+00
 Coeff-Com:  0.192D-01-0.240D-01-0.424D+00 0.170D+01-0.244D+01 0.216D+01
 Coeff:      0.192D-01-0.240D-01-0.424D+00 0.170D+01-0.244D+01 0.216D+01
 Gap=     0.362 Goal=   None    Shift=    0.000
 RMSDP=4.14D-05 MaxDP=4.60D-04 DE=-1.32D-06 OVMax= 3.13D-04

 Cycle   7  Pass 1  IDiag  3:
 E= 0.731298351274504     Delta-E=       -0.000000253719 Rises=F Damp=F
 DIIS: error= 1.48D-05 at cycle   7 NSaved=   7.
 NSaved= 7 IEnMin= 7 EnMin= 0.731298351274504     IErMin= 7 ErrMin= 1.48D-05
 ErrMax= 1.48D-05  0.00D+00 EMaxC= 1.00D-01 BMatC= 6.50D-09 BMatP= 1.80D-08
 IDIUse=1 WtCom= 1.00D+00 WtEn= 0.00D+00
 Coeff-Com: -0.207D-01 0.262D-01 0.473D+00-0.192D+01 0.281D+01-0.292D+01
 Coeff-Com:  0.255D+01
 Coeff:     -0.207D-01 0.262D-01 0.473D+00-0.192D+01 0.281D+01-0.292D+01
 Coeff:      0.255D+01
 Gap=     0.362 Goal=   None    Shift=    0.000
 RMSDP=3.00D-05 MaxDP=3.00D-04 DE=-2.54D-07 OVMax= 2.90D-04

 Cycle   8  Pass 1  IDiag  3:
 E= 0.731298226689276     Delta-E=       -0.000000124585 Rises=F Damp=F
 DIIS: error= 1.23D-05 at cycle   8 NSaved=   8.
 NSaved= 8 IEnMin= 8 EnMin= 0.731298226689276     IErMin= 8 ErrMin= 1.23D-05
 ErrMax= 1.23D-05  0.00D+00 EMaxC= 1.00D-01 BMatC= 3.21D-09 BMatP= 6.50D-09
 IDIUse=1 WtCom= 1.00D+00 WtEn= 0.00D+00
 Coeff-Com:  0.434D-01-0.662D-01-0.834D+00 0.350D+01-0.518D+01 0.557D+01
 Coeff-Com: -0.594D+01 0.391D+01
 Coeff:      0.434D-01-0.662D-01-0.834D+00 0.350D+01-0.518D+01 0.557D+01
 Coeff:     -0.594D+01 0.391D+01
 Gap=     0.362 Goal=   None    Shift=    0.000
 RMSDP=4.14D-05 MaxDP=3.98D-04 DE=-1.25D-07 OVMax= 4.16D-04

 Cycle   9  Pass 1  IDiag  3:
 E= 0.731298126725605     Delta-E=       -0.000000099964 Rises=F Damp=F
 DIIS: error= 4.93D-06 at cycle   9 NSaved=   9.
 NSaved= 9 IEnMin= 9 EnMin= 0.731298126725605     IErMin= 9 ErrMin= 4.93D-06
 ErrMax= 4.93D-06  0.00D+00 EMaxC= 1.00D-01 BMatC= 6.48D-10 BMatP= 3.21D-09
 IDIUse=1 WtCom= 1.00D+00 WtEn= 0.00D+00
 Coeff-Com: -0.221D-01 0.311D-01 0.458D+00-0.190D+01 0.280D+01-0.307D+01
 Coeff-Com:  0.356D+01-0.305D+01 0.217D+01
 Coeff:     -0.221D-01 0.311D-01 0.458D+00-0.190D+01 0.280D+01-0.307D+01
 Coeff:      0.356D+01-0.305D+01 0.217D+01
 Gap=     0.362 Goal=   None    Shift=    0.000
 RMSDP=2.12D-05 MaxDP=2.07D-04 DE=-1.00D-07 OVMax= 2.15D-04

 Cycle  10  Pass 1  IDiag  3:
 E= 0.731298109410702     Delta-E=       -0.000000017315 Rises=F Damp=F
 DIIS: error= 9.44D-07 at cycle  10 NSaved=  10.
[...]
     18  0.331101D-01  0.126676D-01  0.162358D-01 -0.961156D-03  0.814462D-02
     19 -0.196608D-01  0.363759D-01 -0.177963D-02 -0.167777D-02 -0.976880D-03
     20  0.505592D-02 -0.507569D-01  0.431457D-02 -0.925118D-02 -0.368821D-01
     21 -0.820813D-03  0.107010D-01 -0.174036D-02  0.454828D-02  0.164862D-01
     22 -0.423511D-02  0.400559D-01 -0.257421D-02  0.470291D-02  0.203959D-01
     23  0.363920D-04 -0.273518D-05  0.248812D-05  0.000000D+00  0.908846D-05
     24  0.179170D-04  0.115507D-04  0.000000D+00  0.000000D+00  0.156573D-05
     25  0.256440D-04  0.538036D-05  0.280399D-05  0.000000D+00  0.850577D-05
     26  0.716900D-05  0.196663D-04  0.000000D+00  0.000000D+00  0.000000D+00
     27  0.910907D-05  0.258924D-04  0.193643D-05 -0.145591D-05 -0.777125D-05
     28 -0.261038D-05  0.160004D-04  0.000000D+00  0.000000D+00 -0.519886D-05
     29  0.208917D-04  0.174467D-04  0.189445D-05 -0.113394D-05 -0.368352D-05
     30  0.917228D-05  0.755463D-05  0.000000D+00  0.000000D+00 -0.111113D-05
     31  0.311967D-04 -0.205155D-04 -0.200740D-05 -0.167174D-05  0.175970D-04
     32  0.434913D-04 -0.123246D-04  0.000000D+00 -0.159652D-05  0.201502D-04
     33 -0.133713D-04 -0.575117D-04 -0.348690D-05  0.000000D+00  0.113662D-04
     34 -0.277661D-04 -0.860486D-05 -0.214357D-05  0.000000D+00  0.169362D-05
     35  0.000000D+00  0.131204D-04  0.491282D-05  0.124388D-05 -0.374475D-05
     36  0.133093D-04  0.251326D-04  0.687849D-05  0.000000D+00 -0.625361D-05
     37 -0.255799D-04 -0.113563D-04 -0.886899D-05  0.000000D+00  0.222639D-05
     38 -0.129654D-04  0.000000D+00 -0.690332D-05 -0.151599D-05  0.000000D+00
               11            12            13            14            15 
     11  0.556238D-01
     12 -0.163107D-01  0.538633D-01
     13  0.192045D-01  0.194827D-01  0.100825D+00
     14 -0.746039D-02 -0.754984D-02 -0.432641D-01  0.598862D-01
     15 -0.117441D-01 -0.119329D-01 -0.575606D-01 -0.166220D-01  0.741826D-01
     16 -0.704722D-02  0.117590D-02 -0.697134D-01  0.326343D-01  0.370790D-01
     17  0.676443D-02  0.403313D-03  0.146745D-01 -0.336663D-02 -0.113078D-01
     18 -0.555729D-02 -0.258732D-02 -0.113009D-01  0.303547D-02  0.826540D-02
     19 -0.120713D-02  0.218402D-02 -0.337356D-02  0.331163D-03  0.304241D-02
     20  0.203914D-01  0.164907D-01 -0.709862D-02 -0.101378D-02  0.811240D-02
     21 -0.961151D-02 -0.687464D-02  0.369174D-03  0.220285D-02 -0.257203D-02
     22 -0.107799D-01 -0.961601D-02  0.672945D-02 -0.118908D-02 -0.554037D-02
     23 -0.518728D-05 -0.802705D-05  0.232457D-04 -0.238819D-04 -0.114223D-04
     24  0.372829D-05 -0.829178D-05  0.219133D-04 -0.170004D-04  0.195158D-05
     25 -0.143278D-04  0.737785D-05  0.133902D-04 -0.985684D-05 -0.128865D-04
     26 -0.541226D-05  0.711311D-05  0.120577D-04 -0.297535D-05  0.000000D+00
     27  0.792800D-05  0.430397D-05  0.233460D-04 -0.277167D-05 -0.131307D-04
     28  0.754514D-05  0.000000D+00  0.000000D+00  0.828997D-05 -0.538758D-05
     29 -0.830248D-05  0.112388D-04  0.309647D-04 -0.150723D-04 -0.109286D-04
     30 -0.868534D-05  0.733563D-05  0.729004D-05 -0.401071D-05 -0.318544D-05
     31 -0.644839D-05 -0.892774D-05 -0.106758D-04  0.258660D-04 -0.314837D-05
     32 -0.118156D-04 -0.700950D-05  0.561370D-05 -0.491270D-04  0.405306D-04
     33 -0.218359D-05 -0.844493D-05 -0.434649D-04  0.620141D-05  0.301568D-04
     34 -0.205048D-05  0.000000D+00 -0.287086D-04  0.943233D-05  0.158491D-04
     35 -0.279296D-05  0.333324D-05 -0.129989D-04  0.161104D-04 -0.327815D-05
     36 -0.250214D-05  0.741647D-05  0.130231D-04  0.395521D-05 -0.118443D-04
     37 -0.104931D-05 -0.217261D-05 -0.287649D-04  0.106081D-04  0.133713D-04
     38  0.000000D+00  0.191063D-05 -0.274287D-05 -0.154710D-05  0.480507D-05
               16            17            18            19            20 
     16  0.127580D+00
     17 -0.696690D-01  0.100906D+00
     18  0.370473D-01 -0.575834D-01  0.741998D-01
     19  0.326217D-01 -0.433222D-01 -0.166164D-01  0.599387D-01
     20  0.593152D-02 -0.387434D-01  0.236924D-01  0.150510D-01  0.767925D-01
     21  0.114663D-02  0.195025D-01 -0.119345D-01 -0.756801D-02 -0.375044D-01
     22 -0.707815D-02  0.192409D-01 -0.117579D-01 -0.748298D-02 -0.392881D-01
     23 -0.524501D-04  0.211607D-04 -0.226684D-05 -0.187324D-04 -0.146658D-04
     24 -0.432430D-04  0.272720D-04 -0.126365D-04 -0.100312D-04 -0.641573D-05
     25 -0.191096D-04  0.000000D+00  0.385661D-05 -0.816504D-05 -0.101517D-04
     26 -0.990251D-05  0.548569D-05 -0.651306D-05  0.000000D+00 -0.190160D-05
     27 -0.492134D-05 -0.927279D-05  0.374844D-05 -0.163770D-05  0.333348D-05
     28  0.238362D-04 -0.174268D-04  0.254492D-05  0.101247D-04  0.289342D-05
     29 -0.326152D-04  0.837725D-05  0.000000D+00 -0.102739D-04 -0.348990D-05
     30 -0.385768D-05  0.000000D+00 -0.179834D-05  0.148849D-05 -0.392995D-05
     31 -0.177549D-04  0.383331D-04 -0.267613D-04 -0.472424D-05 -0.102310D-04
     32 -0.397437D-04  0.312307D-04 -0.174701D-04 -0.104405D-04 -0.116648D-04
     33  0.188139D-04  0.614932D-05  0.569368D-05 -0.234428D-04 -0.700935D-05
     34  0.328471D-04 -0.248934D-05 -0.414731D-04  0.468821D-04 -0.944038D-05
     35  0.391276D-04 -0.112524D-04  0.373743D-05  0.191318D-04 -0.524459D-05
     36  0.751243D-05 -0.222550D-05  0.495516D-05  0.626963D-05 -0.514754D-05
     37  0.389376D-04 -0.184324D-04 -0.274444D-05  0.145673D-04  0.181850D-05
     38  0.732248D-05 -0.940551D-05 -0.152671D-05  0.170512D-05  0.191554D-05
               21            22            23            24            25 
     21  0.538497D-01
     22 -0.163452D-01  0.556333D-01
     23  0.552421D-05  0.946506D-05  0.151659D-01
     24  0.194303D-05  0.457312D-05  0.290025D-02  0.988266D-02
     25  0.367294D-05  0.661401D-05  0.510151D-02 -0.441233D-02  0.889660D-02
     26  0.000000D+00  0.172207D-05 -0.716415D-02  0.257008D-02 -0.617229D-03
     27 -0.320956D-05  0.000000D+00 -0.126742D-01 -0.510274D-02 -0.179301D-02
     28 -0.154188D-05 -0.127564D-05 -0.549010D-02 -0.287222D-02  0.121094D-02
     29  0.000000D+00  0.320571D-05 -0.344901D-02  0.160010D-02 -0.527166D-02
     30  0.167419D-05  0.250418D-05  0.373512D-02  0.383062D-02 -0.226771D-02
     31  0.507754D-05  0.507908D-05 -0.118577D-01  0.391067D-03 -0.644028D-02
     32  0.437703D-05  0.739044D-05 -0.211894D-02 -0.515285D-02  0.111357D-02
     33  0.443798D-05  0.234714D-05  0.345276D-02 -0.377597D-02  0.525216D-02
     34  0.566915D-05  0.363821D-05  0.358874D-02  0.102693D-03  0.109570D-02
     35  0.485124D-05  0.000000D+00  0.565712D-02  0.548760D-02 -0.215969D-02
     36  0.000000D+00  0.427320D-05 -0.216233D-02  0.305983D-02 -0.542930D-02
     37  0.130175D-05 -0.281827D-05  0.548640D-02  0.618675D-03  0.305795D-02
     38 -0.283129D-05  0.000000D+00 -0.233305D-02 -0.180910D-02 -0.211655D-03
               26            27            28            29            30 
     26  0.911700D-02
     27  0.577848D-02  0.154247D-01
     28  0.382882D-02  0.542555D-02  0.711157D-02
     29 -0.222550D-03  0.545072D-02 -0.716756D-03  0.712141D-02
     30 -0.217221D-02 -0.454838D-02  0.969264D-03  0.953930D-03  0.647158D-02
     31  0.580850D-02  0.511357D-02  0.346144D-02  0.147842D-03 -0.150428D-02
     32 -0.192034D-02 -0.898094D-03  0.138288D-02 -0.386107D-02 -0.158011D-02
     33 -0.197657D-02  0.511714D-02  0.136830D-03  0.346777D-02 -0.151254D-02
     34 -0.239035D-02 -0.916280D-03 -0.387068D-02  0.136889D-02 -0.158551D-02
     35 -0.232920D-02 -0.126754D-01 -0.342511D-02 -0.551036D-02  0.373993D-02
     36 -0.207128D-03 -0.179202D-02 -0.526023D-02  0.120254D-02 -0.226567D-02
     37 -0.180977D-02 -0.510159D-02  0.160558D-02 -0.287562D-02  0.383154D-02
     38  0.312303D-03  0.578178D-02 -0.229544D-03  0.383727D-02 -0.217406D-02
               31            32            33            34            35 
     31  0.140308D-01
     32  0.430543D-02  0.671438D-02
     33 -0.106415D-01 -0.490199D-02  0.140380D-01
     34 -0.487300D-02 -0.210512D-02  0.426617D-02  0.672580D-02
     35  0.346422D-02  0.359879D-02 -0.118729D-01 -0.208674D-02  0.151807D-01
     36  0.526245D-02  0.111611D-02 -0.645220D-02  0.112893D-02  0.511239D-02
     37 -0.377704D-02  0.878624D-04  0.393718D-03 -0.517427D-02  0.289603D-02
     38 -0.197881D-02 -0.239482D-02  0.581446D-02 -0.195859D-02 -0.717230D-02
               36            37            38 
     36  0.888730D-02
     37 -0.440428D-02  0.988560D-02
     38 -0.629364D-03  0.258529D-02  0.912822D-02
 Leave Link  716 at Sun Nov 29 12:22:25 2015, MaxMem=    33554432 cpu:         0.0
 (Enter /home/Applications/g09/g09/l103.exe)

 GradGradGradGradGradGradGradGradGradGradGradGradGradGradGradGradGradGrad
 Berny optimization.
 Red2BG is reusing G-inverse.
 Internal  Forces:  Max     0.000398821 RMS     0.000087810
 Search for a local minimum.
 Step number   1 out of a maximum of    2
 All quantities printed in internal units (Hartrees-Bohrs-Radians)
 Second derivative matrix not updated -- analytic derivatives used.
 ITU=  0
     Eigenvalues ---    0.00899   0.01177   0.01843   0.02431   0.04717
     Eigenvalues ---    0.05312   0.06569   0.06790   0.07046   0.07709
     Eigenvalues ---    0.17799   0.24435   0.25294   0.31157   0.31857
     Eigenvalues ---    0.31925   0.32942   0.35137   0.39671   0.47717
     Eigenvalues ---    0.63824
 Angle between quadratic step and forces=  38.84 degrees.
 Linear search not attempted -- first point.
 Iteration  1 RMS(Cart)=  0.00068517 RMS(Int)=  0.00000104
 Iteration  2 RMS(Cart)=  0.00000080 RMS(Int)=  0.00000054
 ITry= 1 IFail=0 DXMaxC= 2.66D-03 DCOld= 1.00D+10 DXMaxT= 3.00D-01 DXLimC= 3.00D+00 Rises=F
 Variable       Old X    -DE/DX   Delta X   Delta X   Delta X     New X
                                 (Linear)    (Quad)   (Total)
    R1        2.56728   0.00021   0.00000   0.00086   0.00086   2.56814
    R2        2.71036  -0.00007   0.00000  -0.00033  -0.00033   2.71003
    R3        2.05316  -0.00009   0.00000  -0.00037  -0.00037   2.05279
    R4        2.59656  -0.00040   0.00000  -0.00207  -0.00207   2.59449
    R5        2.06595  -0.00004   0.00000  -0.00008  -0.00008   2.06587
    R6        2.59367   0.00009   0.00000   0.00083   0.00083   2.59450
    R7        2.56832  -0.00008   0.00000  -0.00017  -0.00017   2.56814
    R8        2.06596   0.00002   0.00000  -0.00009  -0.00009   2.06587
    R9        2.05277  -0.00002   0.00000   0.00002   0.00002   2.05279
    A1        1.85923  -0.00004   0.00000  -0.00034  -0.00034   1.85890
    A2        2.27020  -0.00004   0.00000  -0.00094  -0.00094   2.26925
    A3        2.15375   0.00008   0.00000   0.00128   0.00128   2.15504
    A4        1.92002  -0.00001   0.00000   0.00031   0.00030   1.92033
    A5        2.34416  -0.00011   0.00000  -0.00231  -0.00231   2.34185
    A6        2.01900   0.00011   0.00000   0.00201   0.00201   2.02101
    A7        1.86608   0.00008   0.00000   0.00025   0.00025   1.86633
    A8        1.92069  -0.00004   0.00000  -0.00036  -0.00036   1.92032
    A9        2.02082   0.00005   0.00000   0.00018   0.00018   2.02100
   A10        2.34167  -0.00001   0.00000   0.00018   0.00018   2.34186
   A11        1.85875   0.00001   0.00000   0.00015   0.00015   1.85890
   A12        2.15557  -0.00004   0.00000  -0.00054  -0.00054   2.15504
   A13        2.26886   0.00003   0.00000   0.00039   0.00039   2.26925
    D1        0.00091  -0.00004   0.00000  -0.00091  -0.00091   0.00000
    D2        3.14118   0.00001   0.00000   0.00042   0.00042  -3.14159
    D3       -3.14115  -0.00003   0.00000  -0.00044  -0.00044  -3.14159
    D4       -0.00088   0.00003   0.00000   0.00088   0.00088   0.00000
    D5       -0.00028   0.00001   0.00000   0.00028   0.00028   0.00000
    D6        3.14127   0.00001   0.00000   0.00032   0.00032  -3.14159
    D7       -3.14144   0.00000   0.00000  -0.00015  -0.00015   3.14159
    D8        0.00011  -0.00001   0.00000  -0.00011  -0.00011   0.00000
    D9       -0.00118   0.00006   0.00000   0.00118   0.00118   0.00000
   D10        3.14146   0.00001   0.00000   0.00014   0.00013   3.14159
   D11        0.00100  -0.00005   0.00000  -0.00100  -0.00100   0.00000
   D12        3.14159  -0.00001   0.00000   0.00001   0.00001   3.14159
   D13       -0.00045   0.00002   0.00000   0.00045   0.00045   0.00000
   D14        3.14119   0.00003   0.00000   0.00040   0.00040   3.14159
   D15       -3.14078  -0.00002   0.00000  -0.00081  -0.00081  -3.14159
   D16        0.00086  -0.00002   0.00000  -0.00086  -0.00086   0.00000
         Item               Value     Threshold  Converged?
 Maximum Force            0.000399     0.000450     YES
 RMS     Force            0.000088     0.000300     YES
 Maximum Displacement     0.002657     0.001800     NO 
 RMS     Displacement     0.000685     0.001200     YES
 Predicted change in Energy=-1.058611D-06
 GradGradGradGradGradGradGradGradGradGradGradGradGradGradGradGradGradGrad

 Leave Link  103 at Sun Nov 29 12:22:25 2015, MaxMem=    33554432 cpu:         0.0
 (Enter /home/Applications/g09/g09/l9999.exe)
 1\1\GINC-DUSTIN-DESKTOP\Freq\RAM1\ZDO\C4H4O1\DUSTIN\29-Nov-2015\0\\#P 
 Geom=AllCheck Guess=TCheck SCRF=Check GenChk RAM1/ZDO Freq\\AM1-Repara
 m Input\\0,1\C,0.9453784378,-0.7343245637,-0.014408974\C,-0.358622901,
 -1.1154111886,-0.0165481807\O,-1.1720574861,-0.008184685,0.0024399489\
 C,-0.3502385884,1.0909719709,0.018321231\C,0.9512919535,0.6997406801,0
 .0084885398\H,1.859529552,1.2956048185,0.0155491948\H,-0.853918159,2.0
 611544704,0.0345708362\H,-0.872220625,-2.0804076457,-0.0307350994\H,1.
 8499398163,-1.3360498568,-0.0263764967\\Version=ES64L-G09RevD.01\State
 =1-A\HF=0.7309431\RMSD=4.875e-10\RMSF=1.893e-04\ZeroPoint=0.0648972\Th
 ermal=0.0688471\Dipole=-0.2014083,0.0018107,0.0009019\DipoleDeriv=-0.5
 711485,0.0824457,0.0010152,0.3423387,-0.603064,-0.0021765,0.005405,-0.
 0013131,-0.5515763,0.2674847,-0.0011337,0.0000388,-0.3361999,-0.220650
 6,-0.0052674,-0.0050763,-0.0056639,0.1590118,-0.8854538,0.0058677,0.00
 14195,0.0000332,0.0806636,0.005265,0.0008504,0.005702,-0.2809814,0.279
 1993,-0.0096536,0.0002212,0.3351894,-0.2236222,-0.0063587,0.0055398,-0
 .0063054,0.1628267,-0.5801228,-0.0790595,-0.0015389,-0.3421384,-0.6096
 516,0.0005274,-0.0055864,-0.0004201,-0.5564966,0.4671211,0.0909875,0.0
 010321,0.2033385,0.3043362,-0.0005789,0.00281,-0.0002568,0.303812,0.27
 69254,-0.1914187,-0.0031428,-0.1941543,0.4846917,0.0044682,-0.0032072,
 0.0045033,0.2297766,0.2811449,0.1940785,0.0028943,0.1959179,0.4813601,
 0.0034262,0.0029176,0.0034217,0.2303647,0.4649013,-0.0921265,-0.001939
 9,-0.2044456,0.3059912,0.0006959,-0.0036659,0.000344,0.3032676\Polar=5
 7.0086354,-0.0060778,48.6163227,-0.1443434,0.626304,8.7961074\HyperPol
 ar=45.9096917,-0.5368164,-235.6817102,2.5603547,-0.1568161,-3.7566323,
 0.8273972,6.1059856,-0.0155218,-0.04346\PG=C01 [X(C4H4O1)]\NImag=0\\0.
 78769069,-0.08777330,0.56816669,-0.00320219,0.00700057,0.14177417,-0.3
 9904050,-0.06781454,-0.00011498,0.63159634,-0.13096732,-0.11993127,-0.
 00026094,0.20365707,0.60585505,-0.00113552,-0.00042075,-0.08024133,0.0
 0188237,0.00686554,0.13726151,-0.09964141,0.01339318,0.00050229,-0.149
 99190,0.07797359,0.00138659,0.49255877,0.05557465,0.00337958,-0.000337
 62,0.04044008,-0.13295567,-0.00119960,0.00095494,0.34458946,0.00117650
 ,-0.00027215,0.01730175,0.00079791,-0.00126466,-0.06290573,-0.00090450
 ,0.00423262,0.07714090,0.00135416,0.07799199,0.00127912,0.02580959,-0.
 01805466,-0.00028085,-0.15215055,-0.04151743,-0.00049272,0.62776095,0.
 02940480,-0.03040295,-0.00087233,0.01666748,-0.11067441,-0.00194572,-0
 .07931182,-0.13427161,-0.00097415,-0.20157612,0.61170418,0.00050978,-0
 .00098656,0.01827731,0.00026333,-0.00188414,0.01062130,-0.00109502,-0.
 00104359,-0.06282569,-0.00443862,0.00800892,0.13743055,-0.06588765,-0.
 03261064,-0.00054502,0.00042222,-0.02953539,-0.00042365,-0.10033158,-0
 .05496818,-0.00058441,-0.39616990,0.13286055,0.00297186,0.78790204,0.0
 3074730,-0.29177211,-0.00353657,-0.07810886,-0.02975452,-0.00055060,-0
 .01259346,0.00425929,-0.00015972,0.06950008,-0.12165007,-0.00084355,0.
 08679431,0.56725472,0.00045976,-0.00336256,-0.07581793,-0.00119273,-0.
 00066267,0.01826062,0.00008777,-0.00009071,0.01736061,0.00198118,-0.00
 100775,-0.08046628,-0.00034592,0.00655381,0.14186974,-0.00046529,-0.00
 381315,-0.00004847,0.00215036,-0.00192163,-0.00002922,-0.00045871,0.00
 593629,0.00010844,-0.02675078,-0.01227001,-0.00011300,-0.21121936,-0.1
 2079159,-0.00145061,0.23561609,-0.01624492,-0.01975694,-0.00034733,0.0
 0150213,-0.00377781,-0.00009213,0.00303271,0.00365544,-0.00002170,0.00
 365451,0.00519469,-0.00000526,-0.12416340,-0.10622889,-0.00080187,0.13
 234734,0.12051237,-0.00024430,-0.00037681,0.00463076,0.00002172,-0.000
 08513,0.00182364,0.00006295,-0.00002773,0.00455461,0.00014204,0.000039
 16,0.00477955,-0.00150553,-0.00081530,-0.03501911,0.00152854,0.0012571
 3,0.01947681,-0.00226460,-0.00072016,0.00000212,-0.00051528,-0.0050329
 0,-0.00007335,0.00524279,-0.01336601,-0.00021862,-0.08161462,0.1072449
 0,0.00178502,-0.01211924,0.02000628,0.00036203,-0.00027516,-0.00042732
 ,-0.00000693,0.09081836,-0.00048301,0.00204334,-0.00001605,-0.00537413
 ,0.00215808,-0.00000147,0.00176017,-0.04616699,-0.00077305,0.10613361,
 -0.21816211,-0.00314026,0.00503098,-0.00424510,-0.00017108,0.00118515,
 0.00119694,0.00001948,-0.10814791,0.26433617,0.00000937,-0.00001477,0.
 00335022,-0.00008496,0.00000421,0.00278789,0.00002757,-0.00074645,0.00
 241150,0.00175052,-0.00312884,-0.03241621,0.00013818,-0.00021892,0.005
 82116,0.00001857,0.00002410,-0.00024016,-0.00185629,0.00410195,0.01819
 554,-0.01233097,-0.01995247,-0.00026725,-0.08377592,-0.10861411,-0.001
 60839,0.00529887,0.01285057,0.00019533,-0.00039232,0.00508856,0.000086
 10,-0.00226400,0.00077777,0.00002733,-0.00002306,-0.00020686,-0.000003
 09,0.00074985,-0.00025518,-0.00000517,0.09302361,-0.00498934,-0.004036
 45,-0.00014207,-0.10748604,-0.21605416,-0.00267364,-0.00222846,-0.0461
 9698,-0.00076019,0.00541172,0.00205229,-0.00002044,0.00051088,0.002058
 43,-0.00002376,-0.00015228,-0.00020552,-0.00000148,0.00023787,-0.00095
 438,-0.00001844,0.10986818,0.26213619,-0.00001905,-0.00009297,0.005798
 02,-0.00160529,-0.00268333,-0.03236928,-0.00003559,-0.00078631,0.00239
 814,0.00008458,-0.00002743,0.00277289,0.00002573,-0.00002721,0.0033624
 6,-0.00000264,-0.00000116,-0.00007544,0.00000244,-0.00001674,0.0001663
 1,0.00156828,0.00361402,0.01818526,-0.20941895,0.12129786,0.00239437,-
 0.02664453,0.01249771,0.00028201,-0.00053954,-0.00590410,-0.00007785,0
 .00216334,0.00188841,0.00003047,-0.00033735,0.00366942,0.00007120,0.00
 142539,0.00050539,0.00000460,-0.00002052,0.00014964,0.00000221,-0.0002
 8434,-0.00117167,-0.00001844,0.23365610,0.12472313,-0.10769024,-0.0014
 8766,-0.00348327,0.00514141,0.00001852,-0.00298032,0.00370394,-0.00000
 708,-0.00154712,-0.00378428,-0.00008508,0.01609159,-0.01992510,-0.0004
 3346,-0.00051915,-0.00059107,-0.00000933,0.00020426,-0.00020769,-0.000
 00286,0.00044469,0.00119949,0.00002111,-0.13293349,0.12215199,0.002445
 54,-0.00147388,-0.03507319,0.00003214,-0.00002813,0.00476146,-0.000031
 99,-0.00000184,0.00456559,-0.00002516,-0.00009122,0.00182662,0.0002691
 8,-0.00040209,0.00462816,-0.00001150,-0.00001168,0.00006920,0.00000366
 ,-0.00000293,-0.00007689,0.00000680,0.00002588,-0.00023878,-0.00268866
 ,0.00198585,0.01953797\\-0.00037662,-0.00009294,-0.00008498,0.00062453
 ,-0.00026549,0.00014368,-0.00030159,0.00039016,-0.00012099,-0.00005951
 ,-0.00006646,0.00011604,0.00014357,0.00001220,-0.00001403,-0.00000341,
 0.00003868,-0.00000140,-0.00001970,-0.00002716,-0.00002297,-0.00011408
 ,0.00001207,-0.00001832,0.00010681,-0.00000107,0.00000297\\\@


 CURIOUSER AND CURIOUSER

                  -- ALICE, IN WONDERLAND
 Job cpu time:       0 days  0 hours  0 minutes  0.3 seconds.
 File lengths (MBytes):  RWF=      5 Int=      0 D2E=      0 Chk=      2 Scr=      1
 Normal termination of Gaussian 09 at Sun Nov 29 12:22:25 2015.
