 Entering Gaussian System, Link 0=g09
 Input=FuranAM1Best6.com
 Output=FuranAM1Best6.log
 Initial command:
 /home/Applications/g09/g09/l1.exe "/home/Applications/g09/scratch/Gau-4880.inp" -scrdir="/home/Applications/g09/scratch/"
 Entering Link 1 = /home/Applications/g09/g09/l1.exe PID=      4882.
  
 Copyright (c) 1988,1990,1992,1993,1995,1998,2003,2009,2013,
            Gaussian, Inc.  All Rights Reserved.
  
 This is part of the Gaussian(R) 09 program.  It is based on
 the Gaussian(R) 03 system (copyright 2003, Gaussian, Inc.),
 the Gaussian(R) 98 system (copyright 1998, Gaussian, Inc.),
 the Gaussian(R) 94 system (copyright 1995, Gaussian, Inc.),
 the Gaussian 92(TM) system (copyright 1992, Gaussian, Inc.),
 the Gaussian 90(TM) system (copyright 1990, Gaussian, Inc.),
 the Gaussian 88(TM) system (copyright 1988, Gaussian, Inc.),
 the Gaussian 86(TM) system (copyright 1986, Carnegie Mellon
 University), and the Gaussian 82(TM) system (copyright 1983,
 Carnegie Mellon University). Gaussian is a federally registered
 trademark of Gaussian, Inc.
  
 This software contains proprietary and confidential information,
 including trade secrets, belonging to Gaussian, Inc.
  
 This software is provided under written license and may be
 used, copied, transmitted, or stored only in accord with that
 written license.
  
 The following legend is applicable only to US Government
 contracts under FAR:
  
                    RESTRICTED RIGHTS LEGEND
  
 Use, reproduction and disclosure by the US Government is
 subject to restrictions as set forth in subparagraphs (a)
 and (c) of the Commercial Computer Software - Restricted
 Rights clause in FAR 52.227-19.
  
 Gaussian, Inc.
 340 Quinnipiac St., Bldg. 40, Wallingford CT 06492
  
  
 ---------------------------------------------------------------
 Warning -- This program may not be used in any manner that
 competes with the business of Gaussian, Inc. or will provide
 assistance to any competitor of Gaussian, Inc.  The licensee
 of this program is prohibited from giving any competitor of
 Gaussian, Inc. access to this program.  By using this program,
 the user acknowledges that Gaussian, Inc. is engaged in the
 business of creating and licensing software in the field of
 computational chemistry and represents and warrants to the
 licensee that it is not a competitor of Gaussian, Inc. and that
 it will not use this program in any manner prohibited above.
 ---------------------------------------------------------------
  

 Cite this work as:
 Gaussian 09, Revision D.01,
 M. J. Frisch, G. W. Trucks, H. B. Schlegel, G. E. Scuseria, 
 M. A. Robb, J. R. Cheeseman, G. Scalmani, V. Barone, B. Mennucci, 
 G. A. Petersson, H. Nakatsuji, M. Caricato, X. Li, H. P. Hratchian, 
 A. F. Izmaylov, J. Bloino, G. Zheng, J. L. Sonnenberg, M. Hada, 
 M. Ehara, K. Toyota, R. Fukuda, J. Hasegawa, M. Ishida, T. Nakajima, 
 Y. Honda, O. Kitao, H. Nakai, T. Vreven, J. A. Montgomery, Jr., 
 J. E. Peralta, F. Ogliaro, M. Bearpark, J. J. Heyd, E. Brothers, 
 K. N. Kudin, V. N. Staroverov, T. Keith, R. Kobayashi, J. Normand, 
 K. Raghavachari, A. Rendell, J. C. Burant, S. S. Iyengar, J. Tomasi, 
 M. Cossi, N. Rega, J. M. Millam, M. Klene, J. E. Knox, J. B. Cross, 
 V. Bakken, C. Adamo, J. Jaramillo, R. Gomperts, R. E. Stratmann, 
 O. Yazyev, A. J. Austin, R. Cammi, C. Pomelli, J. W. Ochterski, 
 R. L. Martin, K. Morokuma, V. G. Zakrzewski, G. A. Voth, 
 P. Salvador, J. J. Dannenberg, S. Dapprich, A. D. Daniels, 
 O. Farkas, J. B. Foresman, J. V. Ortiz, J. Cioslowski, 
 and D. J. Fox, Gaussian, Inc., Wallingford CT, 2013.
 
 ******************************************
 Gaussian 09:  ES64L-G09RevD.01 24-Apr-2013
                23-Nov-2015 
 ******************************************
 -----------------------
 #P AM1(Input,print) Opt
 -----------------------
 1/14=-1,18=20,19=15,26=1,38=1/1,3;
 2/9=110,12=2,17=6,18=5,40=1/2;
 3/5=2,16=1,25=1,41=700000,71=1,135=100,136=1/1,2,3;
 4/35=1/1;
 5/5=2,35=1,38=5/2;
 6/7=2,8=2,9=2,10=2,28=1/1;
 7//1,2,3,16;
 1/14=-1,18=20,19=15,26=1/3(2);
 2/9=110/2;
 99//99;
 2/9=110/2;
 3/5=2,16=1,25=1,41=700000,71=1,135=20,136=1/1,2,3;
 4/5=5,16=3,35=1/1;
 5/5=2,35=1,38=5/2;
 7//1,2,3,16;
 1/14=-1,18=20,19=15,26=1/3(-5);
 2/9=110/2;
 6/7=2,8=2,9=2,10=2,19=2,28=1/1;
 99/9=1/99;
 Leave Link    1 at Mon Nov 23 13:23:31 2015, MaxMem=           0 cpu:         0.0
 (Enter /home/Applications/g09/g09/l101.exe)
 -----------------
 AM1-Reparam Input
 -----------------
 Symbolic Z-matrix:
 Charge =  0 Multiplicity = 1
 6                     0.97357  -0.66914  -0.03238 
 6                    -0.38155  -1.1062    0.01669 
 8                    -1.1698    0.04239   0.03209 
 6                    -0.37562   1.11246  -0.0029 
 6                     0.98702   0.73585  -0.04012 
 1                     1.83137   1.40501  -0.01452 
 1                    -0.85829   2.01406  -0.00211 
 1                    -0.8714   -2.04628   0.01495 
 1                     1.76375  -1.37792  -0.00379 
 
 NAtoms=      9 NQM=        9 NQMF=       0 NMMI=      0 NMMIF=      0
                NMic=       0 NMicF=      0.
                    Isotopes and Nuclear Properties:
 (Nuclear quadrupole moments (NQMom) in fm**2, nuclear magnetic moments (NMagM)
  in nuclear magnetons)

  Atom         1           2           3           4           5           6           7           8           9
 IAtWgt=          12          12          16          12          12           1           1           1           1
 AtmWgt=  12.0000000  12.0000000  15.9949146  12.0000000  12.0000000   1.0078250   1.0078250   1.0078250   1.0078250
 NucSpn=           0           0           0           0           0           1           1           1           1
 AtZEff=   0.0000000   0.0000000   0.0000000   0.0000000   0.0000000   0.0000000   0.0000000   0.0000000   0.0000000
 NQMom=    0.0000000   0.0000000   0.0000000   0.0000000   0.0000000   0.0000000   0.0000000   0.0000000   0.0000000
 NMagM=    0.0000000   0.0000000   0.0000000   0.0000000   0.0000000   2.7928460   2.7928460   2.7928460   2.7928460
 AtZNuc=   6.0000000   6.0000000   8.0000000   6.0000000   6.0000000   1.0000000   1.0000000   1.0000000   1.0000000
 Leave Link  101 at Mon Nov 23 13:23:31 2015, MaxMem=    33554432 cpu:         0.0
 (Enter /home/Applications/g09/g09/l103.exe)

 GradGradGradGradGradGradGradGradGradGradGradGradGradGradGradGradGradGrad
 Berny optimization.
 Initialization pass.
                           ----------------------------
                           !    Initial Parameters    !
                           ! (Angstroms and Degrees)  !
 --------------------------                            --------------------------
 ! Name  Definition              Value          Derivative Info.                !
 --------------------------------------------------------------------------------
 ! R1    R(1,2)                  1.4247         estimate D2E/DX2                !
 ! R2    R(1,5)                  1.4051         estimate D2E/DX2                !
 ! R3    R(1,9)                  1.0619         estimate D2E/DX2                !
 ! R4    R(2,3)                  1.3931         estimate D2E/DX2                !
 ! R5    R(2,8)                  1.06           estimate D2E/DX2                !
 ! R6    R(3,4)                  1.333          estimate D2E/DX2                !
 ! R7    R(4,5)                  1.4142         estimate D2E/DX2                !
 ! R8    R(4,7)                  1.0227         estimate D2E/DX2                !
 ! R9    R(5,6)                  1.0777         estimate D2E/DX2                !
 ! A1    A(2,1,5)              108.4241         estimate D2E/DX2                !
 ! A2    A(2,1,9)              120.139          estimate D2E/DX2                !
 ! A3    A(5,1,9)              131.3357         estimate D2E/DX2                !
 ! A4    A(1,2,3)              106.597          estimate D2E/DX2                !
 ! A5    A(1,2,8)              135.3596         estimate D2E/DX2                !
 ! A6    A(3,2,8)              118.0152         estimate D2E/DX2                !
 ! A7    A(2,3,4)              108.9315         estimate D2E/DX2                !
 ! A8    A(3,4,5)              111.1587         estimate D2E/DX2                !
 ! A9    A(3,4,7)              115.2455         estimate D2E/DX2                !
 ! A10   A(5,4,7)              133.595          estimate D2E/DX2                !
 ! A11   A(1,5,4)              104.8877         estimate D2E/DX2                !
 ! A12   A(1,5,6)              128.9226         estimate D2E/DX2                !
 ! A13   A(4,5,6)              126.0815         estimate D2E/DX2                !
 ! D1    D(5,1,2,3)              0.2516         estimate D2E/DX2                !
 ! D2    D(5,1,2,8)            178.1911         estimate D2E/DX2                !
 ! D3    D(9,1,2,3)            176.9948         estimate D2E/DX2                !
 ! D4    D(9,1,2,8)             -5.0657         estimate D2E/DX2                !
 ! D5    D(2,1,5,4)             -0.3304         estimate D2E/DX2                !
 ! D6    D(2,1,5,6)            176.0199         estimate D2E/DX2                !
 ! D7    D(9,1,5,4)           -176.5787         estimate D2E/DX2                !
 ! D8    D(9,1,5,6)             -0.2283         estimate D2E/DX2                !
 ! D9    D(1,2,3,4)             -0.0628         estimate D2E/DX2                !
 ! D10   D(8,2,3,4)           -178.4229         estimate D2E/DX2                !
 ! D11   D(2,3,4,5)             -0.1509         estimate D2E/DX2                !
 ! D12   D(2,3,4,7)            179.5728         estimate D2E/DX2                !
 ! D13   D(3,4,5,1)              0.3016         estimate D2E/DX2                !
 ! D14   D(3,4,5,6)           -176.1852         estimate D2E/DX2                !
 ! D15   D(7,4,5,1)           -179.3533         estimate D2E/DX2                !
 ! D16   D(7,4,5,6)              4.1599         estimate D2E/DX2                !
 --------------------------------------------------------------------------------
 Trust Radius=3.00D-01 FncErr=1.00D-07 GrdErr=1.00D-07
 Number of steps in this run=     48 maximum allowed number of steps=    100.
 GradGradGradGradGradGradGradGradGradGradGradGradGradGradGradGradGradGrad

 Leave Link  103 at Mon Nov 23 13:23:31 2015, MaxMem=    33554432 cpu:         0.0
 (Enter /home/Applications/g09/g09/l202.exe)
                          Input orientation:                          
 ---------------------------------------------------------------------
 Center     Atomic      Atomic             Coordinates (Angstroms)
 Number     Number       Type             X           Y           Z
 ---------------------------------------------------------------------
      1          6           0        0.973574   -0.669136   -0.032377
      2          6           0       -0.381545   -1.106197    0.016689
      3          8           0       -1.169801    0.042387    0.032093
      4          6           0       -0.375621    1.112463   -0.002903
      5          6           0        0.987021    0.735845   -0.040124
      6          1           0        1.831365    1.405008   -0.014523
      7          1           0       -0.858285    2.014057   -0.002106
      8          1           0       -0.871395   -2.046275    0.014953
      9          1           0        1.763749   -1.377915   -0.003790
 ---------------------------------------------------------------------
                    Distance matrix (angstroms):
                    1          2          3          4          5
     1  C    0.000000
     2  C    1.424703   0.000000
     3  O    2.259309   1.393137   0.000000
     4  C    2.235015   2.218754   1.333045   0.000000
     5  C    1.405067   2.295500   2.266711   1.414221   0.000000
     6  H    2.244593   3.347252   3.296347   2.226321   1.077660
     7  H    3.249023   3.156520   1.996420   1.022662   2.245089
     8  H    2.302751   1.060048   2.109940   3.197458   3.346182
     9  H    1.061867   2.162530   3.259488   3.283122   2.252245
                    6          7          8          9
     6  H    0.000000
     7  H    2.757773   0.000000
     8  H    4.383735   4.060389   0.000000
     9  H    2.783765   4.287253   2.718647   0.000000
 Stoichiometry    C4H4O
 Framework group  C1[X(C4H4O)]
 Deg. of freedom    21
 Full point group                 C1      NOp   1
 Largest Abelian subgroup         C1      NOp   1
 Largest concise Abelian subgroup C1      NOp   1
                         Standard orientation:                         
 ---------------------------------------------------------------------
 Center     Atomic      Atomic             Coordinates (Angstroms)
 Number     Number       Type             X           Y           Z
 ---------------------------------------------------------------------
      1          6           0        0.294965    1.163319   -0.009451
      2          6           0        1.187028    0.052533    0.003040
      3          8           0        0.395229   -1.093711    0.006031
      4          6           0       -0.888038   -0.732925   -0.002387
      5          6           0       -1.022470    0.674880   -0.007987
      6          1           0       -1.948190    1.224249    0.042891
      7          1           0       -1.558245   -1.505343   -0.007936
      8          1           0        2.239828   -0.069612   -0.016850
      9          1           0        0.675867    2.153550    0.034359
 ---------------------------------------------------------------------
 Rotational constants (GHZ):      9.4364601      8.9537864      4.5948520
 Leave Link  202 at Mon Nov 23 13:23:31 2015, MaxMem=    33554432 cpu:         0.0
 (Enter /home/Applications/g09/g09/l301.exe)

 Semi-emprical parameters in input format:
 Method=8 CoreType=1 PeptideFC=0.0166290000 RIJScale=0.6119410000
 ****
 H       
 PQN=1 NValence=1 F0ss=0.4150770000 ZetaOverlap=1.0810580000 U=-0.4286880000
 Beta=-0.2869890000 CoreKO=1.2114800000 KON=0,0,0,1.1025190000 KON=1,0,1,1.1074920000
 KON=0,1,1,1.0916540000 KON=2,1,1,1.0589200000 EISol=-0.4188110042 EHeat=0.0830298228
 Alpha=1.5030030000
 GCore=0.0071120000,1.1207970000,2.7005670000
 GCore=0.0003230000,1.4222460000,3.4015070000
 GCore=-0.0013380000,0.4405990000,4.4481290000
 ****
 C       
 PQN=2,2 NValence=4 F0ss=0.4202500000 F0sp=0.4263690000 F0pp=0.3424460000 F2pp=0.1977130000
 G1sp=0.2746580000
 ZetaOverlap=1.7498310000,1.3881390000
 U=-1.7944250000,-1.4545000000
 Beta=-0.5214990000,-0.3746580000 DDN=0,1,0.8234340000 DDN=1,1,0.7559950000
 CoreKO=1.2002200000 KON=0,0,0,1.1694410000 KON=1,0,1,0.9096420000 KON=0,1,1,0.9370920000
 KON=2,1,1,0.5201690000 EISol=-4.4398989268 EHeat=0.2723305520 Alpha=1.3947510000
 DipHyp=1.6467732542
 GCore=0.0008780000,1.2683970000,2.4090670000
 GCore=0.0034720000,1.4096270000,3.6574610000
 GCore=-0.0014060000,1.4542400000,3.3154880000
 GCore=-0.0001000000,1.4766960000,5.0661660000
 ****
 O       
 PQN=2,2 NValence=6 F0ss=0.5672460000 F0sp=0.5681160000 F0pp=0.4898210000 F2pp=0.2703590000
 G1sp=0.4169050000
 ZetaOverlap=2.7263600000,1.8505270000
 U=-3.5241930000,-3.0238760000
 Beta=-0.9772650000,-1.1886600000 DDN=0,1,0.5807610000 DDN=1,1,0.4521100000
 CoreKO=0.9925760000 KON=0,0,0,0.8355350000 KON=1,0,1,0.5454830000 KON=0,1,1,0.8378550000
 KON=2,1,1,0.5017630000 EISol=-11.6164441184 EHeat=0.0949133088 Alpha=2.2627970000
 DipHyp=1.1614551766
 GCore=0.0225710000,1.2849200000,1.7519400000
 GCore=0.0054870000,1.7991710000,2.8334770000
 ****
 
 Standard basis: VSTO-6G (5D, 7F)
 Ernie: Thresh=  0.10000D-02 Tol=  0.10000D-05 Strict=F.
  NNHCO=     0 NNPyr=     0 NCTC=     0               EPep=         0.000000000
    EC=        66.434421874  ECS=         1.760832935   EG=         0.419486625
   EHC=         0.000000000  EAt=       -31.051283842  AtH=         1.516354808
 EPDDG=         0.000000000  ECC=        68.614741434 EAtT=        32.567638650
 There are    24 symmetry adapted cartesian basis functions of A   symmetry.
 There are    24 symmetry adapted basis functions of A   symmetry.
    24 basis functions,   144 primitive gaussians,    24 cartesian basis functions
    13 alpha electrons       13 beta electrons
       nuclear repulsion energy       101.1823800847 Hartrees.
 IExCor=    0 DFT=F Ex=HF Corr=None ExCW=0 ScaHFX=  1.000000
 ScaDFX=  1.000000  1.000000  1.000000  1.000000 ScalE2=  1.000000  1.000000
 IRadAn=      0 IRanWt=     -1 IRanGd=            0 ICorTp=0 IEmpDi=  4
 Integral buffers will be    131072 words long.
 Regular integral format.
 Two-electron integral symmetry is turned off.
 Leave Link  301 at Mon Nov 23 13:23:31 2015, MaxMem=    33554432 cpu:         0.0
 (Enter /home/Applications/g09/g09/l302.exe)
 Do NDO integrals.
 NPDir=0 NMtPBC=     1 NCelOv=     1 NCel=       1 NClECP=     1 NCelD=      1
         NCelK=      1 NCelE2=     1 NClLst=     1 CellRange=     0.0.
 One-electron integrals computed using PRISM.
 NBasis=    24 RedAO= F EigKep=  0.00D+00  NBF=    24
 NBsUse=    24 1.00D-04 EigRej=  0.00D+00 NBFU=    24
 Leave Link  302 at Mon Nov 23 13:23:31 2015, MaxMem=    33554432 cpu:         0.0
 (Enter /home/Applications/g09/g09/l303.exe)
 DipDrv:  MaxL=1.
 Leave Link  303 at Mon Nov 23 13:23:31 2015, MaxMem=    33554432 cpu:         0.0
 (Enter /home/Applications/g09/g09/l401.exe)
 Simple Huckel Guess.
 JPrj=0 DoOrth=F DoCkMO=F.
 Leave Link  401 at Mon Nov 23 13:23:31 2015, MaxMem=    33554432 cpu:         0.0
 (Enter /home/Applications/g09/g09/l502.exe)
 Closed shell SCF:
 Using DIIS extrapolation, IDIIS=  1040.
 Overlap will be assumed to be unity.
 Two-electron integral symmetry not used.
 Keep J ints in memory in canonical form, NReq=888082.
 IVT=       79475 IEndB=       79475 NGot=    33554432 MDV=    33473473
 LenX=    33473473 LenY=    33472456
 Requested convergence on RMS density matrix=1.00D-08 within 128 cycles.
 Requested convergence on MAX density matrix=1.00D-06.
 Requested convergence on             energy=1.00D-06.
 No special actions if energy rises.
 FoFCou: FMM=F IPFlag=           0 FMFlag=           0 FMFlg1=           0
         NFxFlg=           0 DoJE=F BraDBF=F KetDBF=F FulRan=T
         wScrn=  0.000000 ICntrl=     600 IOpCl=  2 I1Cent=           0 NGrid=           0
         NMat0=    1 NMatS0=     54 NMatT0=    0 NMatD0=    1 NMtDS0=    0 NMtDT0=    0
 Symmetry not used in FoFCou.

 Cycle   1  Pass 1  IDiag  1:
 E= -2.05245138792439    
 DIIS: error= 2.74D-02 at cycle   1 NSaved=   1.
 NSaved= 1 IEnMin= 1 EnMin= -2.05245138792439     IErMin= 1 ErrMin= 2.74D-02
 ErrMax= 2.74D-02  0.00D+00 EMaxC= 1.00D-01 BMatC= 5.59D-02 BMatP= 5.59D-02
 IDIUse=3 WtCom= 7.26D-01 WtEn= 2.74D-01
 Coeff-Com:  0.100D+01
 Coeff-En:   0.100D+01
 Coeff:      0.100D+01
 GapD=    2.000 DampG=2.000 DampE=0.500 DampFc=1.0000 IDamp=-1.
 RMSDP=1.37D-02 MaxDP=6.85D-02              OVMax= 0.00D+00

 Cycle   2  Pass 1  IDiag  1:
 E= -2.18830319821846     Delta-E=       -0.135851810294 Rises=F Damp=F
 DIIS: error= 1.27D-02 at cycle   2 NSaved=   2.
 NSaved= 2 IEnMin= 2 EnMin= -2.18830319821846     IErMin= 2 ErrMin= 1.27D-02
 ErrMax= 1.27D-02  0.00D+00 EMaxC= 1.00D-01 BMatC= 5.14D-03 BMatP= 5.59D-02
 IDIUse=3 WtCom= 8.73D-01 WtEn= 1.27D-01
 Coeff-Com: -0.316D+00 0.132D+01
 Coeff-En:   0.000D+00 0.100D+01
 Coeff:     -0.276D+00 0.128D+01
 RMSDP=6.17D-03 MaxDP=4.16D-02 DE=-1.36D-01 OVMax= 0.00D+00

 Cycle   3  Pass 1  IDiag  3:
 E= -2.20669787231719     Delta-E=       -0.018394674099 Rises=F Damp=F
 DIIS: error= 3.65D-03 at cycle   3 NSaved=   3.
 NSaved= 3 IEnMin= 3 EnMin= -2.20669787231719     IErMin= 3 ErrMin= 3.65D-03
 ErrMax= 3.65D-03  0.00D+00 EMaxC= 1.00D-01 BMatC= 4.38D-04 BMatP= 5.14D-03
 IDIUse=3 WtCom= 9.64D-01 WtEn= 3.65D-02
 Coeff-Com:  0.928D-01-0.592D+00 0.150D+01
 Coeff-En:   0.000D+00 0.000D+00 0.100D+01
 Coeff:      0.894D-01-0.571D+00 0.148D+01
 Gap=     0.493 Goal=   None    Shift=    0.000
 RMSDP=2.61D-03 MaxDP=1.95D-02 DE=-1.84D-02 OVMax= 2.32D-02

 Cycle   4  Pass 1  IDiag  3:
 E= -2.20891921270587     Delta-E=       -0.002221340389 Rises=F Damp=F
 DIIS: error= 8.79D-04 at cycle   4 NSaved=   4.
 NSaved= 4 IEnMin= 4 EnMin= -2.20891921270587     IErMin= 4 ErrMin= 8.79D-04
 ErrMax= 8.79D-04  0.00D+00 EMaxC= 1.00D-01 BMatC= 3.22D-05 BMatP= 4.38D-04
 IDIUse=3 WtCom= 9.91D-01 WtEn= 8.79D-03
 Coeff-Com: -0.152D-01 0.127D+00-0.554D+00 0.144D+01
 Coeff-En:   0.000D+00 0.000D+00 0.000D+00 0.100D+01
 Coeff:     -0.151D-01 0.125D+00-0.549D+00 0.144D+01
 Gap=     0.493 Goal=   None    Shift=    0.000
 RMSDP=8.20D-04 MaxDP=4.94D-03 DE=-2.22D-03 OVMax= 6.94D-03

 Cycle   5  Pass 1  IDiag  3:
 E= -2.20910381441306     Delta-E=       -0.000184601707 Rises=F Damp=F
 DIIS: error= 2.91D-04 at cycle   5 NSaved=   5.
 NSaved= 5 IEnMin= 5 EnMin= -2.20910381441306     IErMin= 5 ErrMin= 2.91D-04
 ErrMax= 2.91D-04  0.00D+00 EMaxC= 1.00D-01 BMatC= 3.38D-06 BMatP= 3.22D-05
 IDIUse=3 WtCom= 9.97D-01 WtEn= 2.91D-03
 Coeff-Com: -0.131D-02-0.155D-01 0.189D+00-0.853D+00 0.168D+01
 Coeff-En:   0.000D+00 0.000D+00 0.000D+00 0.000D+00 0.100D+01
 Coeff:     -0.131D-02-0.154D-01 0.188D+00-0.850D+00 0.168D+01
 Gap=     0.493 Goal=   None    Shift=    0.000
 RMSDP=2.81D-04 MaxDP=1.63D-03 DE=-1.85D-04 OVMax= 2.34D-03

 Cycle   6  Pass 1  IDiag  3:
 E= -2.20912329351738     Delta-E=       -0.000019479104 Rises=F Damp=F
 DIIS: error= 8.58D-05 at cycle   6 NSaved=   6.
 NSaved= 6 IEnMin= 6 EnMin= -2.20912329351738     IErMin= 6 ErrMin= 8.58D-05
 ErrMax= 8.58D-05  0.00D+00 EMaxC= 1.00D-01 BMatC= 1.92D-07 BMatP= 3.38D-06
 IDIUse=1 WtCom= 1.00D+00 WtEn= 0.00D+00
 Coeff-Com:  0.154D-02-0.231D-02-0.378D-01 0.256D+00-0.757D+00 0.154D+01
 Coeff:      0.154D-02-0.231D-02-0.378D-01 0.256D+00-0.757D+00 0.154D+01
 Gap=     0.493 Goal=   None    Shift=    0.000
 RMSDP=6.83D-05 MaxDP=5.42D-04 DE=-1.95D-05 OVMax= 4.27D-04

 Cycle   7  Pass 1  IDiag  3:
 E= -2.20912430495750     Delta-E=       -0.000001011440 Rises=F Damp=F
 DIIS: error= 1.20D-05 at cycle   7 NSaved=   7.
 NSaved= 7 IEnMin= 7 EnMin= -2.20912430495750     IErMin= 7 ErrMin= 1.20D-05
 ErrMax= 1.20D-05  0.00D+00 EMaxC= 1.00D-01 BMatC= 3.56D-09 BMatP= 1.92D-07
 IDIUse=1 WtCom= 1.00D+00 WtEn= 0.00D+00
 Coeff-Com: -0.548D-03 0.996D-03 0.120D-01-0.869D-01 0.271D+00-0.608D+00
 Coeff-Com:  0.141D+01
 Coeff:     -0.548D-03 0.996D-03 0.120D-01-0.869D-01 0.271D+00-0.608D+00
 Coeff:      0.141D+01
 Gap=     0.493 Goal=   None    Shift=    0.000
 RMSDP=7.02D-06 MaxDP=6.19D-05 DE=-1.01D-06 OVMax= 4.94D-05

 Cycle   8  Pass 1  IDiag  3:
 E= -2.20912432363383     Delta-E=       -0.000000018676 Rises=F Damp=F
 DIIS: error= 4.28D-06 at cycle   8 NSaved=   8.
 NSaved= 8 IEnMin= 8 EnMin= -2.20912432363383     IErMin= 8 ErrMin= 4.28D-06
 ErrMax= 4.28D-06  0.00D+00 EMaxC= 1.00D-01 BMatC= 7.27D-10 BMatP= 3.56D-09
 IDIUse=1 WtCom= 1.00D+00 WtEn= 0.00D+00
 Coeff-Com:  0.385D-03-0.831D-03-0.736D-02 0.570D-01-0.185D+00 0.434D+00
 Coeff-Com: -0.132D+01 0.202D+01
 Coeff:      0.385D-03-0.831D-03-0.736D-02 0.570D-01-0.185D+00 0.434D+00
 Coeff:     -0.132D+01 0.202D+01
 Gap=     0.493 Goal=   None    Shift=    0.000
 RMSDP=4.89D-06 MaxDP=4.29D-05 DE=-1.87D-08 OVMax= 3.92D-05

 Cycle   9  Pass 1  IDiag  3:
 E= -2.20912432929114     Delta-E=       -0.000000005657 Rises=F Damp=F
 DIIS: error= 1.85D-06 at cycle   9 NSaved=   9.
 NSaved= 9 IEnMin= 9 EnMin= -2.20912432929114     IErMin= 9 ErrMin= 1.85D-06
 ErrMax= 1.85D-06  0.00D+00 EMaxC= 1.00D-01 BMatC= 9.64D-11 BMatP= 7.27D-10
 IDIUse=1 WtCom= 1.00D+00 WtEn= 0.00D+00
 Coeff-Com: -0.131D-03 0.306D-03 0.240D-02-0.195D-01 0.669D-01-0.164D+00
 Coeff-Com:  0.592D+00-0.134D+01 0.186D+01
 Coeff:     -0.131D-03 0.306D-03 0.240D-02-0.195D-01 0.669D-01-0.164D+00
 Coeff:      0.592D+00-0.134D+01 0.186D+01
 Gap=     0.493 Goal=   None    Shift=    0.000
 RMSDP=2.36D-06 MaxDP=1.84D-05 DE=-5.66D-09 OVMax= 1.71D-05

 Cycle  10  Pass 1  IDiag  3:
 E= -2.20912433010599     Delta-E=       -0.000000000815 Rises=F Damp=F
 DIIS: error= 2.59D-07 at cycle  10 NSaved=  10.
 NSaved=10 IEnMin=10 EnMin= -2.20912433010599     IErMin=10 ErrMin= 2.59D-07
 ErrMax= 2.59D-07  0.00D+00 EMaxC= 1.00D-01 BMatC= 2.41D-12 BMatP= 9.64D-11
 IDIUse=1 WtCom= 1.00D+00 WtEn= 0.00D+00
 Coeff-Com:  0.103D-04-0.910D-05-0.353D-03 0.251D-02-0.909D-02 0.232D-01
 Coeff-Com: -0.974D-01 0.265D+00-0.514D+00 0.133D+01
 Coeff:      0.103D-04-0.910D-05-0.353D-03 0.251D-02-0.909D-02 0.232D-01
 Coeff:     -0.974D-01 0.265D+00-0.514D+00 0.133D+01
 Gap=     0.493 Goal=   None    Shift=    0.000
 RMSDP=2.71D-07 MaxDP=2.34D-06 DE=-8.15D-10 OVMax= 2.28D-06

 Cycle  11  Pass 1  IDiag  3:
 E= -2.20912433011958     Delta-E=       -0.000000000014 Rises=F Damp=F
 DIIS: error= 4.19D-08 at cycle  11 NSaved=  11.
 NSaved=11 IEnMin=11 EnMin= -2.20912433011958     IErMin=11 ErrMin= 4.19D-08
 ErrMax= 4.19D-08  0.00D+00 EMaxC= 1.00D-01 BMatC= 7.06D-14 BMatP= 2.41D-12
 IDIUse=1 WtCom= 1.00D+00 WtEn= 0.00D+00
 Coeff-Com: -0.532D-07-0.427D-05 0.494D-04-0.300D-03 0.121D-02-0.325D-02
 Coeff-Com:  0.160D-01-0.493D-01 0.112D+00-0.423D+00 0.135D+01
 Coeff:     -0.532D-07-0.427D-05 0.494D-04-0.300D-03 0.121D-02-0.325D-02
 Coeff:      0.160D-01-0.493D-01 0.112D+00-0.423D+00 0.135D+01
 Gap=     0.493 Goal=   None    Shift=    0.000
 RMSDP=3.34D-08 MaxDP=2.00D-07 DE=-1.36D-11 OVMax= 2.48D-07

 Cycle  12  Pass 1  IDiag  3:
 E= -2.20912433011971     Delta-E=        0.000000000000 Rises=F Damp=F
 DIIS: error= 1.11D-08 at cycle  12 NSaved=  12.
 NSaved=12 IEnMin=12 EnMin= -2.20912433011971     IErMin=12 ErrMin= 1.11D-08
 ErrMax= 1.11D-08  0.00D+00 EMaxC= 1.00D-01 BMatC= 2.64D-15 BMatP= 7.06D-14
 IDIUse=1 WtCom= 1.00D+00 WtEn= 0.00D+00
 Coeff-Com:  0.125D-06 0.120D-05-0.189D-04 0.119D-03-0.478D-03 0.127D-02
 Coeff-Com: -0.598D-02 0.178D-01-0.401D-01 0.159D+00-0.599D+00 0.147D+01
 Coeff:      0.125D-06 0.120D-05-0.189D-04 0.119D-03-0.478D-03 0.127D-02
 Coeff:     -0.598D-02 0.178D-01-0.401D-01 0.159D+00-0.599D+00 0.147D+01
 Gap=     0.493 Goal=   None    Shift=    0.000
 RMSDP=6.69D-09 MaxDP=4.44D-08 DE=-1.28D-13 OVMax= 4.35D-08

 Cycle  13  Pass 2  IDiag  1:
 SCF Done:  E(RAM1) =  -2.20912433012     A.U. after   13 cycles
            NFock= 12  Conv=0.67D-08     -V/T= 0.8786
 KE=-1.819232358426D+01 PE=-1.695472600617D+02 EE= 8.434807923114D+01
 Leave Link  502 at Mon Nov 23 13:23:31 2015, MaxMem=    33554432 cpu:         0.0
 (Enter /home/Applications/g09/g09/l601.exe)
 Copying SCF densities to generalized density rwf, IOpCl= 0 IROHF=0.

 **********************************************************************

            Population analysis using the SCF density.

 **********************************************************************

 Orbital symmetries:
       Occupied  (A) (A) (A) (A) (A) (A) (A) (A) (A) (A) (A) (A)
                 (A)
       Virtual   (A) (A) (A) (A) (A) (A) (A) (A) (A) (A) (A)
 The electronic state is 1-A.
 Alpha  occ. eigenvalues --   -1.54294  -1.15148  -1.09503  -0.85774  -0.83518
 Alpha  occ. eigenvalues --   -0.78532  -0.74078  -0.49852  -0.46026  -0.42190
 Alpha  occ. eigenvalues --   -0.41413  -0.39726  -0.32116
 Alpha virt. eigenvalues --    0.17183   0.18461   0.27820   0.29869   0.30047
 Alpha virt. eigenvalues --    0.32874   0.34121   0.36004   0.40191   0.41593
 Alpha virt. eigenvalues --    0.45448
          Condensed to atoms (all electrons):
               1          2          3          4          5          6
     1  C    4.222804   0.000000   0.000000   0.000000   0.000000   0.000000
     2  C    0.000000   4.163472   0.000000   0.000000   0.000000   0.000000
     3  O    0.000000   0.000000   5.841366   0.000000   0.000000   0.000000
     4  C    0.000000   0.000000   0.000000   4.038985   0.000000   0.000000
     5  C    0.000000   0.000000   0.000000   0.000000   4.332744   0.000000
     6  H    0.000000   0.000000   0.000000   0.000000   0.000000   0.843129
     7  H    0.000000   0.000000   0.000000   0.000000   0.000000   0.000000
     8  H    0.000000   0.000000   0.000000   0.000000   0.000000   0.000000
     9  H    0.000000   0.000000   0.000000   0.000000   0.000000   0.000000
               7          8          9
     1  C    0.000000   0.000000   0.000000
     2  C    0.000000   0.000000   0.000000
     3  O    0.000000   0.000000   0.000000
     4  C    0.000000   0.000000   0.000000
     5  C    0.000000   0.000000   0.000000
     6  H    0.000000   0.000000   0.000000
     7  H    0.857247   0.000000   0.000000
     8  H    0.000000   0.843911   0.000000
     9  H    0.000000   0.000000   0.856341
 Mulliken charges:
               1
     1  C   -0.222804
     2  C   -0.163472
     3  O    0.158634
     4  C   -0.038985
     5  C   -0.332744
     6  H    0.156871
     7  H    0.142753
     8  H    0.156089
     9  H    0.143659
 Sum of Mulliken charges =   0.00000
 Mulliken charges with hydrogens summed into heavy atoms:
               1
     1  C   -0.079145
     2  C   -0.007384
     3  O    0.158634
     4  C    0.103768
     5  C   -0.175873
 Charge=              0.0000 electrons
 Dipole moment (field-independent basis, Debye):
    X=              0.3018    Y=             -1.2541    Z=              0.0722  Tot=              1.2920
 N-N= 1.011823800847D+02 E-N=-1.695472600888D+02  KE=-1.819232358426D+01
 Leave Link  601 at Mon Nov 23 13:23:31 2015, MaxMem=    33554432 cpu:         0.0
 (Enter /home/Applications/g09/g09/l701.exe)
 Compute integral first derivatives.
 ... and contract with generalized density number  0.
 Leave Link  701 at Mon Nov 23 13:23:31 2015, MaxMem=    33554432 cpu:         0.0
 (Enter /home/Applications/g09/g09/l702.exe)
 L702 exits ... SP integral derivatives will be done elsewhere.
 Leave Link  702 at Mon Nov 23 13:23:32 2015, MaxMem=    33554432 cpu:         0.0
 (Enter /home/Applications/g09/g09/l703.exe)
 Compute integral first derivatives, UseDBF=F ICtDFT=           0.
 Integral derivatives from FoFJK, PRISM(SPDF).
 Calling FoFJK, ICntrl=      2127 FMM=F ISym2X=0 I1Cent= 0 IOpClX= 0 NMat=1 NMatS=1 NMatT=0.
 FoFJK:  IHMeth= 8 ICntrl=    2127 DoSepK=F KAlg= 0 I1Cent=   0 FoldK=F
 IRaf=         0 NMat=   1 IRICut=       1 DoRegI=T DoRafI=F ISym2E= 0.
 FoFCou: FMM=F IPFlag=           0 FMFlag=      100000 FMFlg1=         800
         NFxFlg=           0 DoJE=F BraDBF=F KetDBF=F FulRan=T
         wScrn=  0.000000 ICntrl=    2127 IOpCl=  0 I1Cent=           0 NGrid=           0
         NMat0=    1 NMatS0=      1 NMatT0=    0 NMatD0=    1 NMtDS0=    0 NMtDT0=    0
 Symmetry not used in FoFCou.
 Leave Link  703 at Mon Nov 23 13:23:32 2015, MaxMem=    33554432 cpu:         0.0
 (Enter /home/Applications/g09/g09/l716.exe)
 Dipole        = 1.18754014D-01-4.93411869D-01 2.84041159D-02
 ***** Axes restored to original set *****
 -------------------------------------------------------------------
 Center     Atomic                   Forces (Hartrees/Bohr)
 Number     Number              X              Y              Z
 -------------------------------------------------------------------
      1        6          -0.050398882   -0.007215198    0.007003661
      2        6           0.037202530    0.053891045   -0.005152872
      3        8          -0.030512419   -0.055045891   -0.000157298
      4        6           0.068863963   -0.021441563   -0.002039560
      5        6          -0.030744494   -0.007571438    0.005339600
      6        1           0.001080379   -0.004605758   -0.003442280
      7        1          -0.014562270    0.056756949    0.000110120
      8        1           0.001090817   -0.013757243    0.001292521
      9        1           0.017980377   -0.001010902   -0.002953894
 -------------------------------------------------------------------
 Cartesian Forces:  Max     0.068863963 RMS     0.027986167
 Leave Link  716 at Mon Nov 23 13:23:32 2015, MaxMem=    33554432 cpu:         0.0
 (Enter /home/Applications/g09/g09/l103.exe)

 GradGradGradGradGradGradGradGradGradGradGradGradGradGradGradGradGradGrad
 Berny optimization.
 FormGI is forming the generalized inverse of G from B-inverse, IUseBI=4.
 Internal  Forces:  Max     0.056910802 RMS     0.016445415
 Search for a local minimum.
 Step number   1 out of a maximum of   48
 All quantities printed in internal units (Hartrees-Bohrs-Radians)
 RMS Force = .16445D-01 SwitMx=.10000D-02 MixMth= 1
 Mixed Optimization -- RFO/linear search
 Second derivative matrix not updated -- first step.
 ITU=  0
     Eigenvalues ---    0.01769   0.01873   0.01914   0.01970   0.02041
     Eigenvalues ---    0.02177   0.15938   0.15963   0.15991   0.16000
     Eigenvalues ---    0.22001   0.22946   0.36279   0.38277   0.38318
     Eigenvalues ---    0.38517   0.41171   0.43194   0.43916   0.45943
     Eigenvalues ---    0.56285
 RFO step:  Lambda=-2.53297775D-02 EMin= 1.76871353D-02
 Linear search not attempted -- first point.
 Iteration  1 RMS(Cart)=  0.05230352 RMS(Int)=  0.00223585
 Iteration  2 RMS(Cart)=  0.00252116 RMS(Int)=  0.00064065
 Iteration  3 RMS(Cart)=  0.00000701 RMS(Int)=  0.00064061
 Iteration  4 RMS(Cart)=  0.00000000 RMS(Int)=  0.00064061
 ITry= 1 IFail=0 DXMaxC= 1.86D-01 DCOld= 1.00D+10 DXMaxT= 3.00D-01 DXLimC= 3.00D+00 Rises=F
 Variable       Old X    -DE/DX   Delta X   Delta X   Delta X     New X
                                 (Linear)    (Quad)   (Total)
    R1        2.69230  -0.03919   0.00000  -0.09578  -0.09558   2.59672
    R2        2.65519  -0.01609   0.00000  -0.04014  -0.04011   2.61508
    R3        2.00664   0.01398   0.00000   0.03424   0.03424   2.04088
    R4        2.63265  -0.01018   0.00000  -0.01865  -0.01856   2.61409
    R5        2.00320   0.01169   0.00000   0.02849   0.02849   2.03169
    R6        2.51909   0.04664   0.00000   0.08223   0.08208   2.60117
    R7        2.67249  -0.02891   0.00000  -0.05949  -0.05967   2.61282
    R8        1.93255   0.05691   0.00000   0.12252   0.12252   2.05507
    R9        2.03648  -0.00210   0.00000  -0.00540  -0.00540   2.03108
    A1        1.89236   0.00406   0.00000  -0.00900  -0.00899   1.88336
    A2        2.09682   0.00939   0.00000   0.06722   0.06678   2.16360
    A3        2.29224  -0.01333   0.00000  -0.05563  -0.05614   2.23610
    A4        1.86047   0.01483   0.00000   0.04902   0.04937   1.90983
    A5        2.36247  -0.01467   0.00000  -0.06358  -0.06377   2.29870
    A6        2.05975  -0.00014   0.00000   0.01486   0.01465   2.07441
    A7        1.90121  -0.01960   0.00000  -0.05145  -0.05138   1.84983
    A8        1.94009  -0.00908   0.00000  -0.02046  -0.02070   1.91938
    A9        2.01141   0.01801   0.00000   0.08286   0.08290   2.09431
   A10        2.33167  -0.00893   0.00000  -0.06247  -0.06240   2.26928
   A11        1.83064   0.00981   0.00000   0.03198   0.03171   1.86235
   A12        2.25012  -0.00927   0.00000  -0.03875  -0.03897   2.21115
   A13        2.20054  -0.00042   0.00000   0.00901   0.00882   2.20935
    D1        0.00439  -0.00034   0.00000  -0.00779  -0.00771  -0.00332
    D2        3.11002   0.00042   0.00000   0.00424   0.00340   3.11342
    D3        3.08914   0.00103   0.00000   0.03144   0.03342   3.12256
    D4       -0.08841   0.00178   0.00000   0.04347   0.04452  -0.04390
    D5       -0.00577   0.00051   0.00000   0.01148   0.01150   0.00573
    D6        3.07213   0.00252   0.00000   0.05011   0.04882   3.12095
    D7       -3.08188  -0.00219   0.00000  -0.03949  -0.03741  -3.11929
    D8       -0.00399  -0.00017   0.00000  -0.00086  -0.00008  -0.00407
    D9       -0.00110  -0.00004   0.00000   0.00047   0.00063  -0.00047
   D10       -3.11407  -0.00022   0.00000  -0.00703  -0.00680  -3.12087
   D11       -0.00263   0.00041   0.00000   0.00708   0.00676   0.00413
   D12        3.13414  -0.00036   0.00000  -0.00743  -0.00865   3.12549
   D13        0.00526  -0.00061   0.00000  -0.01163  -0.01143  -0.00616
   D14       -3.07501  -0.00211   0.00000  -0.04649  -0.04641  -3.12142
   D15       -3.13031   0.00025   0.00000   0.00590   0.00543  -3.12488
   D16        0.07260  -0.00125   0.00000  -0.02896  -0.02955   0.04305
         Item               Value     Threshold  Converged?
 Maximum Force            0.056911     0.000450     NO 
 RMS     Force            0.016445     0.000300     NO 
 Maximum Displacement     0.186107     0.001800     NO 
 RMS     Displacement     0.052967     0.001200     NO 
 Predicted change in Energy=-1.367905D-02
 Lowest energy point so far.  Saving SCF results.
 GradGradGradGradGradGradGradGradGradGradGradGradGradGradGradGradGradGrad

 Leave Link  103 at Mon Nov 23 13:23:32 2015, MaxMem=    33554432 cpu:         0.0
 (Enter /home/Applications/g09/g09/l202.exe)
                          Input orientation:                          
 ---------------------------------------------------------------------
 Center     Atomic      Atomic             Coordinates (Angstroms)
 Number     Number       Type             X           Y           Z
 ---------------------------------------------------------------------
      1          6           0        0.937350   -0.674448   -0.014210
      2          6           0       -0.371616   -1.091548    0.015008
      3          8           0       -1.205902    0.011809    0.026784
      4          6           0       -0.379396    1.112306    0.004768
      5          6           0        0.942873    0.709337   -0.025610
      6          1           0        1.807295    1.348051   -0.030077
      7          1           0       -0.806077    2.112541   -0.006434
      8          1           0       -0.809802   -2.073306    0.009044
      9          1           0        1.784339   -1.344505   -0.011362
 ---------------------------------------------------------------------
                    Distance matrix (angstroms):
                    1          2          3          4          5
     1  C    0.000000
     2  C    1.374125   0.000000
     3  O    2.250812   1.383318   0.000000
     4  C    2.219610   2.203892   1.376477   0.000000
     5  C    1.383843   2.229959   2.259761   1.382643   0.000000
     6  H    2.201717   3.271289   3.296685   2.199638   1.074803
     7  H    3.287385   3.233481   2.138700   1.087498   2.242359
     8  H    2.238277   1.075123   2.122478   3.214559   3.288795
     9  H    1.079988   2.170904   3.283684   3.273824   2.219579
                    6          7          8          9
     6  H    0.000000
     7  H    2.722998   0.000000
     8  H    4.307715   4.185877   0.000000
     9  H    2.692718   4.319889   2.694649   0.000000
 Stoichiometry    C4H4O
 Framework group  C1[X(C4H4O)]
 Deg. of freedom    21
 Full point group                 C1      NOp   1
 RotChk:  IX=2 Diff= 4.64D-01
 Largest Abelian subgroup         C1      NOp   1
 Largest concise Abelian subgroup C1      NOp   1
                         Standard orientation:                         
 ---------------------------------------------------------------------
 Center     Atomic      Atomic             Coordinates (Angstroms)
 Number     Number       Type             X           Y           Z
 ---------------------------------------------------------------------
      1          6           0        0.653417    0.985856   -0.001066
      2          6           0        1.116127   -0.308019    0.001026
      3          8           0        0.042658   -1.180504    0.002763
      4          6           0       -1.086134   -0.392774    0.002307
      5          6           0       -0.729761    0.943132   -0.005034
      6          1           0       -1.398279    1.784588    0.010333
      7          1           0       -2.070912   -0.853933   -0.011719
      8          1           0        2.112531   -0.711367   -0.018473
      9          1           0        1.293500    1.855585    0.014353
 ---------------------------------------------------------------------
 Rotational constants (GHZ):      9.5149294      9.1070885      4.6533768
 Leave Link  202 at Mon Nov 23 13:23:32 2015, MaxMem=    33554432 cpu:         0.0
 (Enter /home/Applications/g09/g09/l301.exe)

 Semi-emprical parameters in input format:
 Method=8 CoreType=1 PeptideFC=0.0166290000 RIJScale=0.6119410000
 ****
 H       
 PQN=1 NValence=1 F0ss=0.4150770000 ZetaOverlap=1.0810580000 U=-0.4286880000
 Beta=-0.2869890000 CoreKO=1.2114800000 KON=0,0,0,1.1025190000 KON=1,0,1,1.1074920000
 KON=0,1,1,1.0916540000 KON=2,1,1,1.0589200000 EISol=-0.4188110042 EHeat=0.0830298228
 Alpha=1.5030030000
 GCore=0.0071120000,1.1207970000,2.7005670000
 GCore=0.0003230000,1.4222460000,3.4015070000
 GCore=-0.0013380000,0.4405990000,4.4481290000
 ****
 C       
 PQN=2,2 NValence=4 F0ss=0.4202500000 F0sp=0.4263690000 F0pp=0.3424460000 F2pp=0.1977130000
 G1sp=0.2746580000
 ZetaOverlap=1.7498310000,1.3881390000
 U=-1.7944250000,-1.4545000000
 Beta=-0.5214990000,-0.3746580000 DDN=0,1,0.8234340000 DDN=1,1,0.7559950000
 CoreKO=1.2002200000 KON=0,0,0,1.1694410000 KON=1,0,1,0.9096420000 KON=0,1,1,0.9370920000
 KON=2,1,1,0.5201690000 EISol=-4.4398989268 EHeat=0.2723305520 Alpha=1.3947510000
 DipHyp=1.6467732542
 GCore=0.0008780000,1.2683970000,2.4090670000
 GCore=0.0034720000,1.4096270000,3.6574610000
 GCore=-0.0014060000,1.4542400000,3.3154880000
 GCore=-0.0001000000,1.4766960000,5.0661660000
 ****
 O       
 PQN=2,2 NValence=6 F0ss=0.5672460000 F0sp=0.5681160000 F0pp=0.4898210000 F2pp=0.2703590000
 G1sp=0.4169050000
 ZetaOverlap=2.7263600000,1.8505270000
 U=-3.5241930000,-3.0238760000
 Beta=-0.9772650000,-1.1886600000 DDN=0,1,0.5807610000 DDN=1,1,0.4521100000
 CoreKO=0.9925760000 KON=0,0,0,0.8355350000 KON=1,0,1,0.5454830000 KON=0,1,1,0.8378550000
 KON=2,1,1,0.5017630000 EISol=-11.6164441184 EHeat=0.0949133088 Alpha=2.2627970000
 DipHyp=1.1614551766
 GCore=0.0225710000,1.2849200000,1.7519400000
 GCore=0.0054870000,1.7991710000,2.8334770000
 ****
 
 Standard basis: VSTO-6G (5D, 7F)
 Ernie: Thresh=  0.10000D-02 Tol=  0.10000D-05 Strict=F.
  NNHCO=     0 NNPyr=     0 NCTC=     0               EPep=         0.000000000
    EC=        66.568389481  ECS=         1.769889982   EG=         0.410610910
   EHC=         0.000000000  EAt=       -31.051283842  AtH=         1.516354808
 EPDDG=         0.000000000  ECC=        68.748890373 EAtT=        32.567638650
 There are    24 symmetry adapted cartesian basis functions of A   symmetry.
 There are    24 symmetry adapted basis functions of A   symmetry.
    24 basis functions,   144 primitive gaussians,    24 cartesian basis functions
    13 alpha electrons       13 beta electrons
       nuclear repulsion energy       101.3165290235 Hartrees.
 IExCor=    0 DFT=F Ex=HF Corr=None ExCW=0 ScaHFX=  1.000000
 ScaDFX=  1.000000  1.000000  1.000000  1.000000 ScalE2=  1.000000  1.000000
 IRadAn=      0 IRanWt=     -1 IRanGd=            0 ICorTp=0 IEmpDi=  4
 Integral buffers will be    131072 words long.
 Regular integral format.
 Two-electron integral symmetry is turned off.
 Leave Link  301 at Mon Nov 23 13:23:32 2015, MaxMem=    33554432 cpu:         0.0
 (Enter /home/Applications/g09/g09/l302.exe)
 Do NDO integrals.
 NPDir=0 NMtPBC=     1 NCelOv=     1 NCel=       1 NClECP=     1 NCelD=      1
         NCelK=      1 NCelE2=     1 NClLst=     1 CellRange=     0.0.
 One-electron integrals computed using PRISM.
 NBasis=    24 RedAO= F EigKep=  0.00D+00  NBF=    24
 NBsUse=    24 1.00D-04 EigRej=  0.00D+00 NBFU=    24
 Leave Link  302 at Mon Nov 23 13:23:32 2015, MaxMem=    33554432 cpu:         0.0
 (Enter /home/Applications/g09/g09/l303.exe)
 DipDrv:  MaxL=1.
 Leave Link  303 at Mon Nov 23 13:23:32 2015, MaxMem=    33554432 cpu:         0.0
 (Enter /home/Applications/g09/g09/l401.exe)
 Initial guess from the checkpoint file:  "/home/Applications/g09/scratch/Gau-4882.chk"
 B after Tr=     0.000000    0.000000    0.000000
         Rot=    0.986670    0.000006   -0.000026    0.162734 Ang=  18.73 deg.
 Guess basis will be translated and rotated to current coordinates.
 JPrj=0 DoOrth=T DoCkMO=T.
 Leave Link  401 at Mon Nov 23 13:23:32 2015, MaxMem=    33554432 cpu:         0.0
 (Enter /home/Applications/g09/g09/l502.exe)
 Closed shell SCF:
 Using DIIS extrapolation, IDIIS=  1040.
 Overlap will be assumed to be unity.
 Two-electron integral symmetry not used.
 Keep J ints in memory in canonical form, NReq=888082.
 IVT=       79475 IEndB=       79475 NGot=    33554432 MDV=    33473473
 LenX=    33473473 LenY=    33472456
 Requested convergence on RMS density matrix=1.00D-08 within 128 cycles.
 Requested convergence on MAX density matrix=1.00D-06.
 Requested convergence on             energy=1.00D-06.
 No special actions if energy rises.
 FoFCou: FMM=F IPFlag=           0 FMFlag=           0 FMFlg1=           0
         NFxFlg=           0 DoJE=F BraDBF=F KetDBF=F FulRan=T
         wScrn=  0.000000 ICntrl=     600 IOpCl=  2 I1Cent=           0 NGrid=           0
         NMat0=    1 NMatS0=     54 NMatT0=    0 NMatD0=    1 NMtDS0=    0 NMtDT0=    0
 Symmetry not used in FoFCou.

 Cycle   1  Pass 1  IDiag  1:
 E= -2.21335199199277    
 DIIS: error= 7.55D-03 at cycle   1 NSaved=   1.
 NSaved= 1 IEnMin= 1 EnMin= -2.21335199199277     IErMin= 1 ErrMin= 7.55D-03
 ErrMax= 7.55D-03  0.00D+00 EMaxC= 1.00D-01 BMatC= 3.51D-03 BMatP= 3.51D-03
 IDIUse=3 WtCom= 9.24D-01 WtEn= 7.55D-02
 Coeff-Com:  0.100D+01
 Coeff-En:   0.100D+01
 Coeff:      0.100D+01
 GapD=    2.000 DampG=2.000 DampE=1.000 DampFc=2.0000 IDamp=-1.
 RMSDP=3.11D-03 MaxDP=1.49D-02              OVMax= 0.00D+00

 Cycle   2  Pass 1  IDiag  3:
 E= -2.22074682117572     Delta-E=       -0.007394829183 Rises=F Damp=F
 DIIS: error= 2.26D-03 at cycle   2 NSaved=   2.
 NSaved= 2 IEnMin= 2 EnMin= -2.22074682117572     IErMin= 2 ErrMin= 2.26D-03
 ErrMax= 2.26D-03  0.00D+00 EMaxC= 1.00D-01 BMatC= 2.41D-04 BMatP= 3.51D-03
 IDIUse=3 WtCom= 9.77D-01 WtEn= 2.26D-02
 Coeff-Com: -0.306D+00 0.131D+01
 Coeff-En:   0.000D+00 0.100D+01
 Coeff:     -0.299D+00 0.130D+01
 Gap=     0.498 Goal=   None    Shift=    0.000
 RMSDP=1.28D-03 MaxDP=6.86D-03 DE=-7.39D-03 OVMax= 7.93D-03

 Cycle   3  Pass 1  IDiag  3:
 E= -2.22147607768392     Delta-E=       -0.000729256508 Rises=F Damp=F
 DIIS: error= 4.89D-04 at cycle   3 NSaved=   3.
 NSaved= 3 IEnMin= 3 EnMin= -2.22147607768392     IErMin= 3 ErrMin= 4.89D-04
 ErrMax= 4.89D-04  0.00D+00 EMaxC= 1.00D-01 BMatC= 9.68D-06 BMatP= 2.41D-04
 IDIUse=3 WtCom= 9.95D-01 WtEn= 4.89D-03
 Coeff-Com:  0.975D-01-0.482D+00 0.138D+01
 Coeff-En:   0.000D+00 0.000D+00 0.100D+01
 Coeff:      0.970D-01-0.479D+00 0.138D+01
 Gap=     0.498 Goal=   None    Shift=    0.000
 RMSDP=3.92D-04 MaxDP=3.30D-03 DE=-7.29D-04 OVMax= 3.33D-03

 Cycle   4  Pass 1  IDiag  3:
 E= -2.22153087021324     Delta-E=       -0.000054792529 Rises=F Damp=F
 DIIS: error= 2.35D-04 at cycle   4 NSaved=   4.
 NSaved= 4 IEnMin= 4 EnMin= -2.22153087021324     IErMin= 4 ErrMin= 2.35D-04
 ErrMax= 2.35D-04  0.00D+00 EMaxC= 1.00D-01 BMatC= 1.86D-06 BMatP= 9.68D-06
 IDIUse=3 WtCom= 9.98D-01 WtEn= 2.35D-03
 Coeff-Com: -0.214D-01 0.127D+00-0.730D+00 0.162D+01
 Coeff-En:   0.000D+00 0.000D+00 0.000D+00 0.100D+01
 Coeff:     -0.213D-01 0.127D+00-0.729D+00 0.162D+01
 Gap=     0.498 Goal=   None    Shift=    0.000
 RMSDP=2.22D-04 MaxDP=2.06D-03 DE=-5.48D-05 OVMax= 1.69D-03

 Cycle   5  Pass 1  IDiag  3:
 E= -2.22154416333135     Delta-E=       -0.000013293118 Rises=F Damp=F
 DIIS: error= 1.06D-04 at cycle   5 NSaved=   5.
 NSaved= 5 IEnMin= 5 EnMin= -2.22154416333135     IErMin= 5 ErrMin= 1.06D-04
 ErrMax= 1.06D-04  0.00D+00 EMaxC= 1.00D-01 BMatC= 3.58D-07 BMatP= 1.86D-06
 IDIUse=3 WtCom= 9.99D-01 WtEn= 1.06D-03
 Coeff-Com: -0.230D-02-0.155D-02 0.274D+00-0.120D+01 0.193D+01
 Coeff-En:   0.000D+00 0.000D+00 0.000D+00 0.000D+00 0.100D+01
 Coeff:     -0.230D-02-0.155D-02 0.273D+00-0.120D+01 0.193D+01
 Gap=     0.498 Goal=   None    Shift=    0.000
 RMSDP=1.28D-04 MaxDP=1.07D-03 DE=-1.33D-05 OVMax= 9.46D-04

 Cycle   6  Pass 1  IDiag  3:
 E= -2.22154705533490     Delta-E=       -0.000002892004 Rises=F Damp=F
 DIIS: error= 3.18D-05 at cycle   6 NSaved=   6.
 NSaved= 6 IEnMin= 6 EnMin= -2.22154705533490     IErMin= 6 ErrMin= 3.18D-05
 ErrMax= 3.18D-05  0.00D+00 EMaxC= 1.00D-01 BMatC= 2.94D-08 BMatP= 3.58D-07
 IDIUse=1 WtCom= 1.00D+00 WtEn= 0.00D+00
 Coeff-Com:  0.369D-02-0.114D-01-0.111D+00 0.642D+00-0.129D+01 0.177D+01
 Coeff:      0.369D-02-0.114D-01-0.111D+00 0.642D+00-0.129D+01 0.177D+01
 Gap=     0.498 Goal=   None    Shift=    0.000
 RMSDP=3.34D-05 MaxDP=2.33D-04 DE=-2.89D-06 OVMax= 2.40D-04

 Cycle   7  Pass 1  IDiag  3:
 E= -2.22154727088569     Delta-E=       -0.000000215551 Rises=F Damp=F
 DIIS: error= 8.35D-06 at cycle   7 NSaved=   7.
 NSaved= 7 IEnMin= 7 EnMin= -2.22154727088569     IErMin= 7 ErrMin= 8.35D-06
 ErrMax= 8.35D-06  0.00D+00 EMaxC= 1.00D-01 BMatC= 2.31D-09 BMatP= 2.94D-08
 IDIUse=1 WtCom= 1.00D+00 WtEn= 0.00D+00
 Coeff-Com: -0.134D-02 0.376D-02 0.538D-01-0.303D+00 0.630D+00-0.105D+01
 Coeff-Com:  0.167D+01
 Coeff:     -0.134D-02 0.376D-02 0.538D-01-0.303D+00 0.630D+00-0.105D+01
 Coeff:      0.167D+01
 Gap=     0.498 Goal=   None    Shift=    0.000
 RMSDP=8.50D-06 MaxDP=7.03D-05 DE=-2.16D-07 OVMax= 6.15D-05

 Cycle   8  Pass 1  IDiag  3:
 E= -2.22154728676603     Delta-E=       -0.000000015880 Rises=F Damp=F
 DIIS: error= 2.37D-06 at cycle   8 NSaved=   8.
 NSaved= 8 IEnMin= 8 EnMin= -2.22154728676603     IErMin= 8 ErrMin= 2.37D-06
 ErrMax= 2.37D-06  0.00D+00 EMaxC= 1.00D-01 BMatC= 2.23D-10 BMatP= 2.31D-09
 IDIUse=1 WtCom= 1.00D+00 WtEn= 0.00D+00
 Coeff-Com:  0.571D-03-0.196D-02-0.128D-01 0.850D-01-0.188D+00 0.360D+00
 Coeff-Com: -0.875D+00 0.163D+01
 Coeff:      0.571D-03-0.196D-02-0.128D-01 0.850D-01-0.188D+00 0.360D+00
 Coeff:     -0.875D+00 0.163D+01
 Gap=     0.498 Goal=   None    Shift=    0.000
 RMSDP=2.61D-06 MaxDP=2.07D-05 DE=-1.59D-08 OVMax= 1.59D-05

 Cycle   9  Pass 1  IDiag  3:
 E= -2.22154728815023     Delta-E=       -0.000000001384 Rises=F Damp=F
 DIIS: error= 5.70D-07 at cycle   9 NSaved=   9.
 NSaved= 9 IEnMin= 9 EnMin= -2.22154728815023     IErMin= 9 ErrMin= 5.70D-07
 ErrMax= 5.70D-07  0.00D+00 EMaxC= 1.00D-01 BMatC= 9.63D-12 BMatP= 2.23D-10
 IDIUse=1 WtCom= 1.00D+00 WtEn= 0.00D+00
 Coeff-Com: -0.110D-03 0.381D-03 0.229D-02-0.164D-01 0.373D-01-0.808D-01
 Coeff-Com:  0.255D+00-0.680D+00 0.148D+01
 Coeff:     -0.110D-03 0.381D-03 0.229D-02-0.164D-01 0.373D-01-0.808D-01
 Coeff:      0.255D+00-0.680D+00 0.148D+01
 Gap=     0.498 Goal=   None    Shift=    0.000
 RMSDP=4.93D-07 MaxDP=3.27D-06 DE=-1.38D-09 OVMax= 3.22D-06

 Cycle  10  Pass 1  IDiag  3:
 E= -2.22154728820040     Delta-E=       -0.000000000050 Rises=F Damp=F
 DIIS: error= 6.67D-08 at cycle  10 NSaved=  10.
 NSaved=10 IEnMin=10 EnMin= -2.22154728820040     IErMin=10 ErrMin= 6.67D-08
 ErrMax= 6.67D-08  0.00D+00 EMaxC= 1.00D-01 BMatC= 1.75D-13 BMatP= 9.63D-12
 IDIUse=1 WtCom= 1.00D+00 WtEn= 0.00D+00
 Coeff-Com:  0.277D-04-0.973D-04-0.520D-03 0.399D-02-0.927D-02 0.218D-01
 Coeff-Com: -0.767D-01 0.226D+00-0.585D+00 0.142D+01
 Coeff:      0.277D-04-0.973D-04-0.520D-03 0.399D-02-0.927D-02 0.218D-01
 Coeff:     -0.767D-01 0.226D+00-0.585D+00 0.142D+01
 Gap=     0.498 Goal=   None    Shift=    0.000
 RMSDP=5.24D-08 MaxDP=3.29D-07 DE=-5.02D-11 OVMax= 3.18D-07

 Cycle  11  Pass 1  IDiag  3:
 E= -2.22154728820129     Delta-E=       -0.000000000001 Rises=F Damp=F
 DIIS: error= 1.06D-08 at cycle  11 NSaved=  11.
 NSaved=11 IEnMin=11 EnMin= -2.22154728820129     IErMin=11 ErrMin= 1.06D-08
 ErrMax= 1.06D-08  0.00D+00 EMaxC= 1.00D-01 BMatC= 4.37D-15 BMatP= 1.75D-13
 IDIUse=1 WtCom= 1.00D+00 WtEn= 0.00D+00
 Coeff-Com: -0.953D-05 0.336D-04 0.178D-03-0.138D-02 0.323D-02-0.770D-02
 Coeff-Com:  0.274D-01-0.816D-01 0.216D+00-0.608D+00 0.145D+01
 Coeff:     -0.953D-05 0.336D-04 0.178D-03-0.138D-02 0.323D-02-0.770D-02
 Coeff:      0.274D-01-0.816D-01 0.216D+00-0.608D+00 0.145D+01
 Gap=     0.498 Goal=   None    Shift=    0.000
 RMSDP=8.38D-09 MaxDP=4.38D-08 DE=-8.95D-13 OVMax= 4.67D-08

 Cycle  12  Pass 2  IDiag  1:
 SCF Done:  E(RAM1) =  -2.22154728820     A.U. after   12 cycles
            NFock= 11  Conv=0.84D-08     -V/T= 0.8779
 KE=-1.818948660953D+01 PE=-1.698789470871D+02 EE= 8.453035738490D+01
 Leave Link  502 at Mon Nov 23 13:23:32 2015, MaxMem=    33554432 cpu:         0.0
 (Enter /home/Applications/g09/g09/l701.exe)
 Compute integral first derivatives.
 ... and contract with generalized density number  0.
 Leave Link  701 at Mon Nov 23 13:23:32 2015, MaxMem=    33554432 cpu:         0.0
 (Enter /home/Applications/g09/g09/l702.exe)
 L702 exits ... SP integral derivatives will be done elsewhere.
 Leave Link  702 at Mon Nov 23 13:23:32 2015, MaxMem=    33554432 cpu:         0.0
 (Enter /home/Applications/g09/g09/l703.exe)
 Compute integral first derivatives, UseDBF=F ICtDFT=           0.
 Integral derivatives from FoFJK, PRISM(SPDF).
 Calling FoFJK, ICntrl=      2127 FMM=F ISym2X=0 I1Cent= 0 IOpClX= 0 NMat=1 NMatS=1 NMatT=0.
 FoFJK:  IHMeth= 8 ICntrl=    2127 DoSepK=F KAlg= 0 I1Cent=   0 FoldK=F
 IRaf=         0 NMat=   1 IRICut=       1 DoRegI=T DoRafI=F ISym2E= 0.
 FoFCou: FMM=F IPFlag=           0 FMFlag=      100000 FMFlg1=         800
         NFxFlg=           0 DoJE=F BraDBF=F KetDBF=F FulRan=T
         wScrn=  0.000000 ICntrl=    2127 IOpCl=  0 I1Cent=           0 NGrid=           0
         NMat0=    1 NMatS0=      1 NMatT0=    0 NMatD0=    1 NMtDS0=    0 NMtDT0=    0
 Symmetry not used in FoFCou.
 Leave Link  703 at Mon Nov 23 13:23:32 2015, MaxMem=    33554432 cpu:         0.0
 (Enter /home/Applications/g09/g09/l716.exe)
 Dipole        = 1.71905698D-02-3.77465034D-01 2.09029971D-03
 ***** Axes restored to original set *****
 -------------------------------------------------------------------
 Center     Atomic                   Forces (Hartrees/Bohr)
 Number     Number              X              Y              Z
 -------------------------------------------------------------------
      1        6           0.002921777   -0.027527980    0.001139632
      2        6          -0.003252176    0.009909092   -0.001682874
      3        8          -0.007715160   -0.000499781    0.000042803
      4        6           0.005885054    0.002767086   -0.002787434
      5        6          -0.007409014    0.020615137    0.003370150
      6        1           0.003903507    0.000904212   -0.001235802
      7        1           0.001640817   -0.006243600    0.001070002
      8        1          -0.000049291   -0.003787092    0.001227420
      9        1           0.004074486    0.003862927   -0.001143897
 -------------------------------------------------------------------
 Cartesian Forces:  Max     0.027527980 RMS     0.007672414
 Leave Link  716 at Mon Nov 23 13:23:32 2015, MaxMem=    33554432 cpu:         0.0
 (Enter /home/Applications/g09/g09/l103.exe)

 GradGradGradGradGradGradGradGradGradGradGradGradGradGradGradGradGradGrad
 Berny optimization.
 Using GEDIIS/GDIIS optimizer.
 FormGI is forming the generalized inverse of G from B-inverse, IUseBI=4.
 Internal  Forces:  Max     0.017296279 RMS     0.003926799
 Search for a local minimum.
 Step number   2 out of a maximum of   48
 All quantities printed in internal units (Hartrees-Bohrs-Radians)
 RMS Force = .39268D-02 SwitMx=.10000D-02 MixMth= 1
 Mixed Optimization -- RFO/linear search
 Update second derivatives using D2CorX and points    1    2
 DE= -1.24D-02 DEPred=-1.37D-02 R= 9.08D-01
 TightC=F SS=  1.41D+00  RLast= 2.82D-01 DXNew= 5.0454D-01 8.4692D-01
 Trust test= 9.08D-01 RLast= 2.82D-01 DXMaxT set to 5.05D-01
 ITU=  1  0
 Use linear search instead of GDIIS.
     Eigenvalues ---    0.01766   0.01868   0.01910   0.01965   0.02063
     Eigenvalues ---    0.02175   0.14872   0.15991   0.15995   0.16390
     Eigenvalues ---    0.21557   0.22616   0.36193   0.37849   0.38363
     Eigenvalues ---    0.38634   0.41331   0.42339   0.45388   0.53586
     Eigenvalues ---    0.56110
 RFO step:  Lambda=-1.97407802D-03 EMin= 1.76642148D-02
 Quartic linear search produced a step of -0.00578.
 Iteration  1 RMS(Cart)=  0.01462267 RMS(Int)=  0.00035389
 Iteration  2 RMS(Cart)=  0.00029890 RMS(Int)=  0.00015996
 Iteration  3 RMS(Cart)=  0.00000006 RMS(Int)=  0.00015996
 ITry= 1 IFail=0 DXMaxC= 4.25D-02 DCOld= 1.00D+10 DXMaxT= 5.05D-01 DXLimC= 3.00D+00 Rises=F
 Variable       Old X    -DE/DX   Delta X   Delta X   Delta X     New X
                                 (Linear)    (Quad)   (Total)
    R1        2.59672   0.00395   0.00055   0.00346   0.00403   2.60075
    R2        2.61508   0.01730   0.00023   0.03660   0.03685   2.65193
    R3        2.04088   0.00080  -0.00020   0.00459   0.00439   2.04527
    R4        2.61409   0.00193   0.00011   0.00206   0.00216   2.61625
    R5        2.03169   0.00347  -0.00016   0.01101   0.01085   2.04254
    R6        2.60117   0.00349  -0.00047   0.01078   0.01029   2.61146
    R7        2.61282  -0.00384   0.00034  -0.01347  -0.01313   2.59969
    R8        2.05507  -0.00640  -0.00071  -0.00533  -0.00604   2.04904
    R9        2.03108   0.00368   0.00003   0.00962   0.00966   2.04074
    A1        1.88336  -0.00527   0.00005  -0.01954  -0.01943   1.86394
    A2        2.16360   0.00833  -0.00039   0.04931   0.04887   2.21247
    A3        2.23610  -0.00306   0.00032  -0.02961  -0.02934   2.20676
    A4        1.90983   0.00368  -0.00029   0.02101   0.02068   1.93051
    A5        2.29870  -0.00332   0.00037  -0.02225  -0.02199   2.27671
    A6        2.07441  -0.00035  -0.00008   0.00176   0.00156   2.07597
    A7        1.84983  -0.00161   0.00030  -0.01565  -0.01532   1.83450
    A8        1.91938   0.00420   0.00012   0.01410   0.01411   1.93349
    A9        2.09431  -0.00309  -0.00048  -0.00751  -0.00814   2.08617
   A10        2.26928  -0.00109   0.00036  -0.00599  -0.00578   2.26349
   A11        1.86235  -0.00100  -0.00018   0.00023  -0.00017   1.86218
   A12        2.21115  -0.00113   0.00023  -0.01138  -0.01146   2.19970
   A13        2.20935   0.00215  -0.00005   0.01220   0.01184   2.22120
    D1       -0.00332   0.00028   0.00004   0.01227   0.01221   0.00889
    D2        3.11342   0.00081  -0.00002   0.03821   0.03787  -3.13190
    D3        3.12256   0.00034  -0.00019   0.02210   0.02214  -3.13849
    D4       -0.04390   0.00087  -0.00026   0.04804   0.04780   0.00391
    D5        0.00573  -0.00049  -0.00007  -0.02118  -0.02113  -0.01540
    D6        3.12095   0.00040  -0.00028   0.02094   0.02040   3.14135
    D7       -3.11929  -0.00069   0.00022  -0.03248  -0.03195   3.13195
    D8       -0.00407   0.00020   0.00000   0.00964   0.00958   0.00552
    D9       -0.00047   0.00006   0.00000   0.00174   0.00167   0.00120
   D10       -3.12087  -0.00034   0.00004  -0.01992  -0.02022  -3.14109
   D11        0.00413  -0.00034  -0.00004  -0.01518  -0.01541  -0.01128
   D12        3.12549   0.00034   0.00005   0.01298   0.01294   3.13843
   D13       -0.00616   0.00051   0.00007   0.02269   0.02298   0.01682
   D14       -3.12142  -0.00031   0.00027  -0.01892  -0.01876  -3.14018
   D15       -3.12488  -0.00023  -0.00003  -0.00918  -0.00909  -3.13396
   D16        0.04305  -0.00105   0.00017  -0.05079  -0.05082  -0.00777
         Item               Value     Threshold  Converged?
 Maximum Force            0.017296     0.000450     NO 
 RMS     Force            0.003927     0.000300     NO 
 Maximum Displacement     0.042477     0.001800     NO 
 RMS     Displacement     0.014579     0.001200     NO 
 Predicted change in Energy=-1.006504D-03
 Lowest energy point so far.  Saving SCF results.
 GradGradGradGradGradGradGradGradGradGradGradGradGradGradGradGradGradGrad

 Leave Link  103 at Mon Nov 23 13:23:32 2015, MaxMem=    33554432 cpu:         0.0
 (Enter /home/Applications/g09/g09/l202.exe)
                          Input orientation:                          
 ---------------------------------------------------------------------
 Center     Atomic      Atomic             Coordinates (Angstroms)
 Number     Number       Type             X           Y           Z
 ---------------------------------------------------------------------
      1          6           0        0.936973   -0.689845   -0.013509
      2          6           0       -0.380821   -1.085955    0.010872
      3          8           0       -1.220509    0.014771    0.018220
      4          6           0       -0.378494    1.110318   -0.004058
      5          6           0        0.938711    0.713491   -0.010084
      6          1           0        1.812638    1.347712   -0.025124
      7          1           0       -0.800842    2.108982   -0.006359
      8          1           0       -0.815412   -2.075502    0.024771
      9          1           0        1.806817   -1.333734   -0.026818
 ---------------------------------------------------------------------
                    Distance matrix (angstroms):
                    1          2          3          4          5
     1  C    0.000000
     2  C    1.376255   0.000000
     3  O    2.269850   1.384458   0.000000
     4  C    2.229603   2.196325   1.381923   0.000000
     5  C    1.403341   2.231503   2.269635   1.375695   0.000000
     6  H    2.217783   3.276475   3.313396   2.204055   1.079913
     7  H    3.294463   3.222473   2.135988   1.084303   2.230125
     8  H    2.234360   1.080864   2.129175   3.215770   3.294942
     9  H    1.082312   2.201948   3.314392   3.278642   2.223740
                    6          7          8          9
     6  H    0.000000
     7  H    2.722162   0.000000
     8  H    4.315963   4.184625   0.000000
     9  H    2.681453   4.318865   2.725613   0.000000
 Stoichiometry    C4H4O
 Framework group  C1[X(C4H4O)]
 Deg. of freedom    21
 Full point group                 C1      NOp   1
 RotChk:  IX=2 Diff= 3.44D-02
 Largest Abelian subgroup         C1      NOp   1
 Largest concise Abelian subgroup C1      NOp   1
                         Standard orientation:                         
 ---------------------------------------------------------------------
 Center     Atomic      Atomic             Coordinates (Angstroms)
 Number     Number       Type             X           Y           Z
 ---------------------------------------------------------------------
      1          6           0        0.691456    0.974476   -0.003835
      2          6           0        1.102477   -0.338962    0.000880
      3          8           0        0.011316   -1.191072    0.001731
      4          6           0       -1.093728   -0.361282   -0.004223
      5          6           0       -0.711780    0.960289    0.005872
      6          1           0       -1.355858    1.827108    0.005530
      7          1           0       -2.087576   -0.794833   -0.007808
      8          1           0        2.096906   -0.762477    0.004463
      9          1           0        1.325448    1.851649   -0.008200
 ---------------------------------------------------------------------
 Rotational constants (GHZ):      9.4984133      9.0122953      4.6245736
 Leave Link  202 at Mon Nov 23 13:23:32 2015, MaxMem=    33554432 cpu:         0.0
 (Enter /home/Applications/g09/g09/l301.exe)

 Semi-emprical parameters in input format:
 Method=8 CoreType=1 PeptideFC=0.0166290000 RIJScale=0.6119410000
 ****
 H       
 PQN=1 NValence=1 F0ss=0.4150770000 ZetaOverlap=1.0810580000 U=-0.4286880000
 Beta=-0.2869890000 CoreKO=1.2114800000 KON=0,0,0,1.1025190000 KON=1,0,1,1.1074920000
 KON=0,1,1,1.0916540000 KON=2,1,1,1.0589200000 EISol=-0.4188110042 EHeat=0.0830298228
 Alpha=1.5030030000
 GCore=0.0071120000,1.1207970000,2.7005670000
 GCore=0.0003230000,1.4222460000,3.4015070000
 GCore=-0.0013380000,0.4405990000,4.4481290000
 ****
 C       
 PQN=2,2 NValence=4 F0ss=0.4202500000 F0sp=0.4263690000 F0pp=0.3424460000 F2pp=0.1977130000
 G1sp=0.2746580000
 ZetaOverlap=1.7498310000,1.3881390000
 U=-1.7944250000,-1.4545000000
 Beta=-0.5214990000,-0.3746580000 DDN=0,1,0.8234340000 DDN=1,1,0.7559950000
 CoreKO=1.2002200000 KON=0,0,0,1.1694410000 KON=1,0,1,0.9096420000 KON=0,1,1,0.9370920000
 KON=2,1,1,0.5201690000 EISol=-4.4398989268 EHeat=0.2723305520 Alpha=1.3947510000
 DipHyp=1.6467732542
 GCore=0.0008780000,1.2683970000,2.4090670000
 GCore=0.0034720000,1.4096270000,3.6574610000
 GCore=-0.0014060000,1.4542400000,3.3154880000
 GCore=-0.0001000000,1.4766960000,5.0661660000
 ****
 O       
 PQN=2,2 NValence=6 F0ss=0.5672460000 F0sp=0.5681160000 F0pp=0.4898210000 F2pp=0.2703590000
 G1sp=0.4169050000
 ZetaOverlap=2.7263600000,1.8505270000
 U=-3.5241930000,-3.0238760000
 Beta=-0.9772650000,-1.1886600000 DDN=0,1,0.5807610000 DDN=1,1,0.4521100000
 CoreKO=0.9925760000 KON=0,0,0,0.8355350000 KON=1,0,1,0.5454830000 KON=0,1,1,0.8378550000
 KON=2,1,1,0.5017630000 EISol=-11.6164441184 EHeat=0.0949133088 Alpha=2.2627970000
 DipHyp=1.1614551766
 GCore=0.0225710000,1.2849200000,1.7519400000
 GCore=0.0054870000,1.7991710000,2.8334770000
 ****
 
 Standard basis: VSTO-6G (5D, 7F)
 Ernie: Thresh=  0.10000D-02 Tol=  0.10000D-05 Strict=F.
  NNHCO=     0 NNPyr=     0 NCTC=     0               EPep=         0.000000000
    EC=        66.435123364  ECS=         1.749438167   EG=         0.406696079
   EHC=         0.000000000  EAt=       -31.051283842  AtH=         1.516354808
 EPDDG=         0.000000000  ECC=        68.591257611 EAtT=        32.567638650
 There are    24 symmetry adapted cartesian basis functions of A   symmetry.
 There are    24 symmetry adapted basis functions of A   symmetry.
    24 basis functions,   144 primitive gaussians,    24 cartesian basis functions
    13 alpha electrons       13 beta electrons
       nuclear repulsion energy       101.1588962610 Hartrees.
 IExCor=    0 DFT=F Ex=HF Corr=None ExCW=0 ScaHFX=  1.000000
 ScaDFX=  1.000000  1.000000  1.000000  1.000000 ScalE2=  1.000000  1.000000
 IRadAn=      0 IRanWt=     -1 IRanGd=            0 ICorTp=0 IEmpDi=  4
 Integral buffers will be    131072 words long.
 Regular integral format.
 Two-electron integral symmetry is turned off.
 Leave Link  301 at Mon Nov 23 13:23:32 2015, MaxMem=    33554432 cpu:         0.0
 (Enter /home/Applications/g09/g09/l302.exe)
 Do NDO integrals.
 NPDir=0 NMtPBC=     1 NCelOv=     1 NCel=       1 NClECP=     1 NCelD=      1
         NCelK=      1 NCelE2=     1 NClLst=     1 CellRange=     0.0.
 One-electron integrals computed using PRISM.
 NBasis=    24 RedAO= F EigKep=  0.00D+00  NBF=    24
 NBsUse=    24 1.00D-04 EigRej=  0.00D+00 NBFU=    24
 Leave Link  302 at Mon Nov 23 13:23:32 2015, MaxMem=    33554432 cpu:         0.0
 (Enter /home/Applications/g09/g09/l303.exe)
 DipDrv:  MaxL=1.
 Leave Link  303 at Mon Nov 23 13:23:32 2015, MaxMem=    33554432 cpu:         0.0
 (Enter /home/Applications/g09/g09/l401.exe)
 Initial guess from the checkpoint file:  "/home/Applications/g09/scratch/Gau-4882.chk"
 B after Tr=     0.000000    0.000000    0.000000
         Rot=    0.999918   -0.000007    0.000013    0.012832 Ang=  -1.47 deg.
 Guess basis will be translated and rotated to current coordinates.
 JPrj=0 DoOrth=T DoCkMO=T.
 Leave Link  401 at Mon Nov 23 13:23:32 2015, MaxMem=    33554432 cpu:         0.0
 (Enter /home/Applications/g09/g09/l502.exe)
 Closed shell SCF:
 Using DIIS extrapolation, IDIIS=  1040.
 Overlap will be assumed to be unity.
 Two-electron integral symmetry not used.
 Keep J ints in memory in canonical form, NReq=888082.
 IVT=       79475 IEndB=       79475 NGot=    33554432 MDV=    33473473
 LenX=    33473473 LenY=    33472456
 Requested convergence on RMS density matrix=1.00D-08 within 128 cycles.
 Requested convergence on MAX density matrix=1.00D-06.
 Requested convergence on             energy=1.00D-06.
 No special actions if energy rises.
 FoFCou: FMM=F IPFlag=           0 FMFlag=           0 FMFlg1=           0
         NFxFlg=           0 DoJE=F BraDBF=F KetDBF=F FulRan=T
         wScrn=  0.000000 ICntrl=     600 IOpCl=  2 I1Cent=           0 NGrid=           0
         NMat0=    1 NMatS0=     54 NMatT0=    0 NMatD0=    1 NMtDS0=    0 NMtDT0=    0
 Symmetry not used in FoFCou.

 Cycle   1  Pass 1  IDiag  1:
 E= -2.22166837930436    
 DIIS: error= 2.89D-03 at cycle   1 NSaved=   1.
 NSaved= 1 IEnMin= 1 EnMin= -2.22166837930436     IErMin= 1 ErrMin= 2.89D-03
 ErrMax= 2.89D-03  0.00D+00 EMaxC= 1.00D-01 BMatC= 3.24D-04 BMatP= 3.24D-04
 IDIUse=3 WtCom= 9.71D-01 WtEn= 2.89D-02
 Coeff-Com:  0.100D+01
 Coeff-En:   0.100D+01
 Coeff:      0.100D+01
 GapD=    2.000 DampG=2.000 DampE=1.000 DampFc=2.0000 IDamp=-1.
 RMSDP=1.06D-03 MaxDP=3.90D-03              OVMax= 0.00D+00

 Cycle   2  Pass 1  IDiag  3:
 E= -2.22246436136443     Delta-E=       -0.000795982060 Rises=F Damp=F
 DIIS: error= 7.83D-04 at cycle   2 NSaved=   2.
 NSaved= 2 IEnMin= 2 EnMin= -2.22246436136443     IErMin= 2 ErrMin= 7.83D-04
 ErrMax= 7.83D-04  0.00D+00 EMaxC= 1.00D-01 BMatC= 2.83D-05 BMatP= 3.24D-04
 IDIUse=3 WtCom= 9.92D-01 WtEn= 7.83D-03
 Coeff-Com: -0.369D+00 0.137D+01
 Coeff-En:   0.000D+00 0.100D+01
 Coeff:     -0.366D+00 0.137D+01
 Gap=     0.500 Goal=   None    Shift=    0.000
 RMSDP=5.23D-04 MaxDP=2.52D-03 DE=-7.96D-04 OVMax= 3.61D-03

 Cycle   3  Pass 1  IDiag  3:
 E= -2.22256641389397     Delta-E=       -0.000102052530 Rises=F Damp=F
 DIIS: error= 1.76D-04 at cycle   3 NSaved=   3.
 NSaved= 3 IEnMin= 3 EnMin= -2.22256641389397     IErMin= 3 ErrMin= 1.76D-04
 ErrMax= 1.76D-04  0.00D+00 EMaxC= 1.00D-01 BMatC= 9.17D-07 BMatP= 2.83D-05
 IDIUse=3 WtCom= 9.98D-01 WtEn= 1.76D-03
 Coeff-Com:  0.171D+00-0.699D+00 0.153D+01
 Coeff-En:   0.000D+00 0.000D+00 0.100D+01
 Coeff:      0.171D+00-0.697D+00 0.153D+01
 Gap=     0.500 Goal=   None    Shift=    0.000
 RMSDP=1.42D-04 MaxDP=9.91D-04 DE=-1.02D-04 OVMax= 1.38D-03

 Cycle   4  Pass 1  IDiag  3:
 E= -2.22257187277830     Delta-E=       -0.000005458884 Rises=F Damp=F
 DIIS: error= 5.10D-05 at cycle   4 NSaved=   4.
 NSaved= 4 IEnMin= 4 EnMin= -2.22257187277830     IErMin= 4 ErrMin= 5.10D-05
 ErrMax= 5.10D-05  0.00D+00 EMaxC= 1.00D-01 BMatC= 8.68D-08 BMatP= 9.17D-07
 IDIUse=1 WtCom= 1.00D+00 WtEn= 0.00D+00
 Coeff-Com: -0.882D-01 0.371D+00-0.980D+00 0.170D+01
 Coeff:     -0.882D-01 0.371D+00-0.980D+00 0.170D+01
 Gap=     0.500 Goal=   None    Shift=    0.000
 RMSDP=4.91D-05 MaxDP=4.33D-04 DE=-5.46D-06 OVMax= 4.77D-04

 Cycle   5  Pass 1  IDiag  3:
 E= -2.22257246300832     Delta-E=       -0.000000590230 Rises=F Damp=F
 DIIS: error= 2.05D-05 at cycle   5 NSaved=   5.
 NSaved= 5 IEnMin= 5 EnMin= -2.22257246300832     IErMin= 5 ErrMin= 2.05D-05
 ErrMax= 2.05D-05  0.00D+00 EMaxC= 1.00D-01 BMatC= 1.17D-08 BMatP= 8.68D-08
 IDIUse=1 WtCom= 1.00D+00 WtEn= 0.00D+00
 Coeff-Com:  0.230D-01-0.989D-01 0.301D+00-0.846D+00 0.162D+01
 Coeff:      0.230D-01-0.989D-01 0.301D+00-0.846D+00 0.162D+01
 Gap=     0.500 Goal=   None    Shift=    0.000
 RMSDP=1.85D-05 MaxDP=1.51D-04 DE=-5.90D-07 OVMax= 1.24D-04

 Cycle   6  Pass 1  IDiag  3:
 E= -2.22257254395900     Delta-E=       -0.000000080951 Rises=F Damp=F
 DIIS: error= 7.53D-06 at cycle   6 NSaved=   6.
 NSaved= 6 IEnMin= 6 EnMin= -2.22257254395900     IErMin= 6 ErrMin= 7.53D-06
 ErrMax= 7.53D-06  0.00D+00 EMaxC= 1.00D-01 BMatC= 1.59D-09 BMatP= 1.17D-08
 IDIUse=1 WtCom= 1.00D+00 WtEn= 0.00D+00
 Coeff-Com:  0.124D-02-0.396D-02-0.103D-01 0.184D+00-0.818D+00 0.165D+01
 Coeff:      0.124D-02-0.396D-02-0.103D-01 0.184D+00-0.818D+00 0.165D+01
 Gap=     0.500 Goal=   None    Shift=    0.000
 RMSDP=7.34D-06 MaxDP=5.38D-05 DE=-8.10D-08 OVMax= 5.39D-05

 Cycle   7  Pass 1  IDiag  3:
 E= -2.22257255560763     Delta-E=       -0.000000011649 Rises=F Damp=F
 DIIS: error= 2.48D-06 at cycle   7 NSaved=   7.
 NSaved= 7 IEnMin= 7 EnMin= -2.22257255560763     IErMin= 7 ErrMin= 2.48D-06
 ErrMax= 2.48D-06  0.00D+00 EMaxC= 1.00D-01 BMatC= 1.94D-10 BMatP= 1.59D-09
 IDIUse=1 WtCom= 1.00D+00 WtEn= 0.00D+00
 Coeff-Com: -0.242D-02 0.935D-02-0.117D-01-0.835D-01 0.520D+00-0.133D+01
 Coeff-Com:  0.190D+01
 Coeff:     -0.242D-02 0.935D-02-0.117D-01-0.835D-01 0.520D+00-0.133D+01
 Coeff:      0.190D+01
 Gap=     0.500 Goal=   None    Shift=    0.000
 RMSDP=2.69D-06 MaxDP=2.28D-05 DE=-1.16D-08 OVMax= 1.95D-05

 Cycle   8  Pass 1  IDiag  3:
 E= -2.22257255709378     Delta-E=       -0.000000001486 Rises=F Damp=F
 DIIS: error= 8.26D-07 at cycle   8 NSaved=   8.
 NSaved= 8 IEnMin= 8 EnMin= -2.22257255709378     IErMin= 8 ErrMin= 8.26D-07
 ErrMax= 8.26D-07  0.00D+00 EMaxC= 1.00D-01 BMatC= 1.99D-11 BMatP= 1.94D-10
 IDIUse=1 WtCom= 1.00D+00 WtEn= 0.00D+00
 Coeff-Com:  0.207D-02-0.831D-02 0.156D-01 0.212D-01-0.239D+00 0.702D+00
 Coeff-Com: -0.133D+01 0.184D+01
 Coeff:      0.207D-02-0.831D-02 0.156D-01 0.212D-01-0.239D+00 0.702D+00
 Coeff:     -0.133D+01 0.184D+01
 Gap=     0.500 Goal=   None    Shift=    0.000
 RMSDP=9.33D-07 MaxDP=7.66D-06 DE=-1.49D-09 OVMax= 6.77D-06

 Cycle   9  Pass 1  IDiag  3:
 E= -2.22257255723484     Delta-E=       -0.000000000141 Rises=F Damp=F
 DIIS: error= 1.02D-07 at cycle   9 NSaved=   9.
 NSaved= 9 IEnMin= 9 EnMin= -2.22257255723484     IErMin= 9 ErrMin= 1.02D-07
 ErrMax= 1.02D-07  0.00D+00 EMaxC= 1.00D-01 BMatC= 4.61D-13 BMatP= 1.99D-11
 IDIUse=1 WtCom= 1.00D+00 WtEn= 0.00D+00
 Coeff-Com: -0.568D-03 0.229D-02-0.431D-02-0.572D-02 0.652D-01-0.194D+00
 Coeff-Com:  0.390D+00-0.657D+00 0.140D+01
 Coeff:     -0.568D-03 0.229D-02-0.431D-02-0.572D-02 0.652D-01-0.194D+00
 Coeff:      0.390D+00-0.657D+00 0.140D+01
 Gap=     0.500 Goal=   None    Shift=    0.000
 RMSDP=1.03D-07 MaxDP=6.13D-07 DE=-1.41D-10 OVMax= 5.63D-07

 Cycle  10  Pass 1  IDiag  3:
 E= -2.22257255723741     Delta-E=       -0.000000000003 Rises=F Damp=F
 DIIS: error= 1.29D-08 at cycle  10 NSaved=  10.
 NSaved=10 IEnMin=10 EnMin= -2.22257255723741     IErMin=10 ErrMin= 1.29D-08
 ErrMax= 1.29D-08  0.00D+00 EMaxC= 1.00D-01 BMatC= 1.03D-14 BMatP= 4.61D-13
 IDIUse=1 WtCom= 1.00D+00 WtEn= 0.00D+00
 Coeff-Com:  0.106D-03-0.427D-03 0.810D-03 0.102D-02-0.120D-01 0.361D-01
 Coeff-Com: -0.754D-01 0.138D+00-0.408D+00 0.132D+01
 Coeff:      0.106D-03-0.427D-03 0.810D-03 0.102D-02-0.120D-01 0.361D-01
 Coeff:     -0.754D-01 0.138D+00-0.408D+00 0.132D+01
 Gap=     0.500 Goal=   None    Shift=    0.000
 RMSDP=1.29D-08 MaxDP=6.46D-08 DE=-2.57D-12 OVMax= 8.56D-08

 Cycle  11  Pass 1  IDiag  3:
 E= -2.22257255723736     Delta-E=        0.000000000000 Rises=F Damp=F
 DIIS: error= 2.47D-09 at cycle  11 NSaved=  11.
 NSaved=11 IEnMin=10 EnMin= -2.22257255723741     IErMin=11 ErrMin= 2.47D-09
 ErrMax= 2.47D-09  0.00D+00 EMaxC= 1.00D-01 BMatC= 2.83D-16 BMatP= 1.03D-14
 IDIUse=1 WtCom= 1.00D+00 WtEn= 0.00D+00
 Coeff-Com: -0.251D-04 0.101D-03-0.187D-03-0.281D-03 0.301D-02-0.899D-02
 Coeff-Com:  0.190D-01-0.356D-01 0.117D+00-0.482D+00 0.139D+01
 Coeff:     -0.251D-04 0.101D-03-0.187D-03-0.281D-03 0.301D-02-0.899D-02
 Coeff:      0.190D-01-0.356D-01 0.117D+00-0.482D+00 0.139D+01
 Gap=     0.500 Goal=   None    Shift=    0.000
 RMSDP=2.14D-09 MaxDP=1.18D-08 DE= 5.68D-14 OVMax= 1.41D-08

 Cycle  12  Pass 2  IDiag  1:
 SCF Done:  E(RAM1) =  -2.22257255724     A.U. after   12 cycles
            NFock= 11  Conv=0.21D-08     -V/T= 0.8777
 KE=-1.816965830306D+01 PE=-1.696088664804D+02 EE= 8.439705596523D+01
 Leave Link  502 at Mon Nov 23 13:23:32 2015, MaxMem=    33554432 cpu:         0.0
 (Enter /home/Applications/g09/g09/l701.exe)
 Compute integral first derivatives.
 ... and contract with generalized density number  0.
 Leave Link  701 at Mon Nov 23 13:23:32 2015, MaxMem=    33554432 cpu:         0.0
 (Enter /home/Applications/g09/g09/l702.exe)
 L702 exits ... SP integral derivatives will be done elsewhere.
 Leave Link  702 at Mon Nov 23 13:23:32 2015, MaxMem=    33554432 cpu:         0.0
 (Enter /home/Applications/g09/g09/l703.exe)
 Compute integral first derivatives, UseDBF=F ICtDFT=           0.
 Integral derivatives from FoFJK, PRISM(SPDF).
 Calling FoFJK, ICntrl=      2127 FMM=F ISym2X=0 I1Cent= 0 IOpClX= 0 NMat=1 NMatS=1 NMatT=0.
 FoFJK:  IHMeth= 8 ICntrl=    2127 DoSepK=F KAlg= 0 I1Cent=   0 FoldK=F
 IRaf=         0 NMat=   1 IRICut=       1 DoRegI=T DoRafI=F ISym2E= 0.
 FoFCou: FMM=F IPFlag=           0 FMFlag=      100000 FMFlg1=         800
         NFxFlg=           0 DoJE=F BraDBF=F KetDBF=F FulRan=T
         wScrn=  0.000000 ICntrl=    2127 IOpCl=  0 I1Cent=           0 NGrid=           0
         NMat0=    1 NMatS0=      1 NMatT0=    0 NMatD0=    1 NMtDS0=    0 NMtDT0=    0
 Symmetry not used in FoFCou.
 Leave Link  703 at Mon Nov 23 13:23:32 2015, MaxMem=    33554432 cpu:         0.0
 (Enter /home/Applications/g09/g09/l716.exe)
 Dipole        = 1.90200281D-03-3.71608382D-01-1.88345318D-03
 ***** Axes restored to original set *****
 -------------------------------------------------------------------
 Center     Atomic                   Forces (Hartrees/Bohr)
 Number     Number              X              Y              Z
 -------------------------------------------------------------------
      1        6          -0.003027207   -0.007815439    0.002304459
      2        6           0.000780835    0.002438715   -0.000499343
      3        8           0.004129094   -0.000756401   -0.001264609
      4        6           0.001403823    0.002467565    0.002799690
      5        6          -0.002878638    0.004912414   -0.003615484
      6        1          -0.000196720   -0.001471476    0.000238831
      7        1           0.000406881   -0.003244398    0.000054766
      8        1           0.000574664    0.000286275   -0.000153028
      9        1          -0.001192732    0.003182745    0.000134718
 -------------------------------------------------------------------
 Cartesian Forces:  Max     0.007815439 RMS     0.002638270
 Leave Link  716 at Mon Nov 23 13:23:32 2015, MaxMem=    33554432 cpu:         0.0
 (Enter /home/Applications/g09/g09/l103.exe)

 GradGradGradGradGradGradGradGradGradGradGradGradGradGradGradGradGradGrad
 Berny optimization.
 Using GEDIIS/GDIIS optimizer.
 FormGI is forming the generalized inverse of G from B-inverse, IUseBI=4.
 Internal  Forces:  Max     0.004163660 RMS     0.001539783
 Search for a local minimum.
 Step number   3 out of a maximum of   48
 All quantities printed in internal units (Hartrees-Bohrs-Radians)
 RMS Force = .15398D-02 SwitMx=.10000D-02 MixMth= 1
 Mixed Optimization -- RFO/linear search
 Update second derivatives using D2CorX and points    1    2    3
 DE= -1.03D-03 DEPred=-1.01D-03 R= 1.02D+00
 TightC=F SS=  1.41D+00  RLast= 1.34D-01 DXNew= 8.4853D-01 4.0210D-01
 Trust test= 1.02D+00 RLast= 1.34D-01 DXMaxT set to 5.05D-01
 ITU=  1  1  0
 Use linear search instead of GDIIS.
     Eigenvalues ---    0.01707   0.01852   0.01913   0.01966   0.02152
     Eigenvalues ---    0.02470   0.11463   0.16000   0.16029   0.16477
     Eigenvalues ---    0.21797   0.24212   0.35650   0.36755   0.38492
     Eigenvalues ---    0.39033   0.39857   0.43421   0.46431   0.54537
     Eigenvalues ---    0.57125
 RFO step:  Lambda=-6.44150610D-04 EMin= 1.70658131D-02
 Quartic linear search produced a step of  0.04638.
 Iteration  1 RMS(Cart)=  0.01890425 RMS(Int)=  0.00048936
 Iteration  2 RMS(Cart)=  0.00035205 RMS(Int)=  0.00037038
 Iteration  3 RMS(Cart)=  0.00000016 RMS(Int)=  0.00037038
 ITry= 1 IFail=0 DXMaxC= 5.36D-02 DCOld= 1.00D+10 DXMaxT= 5.05D-01 DXLimC= 3.00D+00 Rises=F
 Variable       Old X    -DE/DX   Delta X   Delta X   Delta X     New X
                                 (Linear)    (Quad)   (Total)
    R1        2.60075  -0.00416   0.00019  -0.01161  -0.01135   2.58939
    R2        2.65193   0.00296   0.00171   0.01694   0.01858   2.67051
    R3        2.04527  -0.00285   0.00020  -0.00570  -0.00550   2.03978
    R4        2.61625  -0.00234   0.00010  -0.00542  -0.00522   2.61103
    R5        2.04254  -0.00050   0.00050   0.00248   0.00298   2.04552
    R6        2.61146  -0.00126   0.00048   0.00256   0.00303   2.61448
    R7        2.59969  -0.00345  -0.00061  -0.01331  -0.01400   2.58569
    R8        2.04904  -0.00315  -0.00028  -0.00627  -0.00655   2.04249
    R9        2.04074  -0.00103   0.00045  -0.00030   0.00014   2.04088
    A1        1.86394   0.00002  -0.00090  -0.00460  -0.00606   1.85788
    A2        2.21247   0.00188   0.00227   0.02747   0.02959   2.24206
    A3        2.20676  -0.00190  -0.00136  -0.02265  -0.02408   2.18268
    A4        1.93051  -0.00068   0.00096   0.00368   0.00443   1.93495
    A5        2.27671  -0.00008  -0.00102  -0.00893  -0.00994   2.26677
    A6        2.07597   0.00076   0.00007   0.00524   0.00533   2.08129
[...]
 Coeff-Com: -0.160D+01 0.194D+01
 Coeff:      0.111D-02-0.419D-02 0.261D-02 0.135D+00-0.644D+00 0.117D+01
 Coeff:     -0.160D+01 0.194D+01
 Gap=     0.503 Goal=   None    Shift=    0.000
 RMSDP=2.33D-08 MaxDP=1.91D-07 DE=-1.25D-12 OVMax= 1.65D-07

 Cycle   9  Pass 1  IDiag  3:
 E= -2.22276998009201     Delta-E=        0.000000000000 Rises=F Damp=F
 DIIS: error= 6.63D-09 at cycle   9 NSaved=   9.
 NSaved= 9 IEnMin= 8 EnMin= -2.22276998009204     IErMin= 9 ErrMin= 6.63D-09
 ErrMax= 6.63D-09  0.00D+00 EMaxC= 1.00D-01 BMatC= 1.32D-15 BMatP= 1.51D-14
 IDIUse=1 WtCom= 1.00D+00 WtEn= 0.00D+00
 Coeff-Com: -0.564D-03 0.213D-02-0.117D-02-0.708D-01 0.336D+00-0.611D+00
 Coeff-Com:  0.861D+00-0.131D+01 0.179D+01
 Coeff:     -0.564D-03 0.213D-02-0.117D-02-0.708D-01 0.336D+00-0.611D+00
 Coeff:      0.861D+00-0.131D+01 0.179D+01
 Gap=     0.503 Goal=   None    Shift=    0.000
 RMSDP=7.50D-09 MaxDP=6.32D-08 DE= 2.84D-14 OVMax= 4.77D-08

 Cycle  10  Pass 2  IDiag  1:
 SCF Done:  E(RAM1) =  -2.22276998009     A.U. after   10 cycles
            NFock=  9  Conv=0.75D-08     -V/T= 0.8777
 KE=-1.817565399252D+01 PE=-1.696868364672D+02 EE= 8.443593189918D+01
 Leave Link  502 at Mon Nov 23 13:23:33 2015, MaxMem=    33554432 cpu:         0.0
 (Enter /home/Applications/g09/g09/l701.exe)
 Compute integral first derivatives.
 ... and contract with generalized density number  0.
 Leave Link  701 at Mon Nov 23 13:23:33 2015, MaxMem=    33554432 cpu:         0.0
 (Enter /home/Applications/g09/g09/l702.exe)
 L702 exits ... SP integral derivatives will be done elsewhere.
 Leave Link  702 at Mon Nov 23 13:23:33 2015, MaxMem=    33554432 cpu:         0.0
 (Enter /home/Applications/g09/g09/l703.exe)
 Compute integral first derivatives, UseDBF=F ICtDFT=           0.
 Integral derivatives from FoFJK, PRISM(SPDF).
 Calling FoFJK, ICntrl=      2127 FMM=F ISym2X=0 I1Cent= 0 IOpClX= 0 NMat=1 NMatS=1 NMatT=0.
 FoFJK:  IHMeth= 8 ICntrl=    2127 DoSepK=F KAlg= 0 I1Cent=   0 FoldK=F
 IRaf=         0 NMat=   1 IRICut=       1 DoRegI=T DoRafI=F ISym2E= 0.
 FoFCou: FMM=F IPFlag=           0 FMFlag=      100000 FMFlg1=         800
         NFxFlg=           0 DoJE=F BraDBF=F KetDBF=F FulRan=T
         wScrn=  0.000000 ICntrl=    2127 IOpCl=  0 I1Cent=           0 NGrid=           0
         NMat0=    1 NMatS0=      1 NMatT0=    0 NMatD0=    1 NMtDS0=    0 NMtDT0=    0
 Symmetry not used in FoFCou.
 Leave Link  703 at Mon Nov 23 13:23:33 2015, MaxMem=    33554432 cpu:         0.0
 (Enter /home/Applications/g09/g09/l716.exe)
 Dipole        =-4.16426407D-05-3.71497773D-01 3.51704079D-04
 ***** Axes restored to original set *****
 -------------------------------------------------------------------
 Center     Atomic                   Forces (Hartrees/Bohr)
 Number     Number              X              Y              Z
 -------------------------------------------------------------------
      1        6          -0.000046389    0.000019811    0.000031384
      2        6           0.000107097   -0.000060506    0.000024264
      3        8           0.000008368    0.000042582   -0.000001604
      4        6           0.000026965   -0.000020882   -0.000013576
      5        6          -0.000042277    0.000025923    0.000019804
      6        1           0.000008608   -0.000006739   -0.000013159
      7        1          -0.000017289    0.000020652   -0.000003458
      8        1          -0.000022750   -0.000004717   -0.000021554
      9        1          -0.000022332   -0.000016125   -0.000022101
 -------------------------------------------------------------------
 Cartesian Forces:  Max     0.000107097 RMS     0.000032555
 Leave Link  716 at Mon Nov 23 13:23:33 2015, MaxMem=    33554432 cpu:         0.0
 (Enter /home/Applications/g09/g09/l103.exe)

 GradGradGradGradGradGradGradGradGradGradGradGradGradGradGradGradGradGrad
 Berny optimization.
 Using GEDIIS/GDIIS optimizer.
 FormGI is forming the generalized inverse of G from B-inverse, IUseBI=4.
 Internal  Forces:  Max     0.000063077 RMS     0.000019398
 Search for a local minimum.
 Step number   9 out of a maximum of   48
 All quantities printed in internal units (Hartrees-Bohrs-Radians)
 RMS Force = .19398D-04 SwitMx=.10000D-02 MixMth= 2
 Mixed Optimization -- En-DIIS/RFO-DIIS
 Swapping is turned off.
 Update second derivatives using D2CorX and points    1    2    4    3    5
                                                      6    7    8    9
 DE= -5.34D-06 DEPred=-5.33D-06 R= 1.00D+00
 TightC=F SS=  1.41D+00  RLast= 9.56D-03 DXNew= 4.2426D-01 2.8673D-02
 Trust test= 1.00D+00 RLast= 9.56D-03 DXMaxT set to 2.52D-01
 ITU=  1  0  1  0  0 -1  1  1  0
     Eigenvalues ---    0.01849   0.01905   0.01988   0.02260   0.08574
     Eigenvalues ---    0.08706   0.09673   0.13893   0.16034   0.16179
     Eigenvalues ---    0.21613   0.23850   0.36457   0.38008   0.38454
     Eigenvalues ---    0.39871   0.41031   0.43449   0.46541   0.55031
     Eigenvalues ---    0.73744
 En-DIIS/RFO-DIIS IScMMF=        0 using points:     9    8    7    6    5
 RFO step:  Lambda=-3.39860035D-08.
 NNeg= 0 NP= 5 Switch=  2.50D-03 Rises=F DC=  3.90D-05 SmlDif=  1.00D-05
 RMS Error=  0.5725348267D-04 NUsed= 5 EDIIS=F
 DidBck=F Rises=F RFO-DIIS coefs:    0.94577    0.01750    0.01725    0.01375    0.00573
 Iteration  1 RMS(Cart)=  0.00025395 RMS(Int)=  0.00000022
 Iteration  2 RMS(Cart)=  0.00000010 RMS(Int)=  0.00000020
 ITry= 1 IFail=0 DXMaxC= 7.84D-04 DCOld= 1.00D+10 DXMaxT= 2.52D-01 DXLimC= 3.00D+00 Rises=F
 Variable       Old X    -DE/DX   Delta X   Delta X   Delta X     New X
                                 (Linear)    (Quad)   (Total)
    R1        2.59126  -0.00006  -0.00003  -0.00008  -0.00011   2.59115
    R2        2.66438   0.00002   0.00004  -0.00001   0.00003   2.66440
    R3        2.03830  -0.00001  -0.00003   0.00003   0.00000   2.03830
    R4        2.61305   0.00004  -0.00002   0.00011   0.00009   2.61314
    R5        2.04194   0.00001   0.00002   0.00001   0.00003   2.04197
    R6        2.61321  -0.00001   0.00000  -0.00005  -0.00005   2.61316
    R7        2.59119  -0.00003  -0.00001  -0.00004  -0.00005   2.59114
    R8        2.04189   0.00003  -0.00001   0.00006   0.00005   2.04194
    R9        2.03829   0.00000   0.00000   0.00003   0.00002   2.03831
    A1        1.86287   0.00002  -0.00002   0.00011   0.00009   1.86296
    A2        2.23561  -0.00004   0.00003  -0.00028  -0.00026   2.23536
    A3        2.18470   0.00002   0.00000   0.00017   0.00017   2.18487
    A4        1.92985  -0.00003   0.00002  -0.00015  -0.00012   1.92973
    A5        2.27485   0.00003  -0.00008   0.00029   0.00021   2.27506
    A6        2.07848  -0.00001   0.00005  -0.00014  -0.00008   2.07840
    A7        1.83930   0.00002   0.00000   0.00010   0.00010   1.83939
    A8        1.92976  -0.00002  -0.00001  -0.00005  -0.00005   1.92971
    A9        2.07839   0.00000   0.00005  -0.00008  -0.00003   2.07836
   A10        2.27504   0.00002  -0.00005   0.00013   0.00008   2.27512
   A11        1.86299   0.00000   0.00001  -0.00001   0.00000   1.86298
   A12        2.18498  -0.00001   0.00004  -0.00008  -0.00004   2.18494
   A13        2.23521   0.00001  -0.00005   0.00009   0.00005   2.23526
    D1        0.00001   0.00000   0.00000  -0.00006  -0.00006  -0.00004
    D2       -3.14115  -0.00002  -0.00003  -0.00088  -0.00091   3.14113
    D3        3.14117   0.00002   0.00004   0.00076   0.00080  -3.14122
    D4        0.00001   0.00000   0.00001  -0.00006  -0.00005  -0.00005
    D5        0.00001   0.00000  -0.00002   0.00002   0.00000   0.00001
    D6        3.14134   0.00001   0.00003   0.00050   0.00053  -3.14132
    D7       -3.14116  -0.00002  -0.00005  -0.00077  -0.00082   3.14121
    D8        0.00017  -0.00001  -0.00001  -0.00029  -0.00030  -0.00013
    D9       -0.00003   0.00000   0.00001   0.00007   0.00009   0.00006
   D10        3.14118   0.00002   0.00004   0.00079   0.00083  -3.14117
   D11        0.00004   0.00000  -0.00002  -0.00006  -0.00009  -0.00005
   D12       -3.14152  -0.00001   0.00002  -0.00026  -0.00024   3.14143
   D13       -0.00003   0.00000   0.00003   0.00003   0.00005   0.00002
   D14       -3.14135  -0.00001  -0.00002  -0.00047  -0.00049   3.14135
   D15        3.14152   0.00001  -0.00002   0.00025   0.00023  -3.14143
   D16        0.00020  -0.00001  -0.00007  -0.00024  -0.00031  -0.00011
         Item               Value     Threshold  Converged?
 Maximum Force            0.000063     0.000450     YES
 RMS     Force            0.000019     0.000300     YES
 Maximum Displacement     0.000784     0.001800     YES
 RMS     Displacement     0.000254     0.001200     YES
 Predicted change in Energy=-6.211877D-08
 Optimization completed.
    -- Stationary point found.
                           ----------------------------
                           !   Optimized Parameters   !
                           ! (Angstroms and Degrees)  !
 --------------------------                            --------------------------
 ! Name  Definition              Value          Derivative Info.                !
 --------------------------------------------------------------------------------
 ! R1    R(1,2)                  1.3712         -DE/DX =   -0.0001              !
 ! R2    R(1,5)                  1.4099         -DE/DX =    0.0                 !
 ! R3    R(1,9)                  1.0786         -DE/DX =    0.0                 !
 ! R4    R(2,3)                  1.3828         -DE/DX =    0.0                 !
 ! R5    R(2,8)                  1.0805         -DE/DX =    0.0                 !
 ! R6    R(3,4)                  1.3829         -DE/DX =    0.0                 !
 ! R7    R(4,5)                  1.3712         -DE/DX =    0.0                 !
 ! R8    R(4,7)                  1.0805         -DE/DX =    0.0                 !
 ! R9    R(5,6)                  1.0786         -DE/DX =    0.0                 !
 ! A1    A(2,1,5)              106.7349         -DE/DX =    0.0                 !
 ! A2    A(2,1,9)              128.0911         -DE/DX =    0.0                 !
 ! A3    A(5,1,9)              125.1741         -DE/DX =    0.0                 !
 ! A4    A(1,2,3)              110.5724         -DE/DX =    0.0                 !
 ! A5    A(1,2,8)              130.3392         -DE/DX =    0.0                 !
 ! A6    A(3,2,8)              119.0884         -DE/DX =    0.0                 !
 ! A7    A(2,3,4)              105.384          -DE/DX =    0.0                 !
 ! A8    A(3,4,5)              110.5674         -DE/DX =    0.0                 !
 ! A9    A(3,4,7)              119.0827         -DE/DX =    0.0                 !
 ! A10   A(5,4,7)              130.3499         -DE/DX =    0.0                 !
 ! A11   A(1,5,4)              106.7414         -DE/DX =    0.0                 !
 ! A12   A(1,5,6)              125.1904         -DE/DX =    0.0                 !
 ! A13   A(4,5,6)              128.0682         -DE/DX =    0.0                 !
 ! D1    D(5,1,2,3)              0.0007         -DE/DX =    0.0                 !
 ! D2    D(5,1,2,8)            180.0254         -DE/DX =    0.0                 !
 ! D3    D(9,1,2,3)           -180.0243         -DE/DX =    0.0                 !
 ! D4    D(9,1,2,8)              0.0004         -DE/DX =    0.0                 !
 ! D5    D(2,1,5,4)              0.0008         -DE/DX =    0.0                 !
 ! D6    D(2,1,5,6)           -180.0146         -DE/DX =    0.0                 !
 ! D7    D(9,1,5,4)            180.0248         -DE/DX =    0.0                 !
 ! D8    D(9,1,5,6)              0.0095         -DE/DX =    0.0                 !
 ! D9    D(1,2,3,4)             -0.0018         -DE/DX =    0.0                 !
 ! D10   D(8,2,3,4)           -180.0234         -DE/DX =    0.0                 !
 ! D11   D(2,3,4,5)              0.0023         -DE/DX =    0.0                 !
 ! D12   D(2,3,4,7)            180.0043         -DE/DX =    0.0                 !
 ! D13   D(3,4,5,1)             -0.002          -DE/DX =    0.0                 !
 ! D14   D(3,4,5,6)            180.014          -DE/DX =    0.0                 !
 ! D15   D(7,4,5,1)           -180.0043         -DE/DX =    0.0                 !
 ! D16   D(7,4,5,6)              0.0117         -DE/DX =    0.0                 !
 --------------------------------------------------------------------------------
 Lowest energy point so far.  Saving SCF results.
 GradGradGradGradGradGradGradGradGradGradGradGradGradGradGradGradGradGrad

 Largest change from initial coordinates is atom    7       0.721 Angstoms.
 Leave Link  103 at Mon Nov 23 13:23:33 2015, MaxMem=    33554432 cpu:         0.0
 (Enter /home/Applications/g09/g09/l202.exe)
                          Input orientation:                          
 ---------------------------------------------------------------------
 Center     Atomic      Atomic             Coordinates (Angstroms)
 Number     Number       Type             X           Y           Z
 ---------------------------------------------------------------------
      1          6           0        0.931928   -0.694752   -0.010115
      2          6           0       -0.382166   -1.085971    0.009672
      3          8           0       -1.217212    0.016167    0.015750
      4          6           0       -0.376179    1.113738   -0.000946
      5          6           0        0.935714    0.715155   -0.016932
      6          1           0        1.818790    1.334323   -0.031714
      7          1           0       -0.806212    2.105000    0.000226
      8          1           0       -0.817449   -2.074903    0.020715
      9          1           0        1.811850   -1.318519   -0.018744
 ---------------------------------------------------------------------
                    Distance matrix (angstroms):
                    1          2          3          4          5
     1  C    0.000000
     2  C    1.371235   0.000000
     3  O    2.263819   1.382768   0.000000
     4  C    2.232009   2.199742   1.382851   0.000000
     5  C    1.409928   2.231943   2.263790   1.371199   0.000000
     6  H    2.214528   3.271657   3.310150   2.206240   1.078615
     7  H    3.295428   3.219037   2.128940   1.080523   2.228513
     8  H    2.228472   1.080546   2.128945   3.219102   3.295363
     9  H    1.078621   2.206488   3.310256   3.271645   2.214372
                    6          7          8          9
     6  H    0.000000
     7  H    2.735982   0.000000
     8  H    4.309910   4.179968   0.000000
     9  H    2.652882   4.309882   2.736218   0.000000
 Stoichiometry    C4H4O
 Framework group  C1[X(C4H4O)]
 Deg. of freedom    21
 Full point group                 C1      NOp   1
 RotChk:  IX=0 Diff= 1.60D-15
 Largest Abelian subgroup         C1      NOp   1
 Largest concise Abelian subgroup C1      NOp   1
                         Standard orientation:                         
 ---------------------------------------------------------------------
 Center     Atomic      Atomic             Coordinates (Angstroms)
 Number     Number       Type             X           Y           Z
 ---------------------------------------------------------------------
      1          6           0        0.705050    0.963743   -0.000069
      2          6           0        1.099829   -0.349435   -0.000041
      3          8           0       -0.000057   -1.187467   -0.000012
      4          6           0       -1.099913   -0.349259    0.000021
      5          6           0       -0.704879    0.963805   -0.000040
      6          1           0       -1.326441    1.845321    0.000173
      7          1           0       -2.090019   -0.781949    0.000119
      8          1           0        2.089949   -0.782150    0.000315
      9          1           0        1.326441    1.845386    0.000266
 ---------------------------------------------------------------------
 Rotational constants (GHZ):      9.4797482      9.0557728      4.6314558
 Leave Link  202 at Mon Nov 23 13:23:33 2015, MaxMem=    33554432 cpu:         0.0
 (Enter /home/Applications/g09/g09/l601.exe)
 Copying SCF densities to generalized density rwf, IOpCl= 0 IROHF=0.

 **********************************************************************

            Population analysis using the SCF density.

 **********************************************************************

 Orbital symmetries:
       Occupied  (A) (A) (A) (A) (A) (A) (A) (A) (A) (A) (A) (A)
                 (A)
       Virtual   (A) (A) (A) (A) (A) (A) (A) (A) (A) (A) (A)
 The electronic state is 1-A.
 Alpha  occ. eigenvalues --   -1.54127  -1.12516  -1.09746  -0.86224  -0.82770
 Alpha  occ. eigenvalues --   -0.79445  -0.73518  -0.49101  -0.44005  -0.42800
 Alpha  occ. eigenvalues --   -0.42642  -0.39760  -0.32877
 Alpha virt. eigenvalues --    0.17407   0.19058   0.26819   0.29319   0.30759
 Alpha virt. eigenvalues --    0.32543   0.34396   0.36015   0.40431   0.41779
 Alpha virt. eigenvalues --    0.44845
          Condensed to atoms (all electrons):
               1          2          3          4          5          6
     1  C    4.292624   0.000000   0.000000   0.000000   0.000000   0.000000
     2  C    0.000000   4.051984   0.000000   0.000000   0.000000   0.000000
     3  O    0.000000   0.000000   5.890757   0.000000   0.000000   0.000000
     4  C    0.000000   0.000000   0.000000   4.052157   0.000000   0.000000
     5  C    0.000000   0.000000   0.000000   0.000000   4.292440   0.000000
     6  H    0.000000   0.000000   0.000000   0.000000   0.000000   0.849114
     7  H    0.000000   0.000000   0.000000   0.000000   0.000000   0.000000
     8  H    0.000000   0.000000   0.000000   0.000000   0.000000   0.000000
     9  H    0.000000   0.000000   0.000000   0.000000   0.000000   0.000000
               7          8          9
     1  C    0.000000   0.000000   0.000000
     2  C    0.000000   0.000000   0.000000
     3  O    0.000000   0.000000   0.000000
     4  C    0.000000   0.000000   0.000000
     5  C    0.000000   0.000000   0.000000
     6  H    0.000000   0.000000   0.000000
     7  H    0.860908   0.000000   0.000000
     8  H    0.000000   0.860931   0.000000
     9  H    0.000000   0.000000   0.849084
 Mulliken charges:
               1
     1  C   -0.292624
     2  C   -0.051984
     3  O    0.109243
     4  C   -0.052157
     5  C   -0.292440
     6  H    0.150886
     7  H    0.139092
     8  H    0.139069
     9  H    0.150916
 Sum of Mulliken charges =   0.00000
 Mulliken charges with hydrogens summed into heavy atoms:
               1
     1  C   -0.141708
     2  C    0.087084
     3  O    0.109243
     4  C    0.086935
     5  C   -0.141554
 Charge=              0.0000 electrons
 Dipole moment (field-independent basis, Debye):
    X=             -0.0001    Y=             -0.9443    Z=              0.0009  Tot=              0.9443
 N-N= 1.012037885804D+02 E-N=-1.696868364624D+02  KE=-1.817565399252D+01
 Leave Link  601 at Mon Nov 23 13:23:33 2015, MaxMem=    33554432 cpu:         0.0
 (Enter /home/Applications/g09/g09/l9999.exe)
 1\1\GINC-DUSTIN-DESKTOP\FOpt\RAM1\ZDO\C4H4O1\DUSTIN\23-Nov-2015\0\\#P 
 AM1(Input,print) Opt\\AM1-Reparam Input\\0,1\C,0.9319275703,-0.6947517
 846,-0.0101150239\C,-0.3821656689,-1.0859709563,0.0096724377\O,-1.2172
 123313,0.0161666702,0.0157498424\C,-0.37617942,1.113737669,-0.00094623
 43\C,0.9357137297,0.7151548382,-0.0169315242\H,1.8187896512,1.33432254
 51,-0.0317138136\H,-0.8062121492,2.1049996263,0.0002255134\H,-0.817449
 1507,-2.0749029784,0.0207151379\H,1.811849769,-1.3185186294,-0.0187443
 355\\Version=ES64L-G09RevD.01\State=1-A\HF=-2.22277\RMSD=7.504e-09\RMS
 F=3.256e-05\Dipole=-0.3714572,0.0010489,0.0053995\PG=C01 [X(C4H4O1)]\\
 @


 IF YOU GIVE A BOY AND A PIG EVERYTHING THEY WANT,
 YOU'LL GET A BAD BOY AND A GOOD PIG.
 Job cpu time:       0 days  0 hours  0 minutes  1.5 seconds.
 File lengths (MBytes):  RWF=      5 Int=      0 D2E=      0 Chk=      2 Scr=      1
 Normal termination of Gaussian 09 at Mon Nov 23 13:23:33 2015.
