 Entering Gaussian System, Link 0=g09
 Input=FuranAM1Best9.com
 Output=FuranAM1Best9.log
 Initial command:
 /home/Applications/g09/g09/l1.exe "/home/Applications/g09/scratch/Gau-4890.inp" -scrdir="/home/Applications/g09/scratch/"
 Entering Link 1 = /home/Applications/g09/g09/l1.exe PID=      4892.
  
 Copyright (c) 1988,1990,1992,1993,1995,1998,2003,2009,2013,
            Gaussian, Inc.  All Rights Reserved.
  
 This is part of the Gaussian(R) 09 program.  It is based on
 the Gaussian(R) 03 system (copyright 2003, Gaussian, Inc.),
 the Gaussian(R) 98 system (copyright 1998, Gaussian, Inc.),
 the Gaussian(R) 94 system (copyright 1995, Gaussian, Inc.),
 the Gaussian 92(TM) system (copyright 1992, Gaussian, Inc.),
 the Gaussian 90(TM) system (copyright 1990, Gaussian, Inc.),
 the Gaussian 88(TM) system (copyright 1988, Gaussian, Inc.),
 the Gaussian 86(TM) system (copyright 1986, Carnegie Mellon
 University), and the Gaussian 82(TM) system (copyright 1983,
 Carnegie Mellon University). Gaussian is a federally registered
 trademark of Gaussian, Inc.
  
 This software contains proprietary and confidential information,
 including trade secrets, belonging to Gaussian, Inc.
  
 This software is provided under written license and may be
 used, copied, transmitted, or stored only in accord with that
 written license.
  
 The following legend is applicable only to US Government
 contracts under FAR:
  
                    RESTRICTED RIGHTS LEGEND
  
 Use, reproduction and disclosure by the US Government is
 subject to restrictions as set forth in subparagraphs (a)
 and (c) of the Commercial Computer Software - Restricted
 Rights clause in FAR 52.227-19.
  
 Gaussian, Inc.
 340 Quinnipiac St., Bldg. 40, Wallingford CT 06492
  
  
 ---------------------------------------------------------------
 Warning -- This program may not be used in any manner that
 competes with the business of Gaussian, Inc. or will provide
 assistance to any competitor of Gaussian, Inc.  The licensee
 of this program is prohibited from giving any competitor of
 Gaussian, Inc. access to this program.  By using this program,
 the user acknowledges that Gaussian, Inc. is engaged in the
 business of creating and licensing software in the field of
 computational chemistry and represents and warrants to the
 licensee that it is not a competitor of Gaussian, Inc. and that
 it will not use this program in any manner prohibited above.
 ---------------------------------------------------------------
  

 Cite this work as:
 Gaussian 09, Revision D.01,
 M. J. Frisch, G. W. Trucks, H. B. Schlegel, G. E. Scuseria, 
 M. A. Robb, J. R. Cheeseman, G. Scalmani, V. Barone, B. Mennucci, 
 G. A. Petersson, H. Nakatsuji, M. Caricato, X. Li, H. P. Hratchian, 
 A. F. Izmaylov, J. Bloino, G. Zheng, J. L. Sonnenberg, M. Hada, 
 M. Ehara, K. Toyota, R. Fukuda, J. Hasegawa, M. Ishida, T. Nakajima, 
 Y. Honda, O. Kitao, H. Nakai, T. Vreven, J. A. Montgomery, Jr., 
 J. E. Peralta, F. Ogliaro, M. Bearpark, J. J. Heyd, E. Brothers, 
 K. N. Kudin, V. N. Staroverov, T. Keith, R. Kobayashi, J. Normand, 
 K. Raghavachari, A. Rendell, J. C. Burant, S. S. Iyengar, J. Tomasi, 
 M. Cossi, N. Rega, J. M. Millam, M. Klene, J. E. Knox, J. B. Cross, 
 V. Bakken, C. Adamo, J. Jaramillo, R. Gomperts, R. E. Stratmann, 
 O. Yazyev, A. J. Austin, R. Cammi, C. Pomelli, J. W. Ochterski, 
 R. L. Martin, K. Morokuma, V. G. Zakrzewski, G. A. Voth, 
 P. Salvador, J. J. Dannenberg, S. Dapprich, A. D. Daniels, 
 O. Farkas, J. B. Foresman, J. V. Ortiz, J. Cioslowski, 
 and D. J. Fox, Gaussian, Inc., Wallingford CT, 2013.
 
 ******************************************
 Gaussian 09:  ES64L-G09RevD.01 24-Apr-2013
                23-Nov-2015 
 ******************************************
 -----------------------
 #P AM1(Input,print) Opt
 -----------------------
 1/14=-1,18=20,19=15,26=1,38=1/1,3;
 2/9=110,12=2,17=6,18=5,40=1/2;
 3/5=2,16=1,25=1,41=700000,71=1,135=100,136=1/1,2,3;
 4/35=1/1;
 5/5=2,35=1,38=5/2;
 6/7=2,8=2,9=2,10=2,28=1/1;
 7//1,2,3,16;
 1/14=-1,18=20,19=15,26=1/3(2);
 2/9=110/2;
 99//99;
 2/9=110/2;
 3/5=2,16=1,25=1,41=700000,71=1,135=20,136=1/1,2,3;
 4/5=5,16=3,35=1/1;
 5/5=2,35=1,38=5/2;
 7//1,2,3,16;
 1/14=-1,18=20,19=15,26=1/3(-5);
 2/9=110/2;
 6/7=2,8=2,9=2,10=2,19=2,28=1/1;
 99/9=1/99;
 Leave Link    1 at Mon Nov 23 13:23:36 2015, MaxMem=           0 cpu:         0.0
 (Enter /home/Applications/g09/g09/l101.exe)
 -----------------
 AM1-Reparam Input
 -----------------
 Symbolic Z-matrix:
 Charge =  0 Multiplicity = 1
 6                     0.91717  -0.67901  -0.01789 
 6                    -0.39422  -1.07402  -0.03285 
 8                    -1.1649   -0.02207  -0.03697 
 6                    -0.37685   1.06051  -0.01959 
 6                     0.97371   0.68582   0.0399 
 1                     1.84205   1.35179   0.01866 
 1                    -0.84266   2.0479    0.04076 
 1                    -0.86728  -2.00411  -0.01278 
 1                     1.77847  -1.32175  -0.00875 
 
 NAtoms=      9 NQM=        9 NQMF=       0 NMMI=      0 NMMIF=      0
                NMic=       0 NMicF=      0.
                    Isotopes and Nuclear Properties:
 (Nuclear quadrupole moments (NQMom) in fm**2, nuclear magnetic moments (NMagM)
  in nuclear magnetons)

  Atom         1           2           3           4           5           6           7           8           9
 IAtWgt=          12          12          16          12          12           1           1           1           1
 AtmWgt=  12.0000000  12.0000000  15.9949146  12.0000000  12.0000000   1.0078250   1.0078250   1.0078250   1.0078250
 NucSpn=           0           0           0           0           0           1           1           1           1
 AtZEff=   0.0000000   0.0000000   0.0000000   0.0000000   0.0000000   0.0000000   0.0000000   0.0000000   0.0000000
 NQMom=    0.0000000   0.0000000   0.0000000   0.0000000   0.0000000   0.0000000   0.0000000   0.0000000   0.0000000
 NMagM=    0.0000000   0.0000000   0.0000000   0.0000000   0.0000000   2.7928460   2.7928460   2.7928460   2.7928460
 AtZNuc=   6.0000000   6.0000000   8.0000000   6.0000000   6.0000000   1.0000000   1.0000000   1.0000000   1.0000000
 Leave Link  101 at Mon Nov 23 13:23:36 2015, MaxMem=    33554432 cpu:         0.0
 (Enter /home/Applications/g09/g09/l103.exe)

 GradGradGradGradGradGradGradGradGradGradGradGradGradGradGradGradGradGrad
 Berny optimization.
 Initialization pass.
                           ----------------------------
                           !    Initial Parameters    !
                           ! (Angstroms and Degrees)  !
 --------------------------                            --------------------------
 ! Name  Definition              Value          Derivative Info.                !
 --------------------------------------------------------------------------------
 ! R1    R(1,2)                  1.3697         estimate D2E/DX2                !
 ! R2    R(1,5)                  1.3672         estimate D2E/DX2                !
 ! R3    R(1,9)                  1.0747         estimate D2E/DX2                !
 ! R4    R(2,3)                  1.3041         estimate D2E/DX2                !
 ! R5    R(2,8)                  1.0437         estimate D2E/DX2                !
 ! R6    R(3,4)                  1.3391         estimate D2E/DX2                !
 ! R7    R(4,5)                  1.4028         estimate D2E/DX2                !
 ! R8    R(4,7)                  1.0934         estimate D2E/DX2                !
 ! R9    R(5,6)                  1.0945         estimate D2E/DX2                !
 ! A1    A(2,1,5)              109.1444         estimate D2E/DX2                !
 ! A2    A(2,1,9)              126.5074         estimate D2E/DX2                !
 ! A3    A(5,1,9)              124.2985         estimate D2E/DX2                !
 ! A4    A(1,2,3)              109.4646         estimate D2E/DX2                !
 ! A5    A(1,2,8)              133.6919         estimate D2E/DX2                !
 ! A6    A(3,2,8)              116.8126         estimate D2E/DX2                !
 ! A7    A(2,3,4)              107.7165         estimate D2E/DX2                !
 ! A8    A(3,4,5)              110.5592         estimate D2E/DX2                !
 ! A9    A(3,4,7)              118.6879         estimate D2E/DX2                !
 ! A10   A(5,4,7)              130.4658         estimate D2E/DX2                !
 ! A11   A(1,5,4)              103.0043         estimate D2E/DX2                !
 ! A12   A(1,5,6)              129.7454         estimate D2E/DX2                !
 ! A13   A(4,5,6)              126.9021         estimate D2E/DX2                !
 ! D1    D(5,1,2,3)              2.3177         estimate D2E/DX2                !
 ! D2    D(5,1,2,8)           -175.5297         estimate D2E/DX2                !
 ! D3    D(9,1,2,3)            179.8274         estimate D2E/DX2                !
 ! D4    D(9,1,2,8)              1.9801         estimate D2E/DX2                !
 ! D5    D(2,1,5,4)             -3.2357         estimate D2E/DX2                !
 ! D6    D(2,1,5,6)           -176.7133         estimate D2E/DX2                !
 ! D7    D(9,1,5,4)            179.1872         estimate D2E/DX2                !
 ! D8    D(9,1,5,6)              5.7096         estimate D2E/DX2                !
 ! D9    D(1,2,3,4)             -0.2383         estimate D2E/DX2                !
 ! D10   D(8,2,3,4)            178.0179         estimate D2E/DX2                !
 ! D11   D(2,3,4,5)             -1.8898         estimate D2E/DX2                !
 ! D12   D(2,3,4,7)           -176.3731         estimate D2E/DX2                !
 ! D13   D(3,4,5,1)              3.1684         estimate D2E/DX2                !
 ! D14   D(3,4,5,6)            176.898          estimate D2E/DX2                !
 ! D15   D(7,4,5,1)            176.804          estimate D2E/DX2                !
 ! D16   D(7,4,5,6)             -9.4664         estimate D2E/DX2                !
 --------------------------------------------------------------------------------
 Trust Radius=3.00D-01 FncErr=1.00D-07 GrdErr=1.00D-07
 Number of steps in this run=     48 maximum allowed number of steps=    100.
 GradGradGradGradGradGradGradGradGradGradGradGradGradGradGradGradGradGrad

 Leave Link  103 at Mon Nov 23 13:23:36 2015, MaxMem=    33554432 cpu:         0.0
 (Enter /home/Applications/g09/g09/l202.exe)
                          Input orientation:                          
 ---------------------------------------------------------------------
 Center     Atomic      Atomic             Coordinates (Angstroms)
 Number     Number       Type             X           Y           Z
 ---------------------------------------------------------------------
      1          6           0        0.917173   -0.679010   -0.017893
      2          6           0       -0.394217   -1.074024   -0.032854
      3          8           0       -1.164896   -0.022066   -0.036965
      4          6           0       -0.376849    1.060505   -0.019588
      5          6           0        0.973710    0.685816    0.039902
      6          1           0        1.842052    1.351786    0.018664
      7          1           0       -0.842663    2.047900    0.040759
      8          1           0       -0.867276   -2.004110   -0.012775
      9          1           0        1.778468   -1.321747   -0.008754
 ---------------------------------------------------------------------
                    Distance matrix (angstroms):
                    1          2          3          4          5
     1  C    0.000000
     2  C    1.369673   0.000000
     3  O    2.183335   1.304062   0.000000
     4  C    2.168042   2.134641   1.339134   0.000000
     5  C    1.367219   2.230147   2.254028   1.402833   0.000000
     6  H    2.231786   3.299713   3.306403   2.238265   1.094525
     7  H    3.245998   3.154827   2.096338   1.093423   2.270349
     8  H    2.222650   1.043670   2.004410   3.103616   3.260016
     9  H    1.074720   2.186895   3.217663   3.212574   2.163403
                    6          7          8          9
     6  H    0.000000
     7  H    2.773582   0.000000
     8  H    4.313176   4.052438   0.000000
     9  H    2.674430   4.269344   2.732324   0.000000
 Stoichiometry    C4H4O
 Framework group  C1[X(C4H4O)]
 Deg. of freedom    21
 Full point group                 C1      NOp   1
 Largest Abelian subgroup         C1      NOp   1
 Largest concise Abelian subgroup C1      NOp   1
                         Standard orientation:                         
 ---------------------------------------------------------------------
 Center     Atomic      Atomic             Coordinates (Angstroms)
 Number     Number       Type             X           Y           Z
 ---------------------------------------------------------------------
      1          6           0       -0.305961    1.112945   -0.012852
      2          6           0        0.963315    0.598437    0.002160
      3          8           0        0.904235   -0.704274   -0.003394
      4          6           0       -0.388488   -1.053523   -0.016574
      5          6           0       -1.206856    0.085160    0.023633
      6          1           0       -2.300067    0.110799   -0.023445
      7          1           0       -0.646052   -2.114792    0.037666
      8          1           0        1.914257    1.026391    0.044733
      9          1           0       -0.574080    2.153679   -0.010010
 ---------------------------------------------------------------------
 Rotational constants (GHZ):     10.1045155      9.1685890      4.8083747
 Leave Link  202 at Mon Nov 23 13:23:36 2015, MaxMem=    33554432 cpu:         0.0
 (Enter /home/Applications/g09/g09/l301.exe)

 Semi-emprical parameters in input format:
 Method=8 CoreType=1 PeptideFC=0.0166290000 RIJScale=0.6119410000
 ****
 H       
 PQN=1 NValence=1 F0ss=0.4150770000 ZetaOverlap=1.0810580000 U=-0.4286880000
 Beta=-0.2869890000 CoreKO=1.2114800000 KON=0,0,0,1.1025190000 KON=1,0,1,1.1074920000
 KON=0,1,1,1.0916540000 KON=2,1,1,1.0589200000 EISol=-0.4188110042 EHeat=0.0830298228
 Alpha=1.5030030000
 GCore=0.0071120000,1.1207970000,2.7005670000
 GCore=0.0003230000,1.4222460000,3.4015070000
 GCore=-0.0013380000,0.4405990000,4.4481290000
 ****
 C       
 PQN=2,2 NValence=4 F0ss=0.4202500000 F0sp=0.4263690000 F0pp=0.3424460000 F2pp=0.1977130000
 G1sp=0.2746580000
 ZetaOverlap=1.7498310000,1.3881390000
 U=-1.7944250000,-1.4545000000
 Beta=-0.5214990000,-0.3746580000 DDN=0,1,0.8234340000 DDN=1,1,0.7559950000
 CoreKO=1.2002200000 KON=0,0,0,1.1694410000 KON=1,0,1,0.9096420000 KON=0,1,1,0.9370920000
 KON=2,1,1,0.5201690000 EISol=-4.4398989268 EHeat=0.2723305520 Alpha=1.3947510000
 DipHyp=1.6467732542
 GCore=0.0008780000,1.2683970000,2.4090670000
 GCore=0.0034720000,1.4096270000,3.6574610000
 GCore=-0.0014060000,1.4542400000,3.3154880000
 GCore=-0.0001000000,1.4766960000,5.0661660000
 ****
 O       
 PQN=2,2 NValence=6 F0ss=0.5672460000 F0sp=0.5681160000 F0pp=0.4898210000 F2pp=0.2703590000
 G1sp=0.4169050000
 ZetaOverlap=2.7263600000,1.8505270000
 U=-3.5241930000,-3.0238760000
 Beta=-0.9772650000,-1.1886600000 DDN=0,1,0.5807610000 DDN=1,1,0.4521100000
 CoreKO=0.9925760000 KON=0,0,0,0.8355350000 KON=1,0,1,0.5454830000 KON=0,1,1,0.8378550000
 KON=2,1,1,0.5017630000 EISol=-11.6164441184 EHeat=0.0949133088 Alpha=2.2627970000
 DipHyp=1.1614551766
 GCore=0.0225710000,1.2849200000,1.7519400000
 GCore=0.0054870000,1.7991710000,2.8334770000
 ****
 
 Standard basis: VSTO-6G (5D, 7F)
 Ernie: Thresh=  0.10000D-02 Tol=  0.10000D-05 Strict=F.
  NNHCO=     0 NNPyr=     0 NCTC=     0               EPep=         0.000000000
    EC=        67.331287400  ECS=         1.875390199   EG=         0.465735414
   EHC=         0.000000000  EAt=       -31.051283842  AtH=         1.516354808
 EPDDG=         0.000000000  ECC=        69.672413013 EAtT=        32.567638650
 There are    24 symmetry adapted cartesian basis functions of A   symmetry.
 There are    24 symmetry adapted basis functions of A   symmetry.
    24 basis functions,   144 primitive gaussians,    24 cartesian basis functions
    13 alpha electrons       13 beta electrons
       nuclear repulsion energy       102.2400516639 Hartrees.
 IExCor=    0 DFT=F Ex=HF Corr=None ExCW=0 ScaHFX=  1.000000
 ScaDFX=  1.000000  1.000000  1.000000  1.000000 ScalE2=  1.000000  1.000000
 IRadAn=      0 IRanWt=     -1 IRanGd=            0 ICorTp=0 IEmpDi=  4
 Integral buffers will be    131072 words long.
 Regular integral format.
 Two-electron integral symmetry is turned off.
 Leave Link  301 at Mon Nov 23 13:23:36 2015, MaxMem=    33554432 cpu:         0.0
 (Enter /home/Applications/g09/g09/l302.exe)
 Do NDO integrals.
 NPDir=0 NMtPBC=     1 NCelOv=     1 NCel=       1 NClECP=     1 NCelD=      1
         NCelK=      1 NCelE2=     1 NClLst=     1 CellRange=     0.0.
 One-electron integrals computed using PRISM.
 NBasis=    24 RedAO= F EigKep=  0.00D+00  NBF=    24
 NBsUse=    24 1.00D-04 EigRej=  0.00D+00 NBFU=    24
 Leave Link  302 at Mon Nov 23 13:23:36 2015, MaxMem=    33554432 cpu:         0.0
 (Enter /home/Applications/g09/g09/l303.exe)
 DipDrv:  MaxL=1.
 Leave Link  303 at Mon Nov 23 13:23:36 2015, MaxMem=    33554432 cpu:         0.0
 (Enter /home/Applications/g09/g09/l401.exe)
 Simple Huckel Guess.
 JPrj=0 DoOrth=F DoCkMO=F.
 Leave Link  401 at Mon Nov 23 13:23:36 2015, MaxMem=    33554432 cpu:         0.0
 (Enter /home/Applications/g09/g09/l502.exe)
 Closed shell SCF:
 Using DIIS extrapolation, IDIIS=  1040.
 Overlap will be assumed to be unity.
 Two-electron integral symmetry not used.
 Keep J ints in memory in canonical form, NReq=888082.
 IVT=       79475 IEndB=       79475 NGot=    33554432 MDV=    33473473
 LenX=    33473473 LenY=    33472456
 Requested convergence on RMS density matrix=1.00D-08 within 128 cycles.
 Requested convergence on MAX density matrix=1.00D-06.
 Requested convergence on             energy=1.00D-06.
 No special actions if energy rises.
 FoFCou: FMM=F IPFlag=           0 FMFlag=           0 FMFlg1=           0
         NFxFlg=           0 DoJE=F BraDBF=F KetDBF=F FulRan=T
         wScrn=  0.000000 ICntrl=     600 IOpCl=  2 I1Cent=           0 NGrid=           0
         NMat0=    1 NMatS0=     54 NMatT0=    0 NMatD0=    1 NMtDS0=    0 NMtDT0=    0
 Symmetry not used in FoFCou.

 Cycle   1  Pass 1  IDiag  1:
 E= -2.04557557743271    
 DIIS: error= 2.43D-02 at cycle   1 NSaved=   1.
 NSaved= 1 IEnMin= 1 EnMin= -2.04557557743271     IErMin= 1 ErrMin= 2.43D-02
 ErrMax= 2.43D-02  0.00D+00 EMaxC= 1.00D-01 BMatC= 5.76D-02 BMatP= 5.76D-02
 IDIUse=3 WtCom= 7.57D-01 WtEn= 2.43D-01
 Coeff-Com:  0.100D+01
 Coeff-En:   0.100D+01
 Coeff:      0.100D+01
 GapD=    2.000 DampG=2.000 DampE=0.500 DampFc=1.0000 IDamp=-1.
 RMSDP=1.38D-02 MaxDP=5.95D-02              OVMax= 0.00D+00

 Cycle   2  Pass 1  IDiag  1:
 E= -2.18427993809250     Delta-E=       -0.138704360660 Rises=F Damp=F
 DIIS: error= 1.06D-02 at cycle   2 NSaved=   2.
 NSaved= 2 IEnMin= 2 EnMin= -2.18427993809250     IErMin= 2 ErrMin= 1.06D-02
 ErrMax= 1.06D-02  0.00D+00 EMaxC= 1.00D-01 BMatC= 5.26D-03 BMatP= 5.76D-02
 IDIUse=3 WtCom= 8.94D-01 WtEn= 1.06D-01
 Coeff-Com: -0.317D+00 0.132D+01
 Coeff-En:   0.000D+00 0.100D+01
 Coeff:     -0.284D+00 0.128D+01
 RMSDP=6.26D-03 MaxDP=3.28D-02 DE=-1.39D-01 OVMax= 0.00D+00

 Cycle   3  Pass 1  IDiag  3:
 E= -2.20310941340631     Delta-E=       -0.018829475314 Rises=F Damp=F
 DIIS: error= 4.03D-03 at cycle   3 NSaved=   3.
 NSaved= 3 IEnMin= 3 EnMin= -2.20310941340631     IErMin= 3 ErrMin= 4.03D-03
 ErrMax= 4.03D-03  0.00D+00 EMaxC= 1.00D-01 BMatC= 4.42D-04 BMatP= 5.26D-03
 IDIUse=3 WtCom= 9.60D-01 WtEn= 4.03D-02
 Coeff-Com:  0.102D+00-0.612D+00 0.151D+01
 Coeff-En:   0.000D+00 0.000D+00 0.100D+01
 Coeff:      0.974D-01-0.588D+00 0.149D+01
 Gap=     0.506 Goal=   None    Shift=    0.000
 RMSDP=2.61D-03 MaxDP=1.52D-02 DE=-1.88D-02 OVMax= 1.96D-02

 Cycle   4  Pass 1  IDiag  3:
 E= -2.20533933393365     Delta-E=       -0.002229920527 Rises=F Damp=F
 DIIS: error= 9.90D-04 at cycle   4 NSaved=   4.
 NSaved= 4 IEnMin= 4 EnMin= -2.20533933393365     IErMin= 4 ErrMin= 9.90D-04
 ErrMax= 9.90D-04  0.00D+00 EMaxC= 1.00D-01 BMatC= 3.36D-05 BMatP= 4.42D-04
 IDIUse=3 WtCom= 9.90D-01 WtEn= 9.90D-03
 Coeff-Com: -0.181D-01 0.134D+00-0.562D+00 0.145D+01
 Coeff-En:   0.000D+00 0.000D+00 0.000D+00 0.100D+01
 Coeff:     -0.179D-01 0.132D+00-0.557D+00 0.144D+01
 Gap=     0.507 Goal=   None    Shift=    0.000
 RMSDP=8.31D-04 MaxDP=3.99D-03 DE=-2.23D-03 OVMax= 6.19D-03

 Cycle   5  Pass 1  IDiag  3:
 E= -2.20553223231889     Delta-E=       -0.000192898385 Rises=F Damp=F
 DIIS: error= 3.08D-04 at cycle   5 NSaved=   5.
 NSaved= 5 IEnMin= 5 EnMin= -2.20553223231889     IErMin= 5 ErrMin= 3.08D-04
 ErrMax= 3.08D-04  0.00D+00 EMaxC= 1.00D-01 BMatC= 3.81D-06 BMatP= 3.36D-05
 IDIUse=3 WtCom= 9.97D-01 WtEn= 3.08D-03
 Coeff-Com: -0.199D-03-0.195D-01 0.204D+00-0.910D+00 0.173D+01
 Coeff-En:   0.000D+00 0.000D+00 0.000D+00 0.000D+00 0.100D+01
 Coeff:     -0.199D-03-0.194D-01 0.204D+00-0.907D+00 0.172D+01
 Gap=     0.507 Goal=   None    Shift=    0.000
 RMSDP=3.08D-04 MaxDP=1.98D-03 DE=-1.93D-04 OVMax= 2.43D-03

 Cycle   6  Pass 1  IDiag  3:
 E= -2.20555498662216     Delta-E=       -0.000022754303 Rises=F Damp=F
 DIIS: error= 7.51D-05 at cycle   6 NSaved=   6.
 NSaved= 6 IEnMin= 6 EnMin= -2.20555498662216     IErMin= 6 ErrMin= 7.51D-05
 ErrMax= 7.51D-05  0.00D+00 EMaxC= 1.00D-01 BMatC= 2.16D-07 BMatP= 3.81D-06
 IDIUse=1 WtCom= 1.00D+00 WtEn= 0.00D+00
 Coeff-Com:  0.137D-02-0.178D-02-0.409D-01 0.273D+00-0.774D+00 0.154D+01
 Coeff:      0.137D-02-0.178D-02-0.409D-01 0.273D+00-0.774D+00 0.154D+01
 Gap=     0.507 Goal=   None    Shift=    0.000
 RMSDP=7.48D-05 MaxDP=4.87D-04 DE=-2.28D-05 OVMax= 5.07D-04

 Cycle   7  Pass 1  IDiag  3:
 E= -2.20555614359432     Delta-E=       -0.000001156972 Rises=F Damp=F
 DIIS: error= 9.48D-06 at cycle   7 NSaved=   7.
 NSaved= 7 IEnMin= 7 EnMin= -2.20555614359432     IErMin= 7 ErrMin= 9.48D-06
 ErrMax= 9.48D-06  0.00D+00 EMaxC= 1.00D-01 BMatC= 2.33D-09 BMatP= 2.16D-07
 IDIUse=1 WtCom= 1.00D+00 WtEn= 0.00D+00
 Coeff-Com: -0.440D-03 0.788D-03 0.109D-01-0.789D-01 0.237D+00-0.526D+00
 Coeff-Com:  0.136D+01
 Coeff:     -0.440D-03 0.788D-03 0.109D-01-0.789D-01 0.237D+00-0.526D+00
 Coeff:      0.136D+01
 Gap=     0.507 Goal=   None    Shift=    0.000
 RMSDP=5.51D-06 MaxDP=4.25D-05 DE=-1.16D-06 OVMax= 4.26D-05

 Cycle   8  Pass 1  IDiag  3:
 E= -2.20555615450456     Delta-E=       -0.000000010910 Rises=F Damp=F
 DIIS: error= 3.39D-06 at cycle   8 NSaved=   8.
 NSaved= 8 IEnMin= 8 EnMin= -2.20555615450456     IErMin= 8 ErrMin= 3.39D-06
 ErrMax= 3.39D-06  0.00D+00 EMaxC= 1.00D-01 BMatC= 3.18D-10 BMatP= 2.33D-09
 IDIUse=1 WtCom= 1.00D+00 WtEn= 0.00D+00
 Coeff-Com:  0.210D-03-0.406D-03-0.495D-02 0.369D-01-0.114D+00 0.261D+00
 Coeff-Com: -0.844D+00 0.166D+01
 Coeff:      0.210D-03-0.406D-03-0.495D-02 0.369D-01-0.114D+00 0.261D+00
 Coeff:     -0.844D+00 0.166D+01
 Gap=     0.507 Goal=   None    Shift=    0.000
 RMSDP=2.55D-06 MaxDP=2.05D-05 DE=-1.09D-08 OVMax= 1.61D-05

 Cycle   9  Pass 1  IDiag  3:
 E= -2.20555615661834     Delta-E=       -0.000000002114 Rises=F Damp=F
 DIIS: error= 1.45D-06 at cycle   9 NSaved=   9.
 NSaved= 9 IEnMin= 9 EnMin= -2.20555615661834     IErMin= 9 ErrMin= 1.45D-06
 ErrMax= 1.45D-06  0.00D+00 EMaxC= 1.00D-01 BMatC= 7.36D-11 BMatP= 3.18D-10
 IDIUse=1 WtCom= 1.00D+00 WtEn= 0.00D+00
 Coeff-Com: -0.103D-03 0.192D-03 0.255D-02-0.191D-01 0.608D-01-0.144D+00
 Coeff-Com:  0.539D+00-0.161D+01 0.217D+01
 Coeff:     -0.103D-03 0.192D-03 0.255D-02-0.191D-01 0.608D-01-0.144D+00
 Coeff:      0.539D+00-0.161D+01 0.217D+01
 Gap=     0.507 Goal=   None    Shift=    0.000
 RMSDP=1.97D-06 MaxDP=1.58D-05 DE=-2.11D-09 OVMax= 1.41D-05

 Cycle  10  Pass 1  IDiag  3:
 E= -2.20555615726572     Delta-E=       -0.000000000647 Rises=F Damp=F
 DIIS: error= 2.58D-07 at cycle  10 NSaved=  10.
 NSaved=10 IEnMin=10 EnMin= -2.20555615726572     IErMin=10 ErrMin= 2.58D-07
 ErrMax= 2.58D-07  0.00D+00 EMaxC= 1.00D-01 BMatC= 3.81D-12 BMatP= 7.36D-11
 IDIUse=1 WtCom= 1.00D+00 WtEn= 0.00D+00
 Coeff-Com:  0.782D-05 0.115D-04-0.481D-03 0.308D-02-0.100D-01 0.243D-01
 Coeff-Com: -0.107D+00 0.412D+00-0.809D+00 0.149D+01
 Coeff:      0.782D-05 0.115D-04-0.481D-03 0.308D-02-0.100D-01 0.243D-01
 Coeff:     -0.107D+00 0.412D+00-0.809D+00 0.149D+01
 Gap=     0.507 Goal=   None    Shift=    0.000
 RMSDP=4.33D-07 MaxDP=3.66D-06 DE=-6.47D-10 OVMax= 2.95D-06

 Cycle  11  Pass 1  IDiag  3:
 E= -2.20555615729313     Delta-E=       -0.000000000027 Rises=F Damp=F
 DIIS: error= 5.38D-08 at cycle  11 NSaved=  11.
 NSaved=11 IEnMin=11 EnMin= -2.20555615729313     IErMin=11 ErrMin= 5.38D-08
 ErrMax= 5.38D-08  0.00D+00 EMaxC= 1.00D-01 BMatC= 8.19D-14 BMatP= 3.81D-12
 IDIUse=1 WtCom= 1.00D+00 WtEn= 0.00D+00
 Coeff-Com:  0.105D-05-0.109D-04 0.705D-04-0.349D-03 0.119D-02-0.301D-02
 Coeff-Com:  0.165D-01-0.784D-01 0.184D+00-0.467D+00 0.135D+01
 Coeff:      0.105D-05-0.109D-04 0.705D-04-0.349D-03 0.119D-02-0.301D-02
 Coeff:      0.165D-01-0.784D-01 0.184D+00-0.467D+00 0.135D+01
 Gap=     0.507 Goal=   None    Shift=    0.000
 RMSDP=3.82D-08 MaxDP=2.41D-07 DE=-2.74D-11 OVMax= 2.11D-07

 Cycle  12  Pass 1  IDiag  3:
 E= -2.20555615729354     Delta-E=        0.000000000000 Rises=F Damp=F
 DIIS: error= 1.37D-08 at cycle  12 NSaved=  12.
 NSaved=12 IEnMin=12 EnMin= -2.20555615729354     IErMin=12 ErrMin= 1.37D-08
 ErrMax= 1.37D-08  0.00D+00 EMaxC= 1.00D-01 BMatC= 3.93D-15 BMatP= 8.19D-14
 IDIUse=1 WtCom= 1.00D+00 WtEn= 0.00D+00
 Coeff-Com: -0.532D-06 0.414D-05-0.207D-04 0.930D-04-0.332D-03 0.855D-03
 Coeff-Com: -0.512D-02 0.261D-01-0.639D-01 0.174D+00-0.621D+00 0.149D+01
 Coeff:     -0.532D-06 0.414D-05-0.207D-04 0.930D-04-0.332D-03 0.855D-03
 Coeff:     -0.512D-02 0.261D-01-0.639D-01 0.174D+00-0.621D+00 0.149D+01
 Gap=     0.507 Goal=   None    Shift=    0.000
 RMSDP=7.65D-09 MaxDP=5.92D-08 DE=-4.12D-13 OVMax= 3.94D-08

 Cycle  13  Pass 2  IDiag  1:
 SCF Done:  E(RAM1) =  -2.20555615729     A.U. after   13 cycles
            NFock= 12  Conv=0.76D-08     -V/T= 0.8797
 KE=-1.833167021608D+01 PE=-1.713450368112D+02 EE= 8.523109920609D+01
 Leave Link  502 at Mon Nov 23 13:23:36 2015, MaxMem=    33554432 cpu:         0.0
 (Enter /home/Applications/g09/g09/l601.exe)
 Copying SCF densities to generalized density rwf, IOpCl= 0 IROHF=0.

 **********************************************************************

            Population analysis using the SCF density.

 **********************************************************************

 Orbital symmetries:
       Occupied  (A) (A) (A) (A) (A) (A) (A) (A) (A) (A) (A) (A)
                 (A)
       Virtual   (A) (A) (A) (A) (A) (A) (A) (A) (A) (A) (A)
 The electronic state is 1-A.
 Alpha  occ. eigenvalues --   -1.60021  -1.16537  -1.12089  -0.86606  -0.85626
 Alpha  occ. eigenvalues --   -0.79458  -0.73504  -0.48437  -0.45121  -0.41057
 Alpha  occ. eigenvalues --   -0.40564  -0.39916  -0.31792
 Alpha virt. eigenvalues --    0.18892   0.19791   0.27646   0.29764   0.30694
 Alpha virt. eigenvalues --    0.32822   0.34564   0.36768   0.41391   0.42419
 Alpha virt. eigenvalues --    0.46528
          Condensed to atoms (all electrons):
               1          2          3          4          5          6
     1  C    4.292490   0.000000   0.000000   0.000000   0.000000   0.000000
     2  C    0.000000   4.083630   0.000000   0.000000   0.000000   0.000000
     3  O    0.000000   0.000000   5.802708   0.000000   0.000000   0.000000
     4  C    0.000000   0.000000   0.000000   4.108980   0.000000   0.000000
     5  C    0.000000   0.000000   0.000000   0.000000   4.286166   0.000000
     6  H    0.000000   0.000000   0.000000   0.000000   0.000000   0.849573
     7  H    0.000000   0.000000   0.000000   0.000000   0.000000   0.000000
     8  H    0.000000   0.000000   0.000000   0.000000   0.000000   0.000000
     9  H    0.000000   0.000000   0.000000   0.000000   0.000000   0.000000
               7          8          9
     1  C    0.000000   0.000000   0.000000
     2  C    0.000000   0.000000   0.000000
     3  O    0.000000   0.000000   0.000000
     4  C    0.000000   0.000000   0.000000
     5  C    0.000000   0.000000   0.000000
     6  H    0.000000   0.000000   0.000000
     7  H    0.863927   0.000000   0.000000
     8  H    0.000000   0.856826   0.000000
     9  H    0.000000   0.000000   0.855700
 Mulliken charges:
               1
     1  C   -0.292490
     2  C   -0.083630
     3  O    0.197292
     4  C   -0.108980
     5  C   -0.286166
     6  H    0.150427
     7  H    0.136073
     8  H    0.143174
     9  H    0.144300
 Sum of Mulliken charges =   0.00000
 Mulliken charges with hydrogens summed into heavy atoms:
               1
     1  C   -0.148189
     2  C    0.059544
     3  O    0.197292
     4  C    0.027093
     5  C   -0.135739
 Charge=              0.0000 electrons
 Dipole moment (field-independent basis, Debye):
    X=              1.1240    Y=             -0.7473    Z=              0.0342  Tot=              1.3502
 N-N= 1.022400516639D+02 E-N=-1.713450368374D+02  KE=-1.833167021608D+01
 Leave Link  601 at Mon Nov 23 13:23:36 2015, MaxMem=    33554432 cpu:         0.0
 (Enter /home/Applications/g09/g09/l701.exe)
 Compute integral first derivatives.
 ... and contract with generalized density number  0.
 Leave Link  701 at Mon Nov 23 13:23:36 2015, MaxMem=    33554432 cpu:         0.0
 (Enter /home/Applications/g09/g09/l702.exe)
 L702 exits ... SP integral derivatives will be done elsewhere.
 Leave Link  702 at Mon Nov 23 13:23:36 2015, MaxMem=    33554432 cpu:         0.0
 (Enter /home/Applications/g09/g09/l703.exe)
 Compute integral first derivatives, UseDBF=F ICtDFT=           0.
 Integral derivatives from FoFJK, PRISM(SPDF).
 Calling FoFJK, ICntrl=      2127 FMM=F ISym2X=0 I1Cent= 0 IOpClX= 0 NMat=1 NMatS=1 NMatT=0.
 FoFJK:  IHMeth= 8 ICntrl=    2127 DoSepK=F KAlg= 0 I1Cent=   0 FoldK=F
 IRaf=         0 NMat=   1 IRICut=       1 DoRegI=T DoRafI=F ISym2E= 0.
 FoFCou: FMM=F IPFlag=           0 FMFlag=      100000 FMFlg1=         800
         NFxFlg=           0 DoJE=F BraDBF=F KetDBF=F FulRan=T
         wScrn=  0.000000 ICntrl=    2127 IOpCl=  0 I1Cent=           0 NGrid=           0
         NMat0=    1 NMatS0=      1 NMatT0=    0 NMatD0=    1 NMtDS0=    0 NMtDT0=    0
 Symmetry not used in FoFCou.
 Leave Link  703 at Mon Nov 23 13:23:36 2015, MaxMem=    33554432 cpu:         0.0
 (Enter /home/Applications/g09/g09/l716.exe)
 Dipole        = 4.42232684D-01-2.94026624D-01 1.34358374D-02
 ***** Axes restored to original set *****
 -------------------------------------------------------------------
 Center     Atomic                   Forces (Hartrees/Bohr)
 Number     Number              X              Y              Z
 -------------------------------------------------------------------
      1        6           0.040353525   -0.032796792    0.009704018
      2        6           0.045592946   -0.055756908   -0.001483497
      3        8          -0.100538402    0.053248902   -0.003329042
      4        6           0.033642200    0.057172937    0.016473057
      5        6          -0.015622643    0.039585225   -0.018924884
      6        1          -0.009479810   -0.010985852    0.004195264
      7        1           0.006949807   -0.005370270   -0.004205680
      8        1          -0.006518811   -0.040408937   -0.001767018
      9        1           0.005621188   -0.004688305   -0.000662219
 -------------------------------------------------------------------
 Cartesian Forces:  Max     0.100538402 RMS     0.033243805
 Leave Link  716 at Mon Nov 23 13:23:36 2015, MaxMem=    33554432 cpu:         0.0
 (Enter /home/Applications/g09/g09/l103.exe)

 GradGradGradGradGradGradGradGradGradGradGradGradGradGradGradGradGradGrad
 Berny optimization.
 FormGI is forming the generalized inverse of G from B-inverse, IUseBI=4.
 Internal  Forces:  Max     0.112963349 RMS     0.023991134
 Search for a local minimum.
 Step number   1 out of a maximum of   48
 All quantities printed in internal units (Hartrees-Bohrs-Radians)
 RMS Force = .23991D-01 SwitMx=.10000D-02 MixMth= 1
 Mixed Optimization -- RFO/linear search
 Second derivative matrix not updated -- first step.
 ITU=  0
     Eigenvalues ---    0.02177   0.02329   0.02366   0.02508   0.02590
     Eigenvalues ---    0.02676   0.15813   0.15927   0.15980   0.15992
     Eigenvalues ---    0.21997   0.22932   0.34295   0.34420   0.36640
     Eigenvalues ---    0.40766   0.41545   0.46920   0.49738   0.55650
     Eigenvalues ---    0.63069
 RFO step:  Lambda=-3.97255484D-02 EMin= 2.17713365D-02
 Linear search not attempted -- first point.
 Iteration  1 RMS(Cart)=  0.05986953 RMS(Int)=  0.00187090
 Iteration  2 RMS(Cart)=  0.00175301 RMS(Int)=  0.00101850
 Iteration  3 RMS(Cart)=  0.00000257 RMS(Int)=  0.00101850
 Iteration  4 RMS(Cart)=  0.00000000 RMS(Int)=  0.00101850
 ITry= 1 IFail=0 DXMaxC= 1.90D-01 DCOld= 1.00D+10 DXMaxT= 3.00D-01 DXLimC= 3.00D+00 Rises=F
 Variable       Old X    -DE/DX   Delta X   Delta X   Delta X     New X
                                 (Linear)    (Quad)   (Total)
    R1        2.58831   0.02574   0.00000   0.05166   0.05171   2.64001
    R2        2.58367   0.03992   0.00000   0.06310   0.06309   2.64676
    R3        2.03093   0.00730   0.00000   0.01798   0.01798   2.04891
    R4        2.46432   0.11296   0.00000   0.17081   0.17083   2.63515
    R5        1.97225   0.03893   0.00000   0.08702   0.08702   2.05927
    R6        2.53060   0.05283   0.00000   0.08865   0.08861   2.61921
    R7        2.65097  -0.00171   0.00000  -0.01478  -0.01481   2.63616
    R8        2.06627  -0.00804   0.00000  -0.02095  -0.02095   2.04532
    R9        2.06835  -0.01429   0.00000  -0.03733  -0.03733   2.03102
    A1        1.90493  -0.00590   0.00000  -0.03404  -0.03476   1.87016
    A2        2.20797   0.00254   0.00000   0.01583   0.01550   2.22347
    A3        2.16942   0.00350   0.00000   0.02038   0.02008   2.18950
    A4        1.91052  -0.00727   0.00000   0.00104   0.00083   1.91134
    A5        2.33336  -0.00861   0.00000  -0.06191  -0.06182   2.27155
    A6        2.03877   0.01586   0.00000   0.06076   0.06093   2.09969
    A7        1.88001  -0.01723   0.00000  -0.02452  -0.02498   1.85502
    A8        1.92962   0.00104   0.00000  -0.01099  -0.01228   1.91734
    A9        2.07149   0.00349   0.00000   0.02831   0.02762   2.09911
   A10        2.27706  -0.00406   0.00000  -0.00990  -0.01066   2.26640
   A11        1.79776   0.02973   0.00000   0.07410   0.07277   1.87054
   A12        2.26448  -0.01765   0.00000  -0.04843  -0.04917   2.21531
   A13        2.21486  -0.01155   0.00000  -0.01750  -0.01815   2.19671
    D1        0.04045  -0.00463   0.00000  -0.05899  -0.05629  -0.01583
    D2       -3.06357  -0.00397   0.00000  -0.05697  -0.05596  -3.11954
    D3        3.13858  -0.00099   0.00000  -0.00432  -0.00225   3.13633
    D4        0.03456  -0.00033   0.00000  -0.00230  -0.00193   0.03263
    D5       -0.05647   0.00479   0.00000   0.08016   0.08113   0.02465
    D6       -3.08423  -0.00018   0.00000   0.00317   0.00370  -3.08052
    D7        3.12741   0.00127   0.00000   0.02707   0.02853  -3.12725
    D8        0.09965  -0.00370   0.00000  -0.04993  -0.04889   0.05076
    D9       -0.00416   0.00033   0.00000   0.00447   0.00476   0.00060
   D10        3.10700  -0.00070   0.00000   0.00010   0.00165   3.10865
   D11       -0.03298   0.00333   0.00000   0.04923   0.04815   0.01517
   D12       -3.07829  -0.00089   0.00000  -0.02108  -0.02313  -3.10142
   D13        0.05530  -0.00480   0.00000  -0.07908  -0.08033  -0.02503
   D14        3.08745  -0.00069   0.00000  -0.00807  -0.00681   3.08065
   D15        3.08581   0.00067   0.00000   0.00479   0.00263   3.08844
   D16       -0.16522   0.00479   0.00000   0.07580   0.07615  -0.08907
         Item               Value     Threshold  Converged?
 Maximum Force            0.112963     0.000450     NO 
 RMS     Force            0.023991     0.000300     NO 
 Maximum Displacement     0.190351     0.001800     NO 
 RMS     Displacement     0.059534     0.001200     NO 
 Predicted change in Energy=-2.192008D-02
 Lowest energy point so far.  Saving SCF results.
 GradGradGradGradGradGradGradGradGradGradGradGradGradGradGradGradGradGrad

 Leave Link  103 at Mon Nov 23 13:23:36 2015, MaxMem=    33554432 cpu:         0.0
 (Enter /home/Applications/g09/g09/l202.exe)
                          Input orientation:                          
 ---------------------------------------------------------------------
 Center     Atomic      Atomic             Coordinates (Angstroms)
 Number     Number       Type             X           Y           Z
 ---------------------------------------------------------------------
      1          6           0        0.936125   -0.702337    0.004959
      2          6           0       -0.400930   -1.104879   -0.039184
      3          8           0       -1.226051    0.019266   -0.038262
      4          6           0       -0.384087    1.119356    0.006109
      5          6           0        0.945801    0.698213    0.012753
      6          1           0        1.809022    1.338133   -0.009177
      7          1           0       -0.795173    2.119488    0.053001
      8          1           0       -0.834020   -2.104840   -0.039752
      9          1           0        1.814815   -1.337352    0.020049
 ---------------------------------------------------------------------
                    Distance matrix (angstroms):
                    1          2          3          4          5
     1  C    0.000000
     2  C    1.397035   0.000000
     3  O    2.279822   1.394464   0.000000
     4  C    2.249784   2.224760   1.386027   0.000000
     5  C    1.400605   2.251116   2.276074   1.394994   0.000000
     6  H    2.219384   3.294403   3.309369   2.204047   1.074769
     7  H    3.310951   3.249687   2.145907   1.082338   2.247806
     8  H    2.258855   1.089720   2.159981   3.255761   3.320787
     9  H    1.084236   2.228694   3.330268   3.297086   2.213315
                    6          7          8          9
     6  H    0.000000
     7  H    2.719597   0.000000
     8  H    4.340583   4.225525   0.000000
     9  H    2.675651   4.331612   2.758431   0.000000
 Stoichiometry    C4H4O
 Framework group  C1[X(C4H4O)]
 Deg. of freedom    21
 Full point group                 C1      NOp   1
 RotChk:  IX=2 Diff= 1.24D+00
 Largest Abelian subgroup         C1      NOp   1
 Largest concise Abelian subgroup C1      NOp   1
                         Standard orientation:                         
 ---------------------------------------------------------------------
 Center     Atomic      Atomic             Coordinates (Angstroms)
 Number     Number       Type             X           Y           Z
 ---------------------------------------------------------------------
      1          6           0        0.723319    0.959641    0.009122
      2          6           0        1.105842   -0.383916   -0.006215
      3          8           0       -0.030758   -1.191794   -0.007642
      4          6           0       -1.118292   -0.332638    0.006176
      5          6           0       -0.676883    0.990641   -0.003781
      6          1           0       -1.303068    1.862935   -0.049866
      7          1           0       -2.125200   -0.727669    0.045434
      8          1           0        2.098928   -0.832031    0.015290
      9          1           0        1.371491    1.828752    0.018470
 ---------------------------------------------------------------------
 Rotational constants (GHZ):      9.3459700      8.9147653      4.5632957
 Leave Link  202 at Mon Nov 23 13:23:36 2015, MaxMem=    33554432 cpu:         0.0
 (Enter /home/Applications/g09/g09/l301.exe)

 Semi-emprical parameters in input format:
 Method=8 CoreType=1 PeptideFC=0.0166290000 RIJScale=0.6119410000
 ****
 H       
 PQN=1 NValence=1 F0ss=0.4150770000 ZetaOverlap=1.0810580000 U=-0.4286880000
 Beta=-0.2869890000 CoreKO=1.2114800000 KON=0,0,0,1.1025190000 KON=1,0,1,1.1074920000
 KON=0,1,1,1.0916540000 KON=2,1,1,1.0589200000 EISol=-0.4188110042 EHeat=0.0830298228
 Alpha=1.5030030000
 GCore=0.0071120000,1.1207970000,2.7005670000
 GCore=0.0003230000,1.4222460000,3.4015070000
 GCore=-0.0013380000,0.4405990000,4.4481290000
 ****
 C       
 PQN=2,2 NValence=4 F0ss=0.4202500000 F0sp=0.4263690000 F0pp=0.3424460000 F2pp=0.1977130000
 G1sp=0.2746580000
 ZetaOverlap=1.7498310000,1.3881390000
 U=-1.7944250000,-1.4545000000
 Beta=-0.5214990000,-0.3746580000 DDN=0,1,0.8234340000 DDN=1,1,0.7559950000
 CoreKO=1.2002200000 KON=0,0,0,1.1694410000 KON=1,0,1,0.9096420000 KON=0,1,1,0.9370920000
 KON=2,1,1,0.5201690000 EISol=-4.4398989268 EHeat=0.2723305520 Alpha=1.3947510000
 DipHyp=1.6467732542
 GCore=0.0008780000,1.2683970000,2.4090670000
 GCore=0.0034720000,1.4096270000,3.6574610000
 GCore=-0.0014060000,1.4542400000,3.3154880000
 GCore=-0.0001000000,1.4766960000,5.0661660000
 ****
 O       
 PQN=2,2 NValence=6 F0ss=0.5672460000 F0sp=0.5681160000 F0pp=0.4898210000 F2pp=0.2703590000
 G1sp=0.4169050000
 ZetaOverlap=2.7263600000,1.8505270000
 U=-3.5241930000,-3.0238760000
 Beta=-0.9772650000,-1.1886600000 DDN=0,1,0.5807610000 DDN=1,1,0.4521100000
 CoreKO=0.9925760000 KON=0,0,0,0.8355350000 KON=1,0,1,0.5454830000 KON=0,1,1,0.8378550000
 KON=2,1,1,0.5017630000 EISol=-11.6164441184 EHeat=0.0949133088 Alpha=2.2627970000
 DipHyp=1.1614551766
 GCore=0.0225710000,1.2849200000,1.7519400000
 GCore=0.0054870000,1.7991710000,2.8334770000
 ****
 
 Standard basis: VSTO-6G (5D, 7F)
 Ernie: Thresh=  0.10000D-02 Tol=  0.10000D-05 Strict=F.
  NNHCO=     0 NNPyr=     0 NCTC=     0               EPep=         0.000000000
    EC=        66.155318754  ECS=         1.706853227   EG=         0.397250700
   EHC=         0.000000000  EAt=       -31.051283842  AtH=         1.516354808
 EPDDG=         0.000000000  ECC=        68.259422681 EAtT=        32.567638650
 There are    24 symmetry adapted cartesian basis functions of A   symmetry.
 There are    24 symmetry adapted basis functions of A   symmetry.
    24 basis functions,   144 primitive gaussians,    24 cartesian basis functions
    13 alpha electrons       13 beta electrons
       nuclear repulsion energy       100.8270613312 Hartrees.
 IExCor=    0 DFT=F Ex=HF Corr=None ExCW=0 ScaHFX=  1.000000
 ScaDFX=  1.000000  1.000000  1.000000  1.000000 ScalE2=  1.000000  1.000000
 IRadAn=      0 IRanWt=     -1 IRanGd=            0 ICorTp=0 IEmpDi=  4
 Integral buffers will be    131072 words long.
 Regular integral format.
 Two-electron integral symmetry is turned off.
 Leave Link  301 at Mon Nov 23 13:23:36 2015, MaxMem=    33554432 cpu:         0.0
 (Enter /home/Applications/g09/g09/l302.exe)
 Do NDO integrals.
 NPDir=0 NMtPBC=     1 NCelOv=     1 NCel=       1 NClECP=     1 NCelD=      1
         NCelK=      1 NCelE2=     1 NClLst=     1 CellRange=     0.0.
 One-electron integrals computed using PRISM.
 NBasis=    24 RedAO= F EigKep=  0.00D+00  NBF=    24
 NBsUse=    24 1.00D-04 EigRej=  0.00D+00 NBFU=    24
 Leave Link  302 at Mon Nov 23 13:23:36 2015, MaxMem=    33554432 cpu:         0.0
 (Enter /home/Applications/g09/g09/l303.exe)
 DipDrv:  MaxL=1.
 Leave Link  303 at Mon Nov 23 13:23:36 2015, MaxMem=    33554432 cpu:         0.0
 (Enter /home/Applications/g09/g09/l401.exe)
 Initial guess from the checkpoint file:  "/home/Applications/g09/scratch/Gau-4892.chk"
 B after Tr=     0.000000    0.000000    0.000000
         Rot=    0.897685    0.000182    0.000016    0.440637 Ang=  52.29 deg.
 Guess basis will be translated and rotated to current coordinates.
 JPrj=0 DoOrth=T DoCkMO=T.
 Leave Link  401 at Mon Nov 23 13:23:36 2015, MaxMem=    33554432 cpu:         0.0
 (Enter /home/Applications/g09/g09/l502.exe)
 Closed shell SCF:
 Using DIIS extrapolation, IDIIS=  1040.
 Overlap will be assumed to be unity.
 Two-electron integral symmetry not used.
 Keep J ints in memory in canonical form, NReq=888082.
 IVT=       79475 IEndB=       79475 NGot=    33554432 MDV=    33473473
 LenX=    33473473 LenY=    33472456
 Requested convergence on RMS density matrix=1.00D-08 within 128 cycles.
 Requested convergence on MAX density matrix=1.00D-06.
 Requested convergence on             energy=1.00D-06.
 No special actions if energy rises.
 FoFCou: FMM=F IPFlag=           0 FMFlag=           0 FMFlg1=           0
         NFxFlg=           0 DoJE=F BraDBF=F KetDBF=F FulRan=T
         wScrn=  0.000000 ICntrl=     600 IOpCl=  2 I1Cent=           0 NGrid=           0
         NMat0=    1 NMatS0=     54 NMatT0=    0 NMatD0=    1 NMtDS0=    0 NMtDT0=    0
 Symmetry not used in FoFCou.

 Cycle   1  Pass 1  IDiag  1:
 E= -2.20874469641839    
 DIIS: error= 9.16D-03 at cycle   1 NSaved=   1.
 NSaved= 1 IEnMin= 1 EnMin= -2.20874469641839     IErMin= 1 ErrMin= 9.16D-03
 ErrMax= 9.16D-03  0.00D+00 EMaxC= 1.00D-01 BMatC= 4.83D-03 BMatP= 4.83D-03
 IDIUse=3 WtCom= 9.08D-01 WtEn= 9.16D-02
 Coeff-Com:  0.100D+01
 Coeff-En:   0.100D+01
 Coeff:      0.100D+01
 GapD=    2.000 DampG=2.000 DampE=1.000 DampFc=2.0000 IDamp=-1.
 RMSDP=3.88D-03 MaxDP=2.06D-02              OVMax= 0.00D+00

 Cycle   2  Pass 1  IDiag  3:
 E= -2.21949990018693     Delta-E=       -0.010755203769 Rises=F Damp=F
 DIIS: error= 2.54D-03 at cycle   2 NSaved=   2.
 NSaved= 2 IEnMin= 2 EnMin= -2.21949990018693     IErMin= 2 ErrMin= 2.54D-03
 ErrMax= 2.54D-03  0.00D+00 EMaxC= 1.00D-01 BMatC= 3.46D-04 BMatP= 4.83D-03
 IDIUse=3 WtCom= 9.75D-01 WtEn= 2.54D-02
 Coeff-Com: -0.295D+00 0.129D+01
 Coeff-En:   0.000D+00 0.100D+01
 Coeff:     -0.287D+00 0.129D+01
 Gap=     0.492 Goal=   None    Shift=    0.000
 RMSDP=1.54D-03 MaxDP=6.63D-03 DE=-1.08D-02 OVMax= 1.03D-02

 Cycle   3  Pass 1  IDiag  3:
 E= -2.22056031208993     Delta-E=       -0.001060411903 Rises=F Damp=F
 DIIS: error= 5.96D-04 at cycle   3 NSaved=   3.
 NSaved= 3 IEnMin= 3 EnMin= -2.22056031208993     IErMin= 3 ErrMin= 5.96D-04
 ErrMax= 5.96D-04  0.00D+00 EMaxC= 1.00D-01 BMatC= 1.07D-05 BMatP= 3.46D-04
 IDIUse=3 WtCom= 9.94D-01 WtEn= 5.96D-03
 Coeff-Com:  0.336D-01-0.249D+00 0.122D+01
 Coeff-En:   0.000D+00 0.000D+00 0.100D+01
 Coeff:      0.334D-01-0.247D+00 0.121D+01
 Gap=     0.492 Goal=   None    Shift=    0.000
 RMSDP=3.86D-04 MaxDP=2.44D-03 DE=-1.06D-03 OVMax= 3.65D-03

 Cycle   4  Pass 1  IDiag  3:
 E= -2.22061328184999     Delta-E=       -0.000052969760 Rises=F Damp=F
 DIIS: error= 2.15D-04 at cycle   4 NSaved=   4.
 NSaved= 4 IEnMin= 4 EnMin= -2.22061328184999     IErMin= 4 ErrMin= 2.15D-04
 ErrMax= 2.15D-04  0.00D+00 EMaxC= 1.00D-01 BMatC= 9.80D-07 BMatP= 1.07D-05
 IDIUse=3 WtCom= 9.98D-01 WtEn= 2.15D-03
 Coeff-Com:  0.201D-02 0.215D-01-0.429D+00 0.141D+01
 Coeff-En:   0.000D+00 0.000D+00 0.000D+00 0.100D+01
 Coeff:      0.200D-02 0.215D-01-0.429D+00 0.141D+01
 Gap=     0.492 Goal=   None    Shift=    0.000
 RMSDP=1.55D-04 MaxDP=1.12D-03 DE=-5.30D-05 OVMax= 1.80D-03

 Cycle   5  Pass 1  IDiag  3:
 E= -2.22061950621095     Delta-E=       -0.000006224361 Rises=F Damp=F
 DIIS: error= 5.46D-05 at cycle   5 NSaved=   5.
 NSaved= 5 IEnMin= 5 EnMin= -2.22061950621095     IErMin= 5 ErrMin= 5.46D-05
 ErrMax= 5.46D-05  0.00D+00 EMaxC= 1.00D-01 BMatC= 1.04D-07 BMatP= 9.80D-07
 IDIUse=1 WtCom= 1.00D+00 WtEn= 0.00D+00
 Coeff-Com: -0.382D-02 0.189D-02 0.222D+00-0.974D+00 0.175D+01
 Coeff:     -0.382D-02 0.189D-02 0.222D+00-0.974D+00 0.175D+01
 Gap=     0.492 Goal=   None    Shift=    0.000
 RMSDP=5.60D-05 MaxDP=4.69D-04 DE=-6.22D-06 OVMax= 5.99D-04

 Cycle   6  Pass 1  IDiag  3:
 E= -2.22062019914561     Delta-E=       -0.000000692935 Rises=F Damp=F
 DIIS: error= 1.92D-05 at cycle   6 NSaved=   6.
 NSaved= 6 IEnMin= 6 EnMin= -2.22062019914561     IErMin= 6 ErrMin= 1.92D-05
 ErrMax= 1.92D-05  0.00D+00 EMaxC= 1.00D-01 BMatC= 1.08D-08 BMatP= 1.04D-07
 IDIUse=1 WtCom= 1.00D+00 WtEn= 0.00D+00
 Coeff-Com:  0.235D-02-0.331D-03-0.153D+00 0.685D+00-0.142D+01 0.188D+01
 Coeff:      0.235D-02-0.331D-03-0.153D+00 0.685D+00-0.142D+01 0.188D+01
 Gap=     0.492 Goal=   None    Shift=    0.000
 RMSDP=1.80D-05 MaxDP=1.36D-04 DE=-6.93D-07 OVMax= 1.04D-04

 Cycle   7  Pass 1  IDiag  3:
 E= -2.22062027249973     Delta-E=       -0.000000073354 Rises=F Damp=F
 DIIS: error= 4.98D-06 at cycle   7 NSaved=   7.
 NSaved= 7 IEnMin= 7 EnMin= -2.22062027249973     IErMin= 7 ErrMin= 4.98D-06
 ErrMax= 4.98D-06  0.00D+00 EMaxC= 1.00D-01 BMatC= 9.75D-10 BMatP= 1.08D-08
 IDIUse=1 WtCom= 1.00D+00 WtEn= 0.00D+00
 Coeff-Com: -0.928D-03 0.324D-03 0.579D-01-0.263D+00 0.566D+00-0.981D+00
 Coeff-Com:  0.162D+01
 Coeff:     -0.928D-03 0.324D-03 0.579D-01-0.263D+00 0.566D+00-0.981D+00
 Coeff:      0.162D+01
 Gap=     0.492 Goal=   None    Shift=    0.000
 RMSDP=5.57D-06 MaxDP=4.17D-05 DE=-7.34D-08 OVMax= 4.29D-05

 Cycle   8  Pass 1  IDiag  3:
 E= -2.22062027958599     Delta-E=       -0.000000007086 Rises=F Damp=F
 DIIS: error= 2.27D-06 at cycle   8 NSaved=   8.
 NSaved= 8 IEnMin= 8 EnMin= -2.22062027958599     IErMin= 8 ErrMin= 2.27D-06
 ErrMax= 2.27D-06  0.00D+00 EMaxC= 1.00D-01 BMatC= 1.43D-10 BMatP= 9.75D-10
 IDIUse=1 WtCom= 1.00D+00 WtEn= 0.00D+00
 Coeff-Com:  0.521D-03-0.418D-03-0.281D-01 0.130D+00-0.286D+00 0.553D+00
 Coeff-Com: -0.123D+01 0.186D+01
 Coeff:      0.521D-03-0.418D-03-0.281D-01 0.130D+00-0.286D+00 0.553D+00
 Coeff:     -0.123D+01 0.186D+01
 Gap=     0.492 Goal=   None    Shift=    0.000
 RMSDP=2.28D-06 MaxDP=1.94D-05 DE=-7.09D-09 OVMax= 1.85D-05

 Cycle   9  Pass 1  IDiag  3:
 E= -2.22062028068902     Delta-E=       -0.000000001103 Rises=F Damp=F
 DIIS: error= 6.86D-07 at cycle   9 NSaved=   9.
 NSaved= 9 IEnMin= 9 EnMin= -2.22062028068902     IErMin= 9 ErrMin= 6.86D-07
 ErrMax= 6.86D-07  0.00D+00 EMaxC= 1.00D-01 BMatC= 1.52D-11 BMatP= 1.43D-10
 IDIUse=1 WtCom= 1.00D+00 WtEn= 0.00D+00
 Coeff-Com: -0.117D-03 0.699D-04 0.669D-02-0.306D-01 0.681D-01-0.153D+00
 Coeff-Com:  0.435D+00-0.105D+01 0.172D+01
 Coeff:     -0.117D-03 0.699D-04 0.669D-02-0.306D-01 0.681D-01-0.153D+00
 Coeff:      0.435D+00-0.105D+01 0.172D+01
 Gap=     0.492 Goal=   None    Shift=    0.000
 RMSDP=8.57D-07 MaxDP=7.11D-06 DE=-1.10D-09 OVMax= 6.71D-06

 Cycle  10  Pass 1  IDiag  3:
 E= -2.22062028079979     Delta-E=       -0.000000000111 Rises=F Damp=F
 DIIS: error= 6.67D-08 at cycle  10 NSaved=  10.
 NSaved=10 IEnMin=10 EnMin= -2.22062028079979     IErMin=10 ErrMin= 6.67D-08
 ErrMax= 6.67D-08  0.00D+00 EMaxC= 1.00D-01 BMatC= 3.00D-13 BMatP= 1.52D-11
 IDIUse=1 WtCom= 1.00D+00 WtEn= 0.00D+00
 Coeff-Com:  0.220D-04-0.220D-04-0.110D-02 0.513D-02-0.118D-01 0.308D-01
 Coeff-Com: -0.101D+00 0.293D+00-0.610D+00 0.140D+01
 Coeff:      0.220D-04-0.220D-04-0.110D-02 0.513D-02-0.118D-01 0.308D-01
 Coeff:     -0.101D+00 0.293D+00-0.610D+00 0.140D+01
 Gap=     0.492 Goal=   None    Shift=    0.000
 RMSDP=7.77D-08 MaxDP=4.95D-07 DE=-1.11D-10 OVMax= 3.82D-07

 Cycle  11  Pass 1  IDiag  3:
 E= -2.22062028080131     Delta-E=       -0.000000000002 Rises=F Damp=F
 DIIS: error= 1.05D-08 at cycle  11 NSaved=  11.
 NSaved=11 IEnMin=11 EnMin= -2.22062028080131     IErMin=11 ErrMin= 1.05D-08
 ErrMax= 1.05D-08  0.00D+00 EMaxC= 1.00D-01 BMatC= 7.14D-15 BMatP= 3.00D-13
 IDIUse=1 WtCom= 1.00D+00 WtEn= 0.00D+00
 Coeff-Com: -0.482D-05 0.549D-05 0.227D-03-0.106D-02 0.249D-02-0.722D-02
 Coeff-Com:  0.253D-01-0.776D-01 0.173D+00-0.496D+00 0.138D+01
 Coeff:     -0.482D-05 0.549D-05 0.227D-03-0.106D-02 0.249D-02-0.722D-02
 Coeff:      0.253D-01-0.776D-01 0.173D+00-0.496D+00 0.138D+01
 Gap=     0.492 Goal=   None    Shift=    0.000
 RMSDP=1.08D-08 MaxDP=4.50D-08 DE=-1.52D-12 OVMax= 6.58D-08

 Cycle  12  Pass 1  IDiag  3:
 E= -2.22062028080137     Delta-E=        0.000000000000 Rises=F Damp=F
 DIIS: error= 1.47D-09 at cycle  12 NSaved=  12.
 NSaved=12 IEnMin=12 EnMin= -2.22062028080137     IErMin=12 ErrMin= 1.47D-09
 ErrMax= 1.47D-09  0.00D+00 EMaxC= 1.00D-01 BMatC= 1.73D-16 BMatP= 7.14D-15
 IDIUse=1 WtCom= 1.00D+00 WtEn= 0.00D+00
 Coeff-Com:  0.160D-05-0.186D-05-0.744D-04 0.349D-03-0.820D-03 0.250D-02
 Coeff-Com: -0.900D-02 0.281D-01-0.638D-01 0.187D+00-0.591D+00 0.145D+01
 Coeff:      0.160D-05-0.186D-05-0.744D-04 0.349D-03-0.820D-03 0.250D-02
 Coeff:     -0.900D-02 0.281D-01-0.638D-01 0.187D+00-0.591D+00 0.145D+01
 Gap=     0.492 Goal=   None    Shift=    0.000
 RMSDP=1.74D-09 MaxDP=7.34D-09 DE=-5.68D-14 OVMax= 1.09D-08

 Cycle  13  Pass 2  IDiag  1:
 SCF Done:  E(RAM1) =  -2.22062028080     A.U. after   13 cycles
            NFock= 12  Conv=0.17D-08     -V/T= 0.8775
 KE=-1.812441309842D+01 PE=-1.690422263680D+02 EE= 8.411895785444D+01
 Leave Link  502 at Mon Nov 23 13:23:36 2015, MaxMem=    33554432 cpu:         0.0
 (Enter /home/Applications/g09/g09/l701.exe)
 Compute integral first derivatives.
 ... and contract with generalized density number  0.
 Leave Link  701 at Mon Nov 23 13:23:36 2015, MaxMem=    33554432 cpu:         0.0
 (Enter /home/Applications/g09/g09/l702.exe)
 L702 exits ... SP integral derivatives will be done elsewhere.
 Leave Link  702 at Mon Nov 23 13:23:36 2015, MaxMem=    33554432 cpu:         0.0
 (Enter /home/Applications/g09/g09/l703.exe)
 Compute integral first derivatives, UseDBF=F ICtDFT=           0.
 Integral derivatives from FoFJK, PRISM(SPDF).
 Calling FoFJK, ICntrl=      2127 FMM=F ISym2X=0 I1Cent= 0 IOpClX= 0 NMat=1 NMatS=1 NMatT=0.
 FoFJK:  IHMeth= 8 ICntrl=    2127 DoSepK=F KAlg= 0 I1Cent=   0 FoldK=F
 IRaf=         0 NMat=   1 IRICut=       1 DoRegI=T DoRafI=F ISym2E= 0.
 FoFCou: FMM=F IPFlag=           0 FMFlag=      100000 FMFlg1=         800
         NFxFlg=           0 DoJE=F BraDBF=F KetDBF=F FulRan=T
         wScrn=  0.000000 ICntrl=    2127 IOpCl=  0 I1Cent=           0 NGrid=           0
         NMat0=    1 NMatS0=      1 NMatT0=    0 NMatD0=    1 NMtDS0=    0 NMtDT0=    0
 Symmetry not used in FoFCou.
 Leave Link  703 at Mon Nov 23 13:23:36 2015, MaxMem=    33554432 cpu:         0.0
 (Enter /home/Applications/g09/g09/l716.exe)
 Dipole        =-2.35235376D-02-3.59737976D-01 3.85235027D-03
 ***** Axes restored to original set *****
 -------------------------------------------------------------------
 Center     Atomic                   Forces (Hartrees/Bohr)
 Number     Number              X              Y              Z
 -------------------------------------------------------------------
      1        6          -0.019769184   -0.009373865   -0.004664678
      2        6           0.012868173    0.019535784    0.005108614
      3        8           0.013507236   -0.007334074    0.002535650
      4        6           0.014780578   -0.018859784   -0.001216854
      5        6          -0.023778939    0.007375725   -0.000353512
      6        1           0.003897363   -0.000351047    0.002893286
      7        1          -0.000009562   -0.003966995   -0.002334736
      8        1           0.002575811    0.010412914   -0.001630536
      9        1          -0.004071476    0.002561343   -0.000337234
 -------------------------------------------------------------------
 Cartesian Forces:  Max     0.023778939 RMS     0.009996100
 Leave Link  716 at Mon Nov 23 13:23:36 2015, MaxMem=    33554432 cpu:         0.0
 (Enter /home/Applications/g09/g09/l103.exe)

 GradGradGradGradGradGradGradGradGradGradGradGradGradGradGradGradGradGrad
 Berny optimization.
 Using GEDIIS/GDIIS optimizer.
 FormGI is forming the generalized inverse of G from B-inverse, IUseBI=4.
 Internal  Forces:  Max     0.025898355 RMS     0.007374987
 Search for a local minimum.
 Step number   2 out of a maximum of   48
 All quantities printed in internal units (Hartrees-Bohrs-Radians)
 RMS Force = .73750D-02 SwitMx=.10000D-02 MixMth= 1
 Mixed Optimization -- RFO/linear search
 Update second derivatives using D2CorX and points    1    2
 DE= -1.51D-02 DEPred=-2.19D-02 R= 6.87D-01
 TightC=F SS=  1.41D+00  RLast= 3.23D-01 DXNew= 5.0454D-01 9.6752D-01
 Trust test= 6.87D-01 RLast= 3.23D-01 DXMaxT set to 5.05D-01
 ITU=  1  0
 Use linear search instead of GDIIS.
     Eigenvalues ---    0.02163   0.02309   0.02473   0.02506   0.02607
     Eigenvalues ---    0.02684   0.15895   0.15994   0.15999   0.16239
     Eigenvalues ---    0.21912   0.23011   0.34186   0.34405   0.36705
     Eigenvalues ---    0.40238   0.41669   0.47223   0.49085   0.58070
     Eigenvalues ---    0.77824
 RFO step:  Lambda=-2.38268202D-03 EMin= 2.16315826D-02
 Quartic linear search produced a step of -0.18075.
 Iteration  1 RMS(Cart)=  0.02776630 RMS(Int)=  0.00049589
 Iteration  2 RMS(Cart)=  0.00044517 RMS(Int)=  0.00028498
 Iteration  3 RMS(Cart)=  0.00000011 RMS(Int)=  0.00028498
 ITry= 1 IFail=0 DXMaxC= 8.07D-02 DCOld= 1.00D+10 DXMaxT= 5.05D-01 DXLimC= 3.00D+00 Rises=F
 Variable       Old X    -DE/DX   Delta X   Delta X   Delta X     New X
                                 (Linear)    (Quad)   (Total)
    R1        2.64001  -0.02590  -0.00935  -0.02957  -0.03882   2.60120
    R2        2.64676  -0.00360  -0.01140   0.01095  -0.00060   2.64616
    R3        2.04891  -0.00480  -0.00325  -0.00630  -0.00955   2.03936
    R4        2.63515  -0.02069  -0.03088   0.01473  -0.01595   2.61921
    R5        2.05927  -0.01058  -0.01573   0.00004  -0.01568   2.04359
    R6        2.61921  -0.01289  -0.01602   0.00298  -0.01302   2.60619
    R7        2.63616  -0.02219   0.00268  -0.04190  -0.03939   2.59676
    R8        2.04532  -0.00376   0.00379  -0.01398  -0.01020   2.03512
    R9        2.03102   0.00286   0.00675  -0.00228   0.00447   2.03549
    A1        1.87016  -0.00158   0.00628  -0.01281  -0.00694   1.86322
    A2        2.22347   0.00048  -0.00280   0.00436   0.00162   2.22508
    A3        2.18950   0.00111  -0.00363   0.00869   0.00513   2.19463
    A4        1.91134   0.00534  -0.00015   0.01502   0.01461   1.92595
    A5        2.27155  -0.00078   0.01117  -0.01219  -0.00126   2.27029
    A6        2.09969  -0.00451  -0.01101  -0.00150  -0.01275   2.08694
    A7        1.85502  -0.00280   0.00452  -0.02086  -0.01645   1.83857
    A8        1.91734   0.00285   0.00222   0.00991   0.01185   1.92920
    A9        2.09911  -0.00306  -0.00499  -0.00856  -0.01319   2.08592
   A10        2.26640   0.00020   0.00193  -0.00125   0.00105   2.26745
   A11        1.87054  -0.00375  -0.01315   0.01011  -0.00349   1.86705
   A12        2.21531  -0.00078   0.00889  -0.02200  -0.01265   2.20267
   A13        2.19671   0.00451   0.00328   0.01206   0.01579   2.21250
    D1       -0.01583   0.00130   0.01017   0.02882   0.03844   0.02261
    D2       -3.11954  -0.00016   0.01012  -0.01322  -0.00354  -3.12308
    D3        3.13633   0.00020   0.00041   0.00463   0.00477   3.14110
    D4        0.03263  -0.00126   0.00035  -0.03742  -0.03721  -0.00458
    D5        0.02465  -0.00204  -0.01466  -0.04595  -0.06062  -0.03597
    D6       -3.08052  -0.00163  -0.00067  -0.05126  -0.05196  -3.13249
    D7       -3.12725  -0.00097  -0.00516  -0.02238  -0.02773   3.12820
    D8        0.05076  -0.00056   0.00884  -0.02769  -0.01908   0.03168
    D9        0.00060  -0.00001  -0.00086   0.00039  -0.00082  -0.00022
   D10        3.10865   0.00134  -0.00030   0.03729   0.03632  -3.13822
   D11        0.01517  -0.00117  -0.00870  -0.02960  -0.03835  -0.02318
   D12       -3.10142  -0.00081   0.00418  -0.03363  -0.02920  -3.13063
   D13       -0.02503   0.00206   0.01452   0.04735   0.06229   0.03726
   D14        3.08065   0.00152   0.00123   0.05168   0.05280   3.13345
   D15        3.08844   0.00160  -0.00048   0.05177   0.05167   3.14011
   D16       -0.08907   0.00106  -0.01376   0.05611   0.04218  -0.04689
         Item               Value     Threshold  Converged?
 Maximum Force            0.025898     0.000450     NO 
 RMS     Force            0.007375     0.000300     NO 
 Maximum Displacement     0.080731     0.001800     NO 
 RMS     Displacement     0.027857     0.001200     NO 
 Predicted change in Energy=-1.872489D-03
 Lowest energy point so far.  Saving SCF results.
 GradGradGradGradGradGradGradGradGradGradGradGradGradGradGradGradGradGrad

 Leave Link  103 at Mon Nov 23 13:23:36 2015, MaxMem=    33554432 cpu:         0.0
 (Enter /home/Applications/g09/g09/l202.exe)
                          Input orientation:                          
 ---------------------------------------------------------------------
 Center     Atomic      Atomic             Coordinates (Angstroms)
 Number     Number       Type             X           Y           Z
 ---------------------------------------------------------------------
      1          6           0        0.928692   -0.700661   -0.014379
      2          6           0       -0.391076   -1.091696   -0.020635
      3          8           0       -1.222387    0.017335   -0.014436
      4          6           0       -0.377043    1.106969   -0.003853
      5          6           0        0.934805    0.699022    0.026416
      6          1           0        1.806666    1.331495    0.033544
      7          1           0       -0.792312    2.100486    0.012867
      8          1           0       -0.823535   -2.082809   -0.032527
      9          1           0        1.801691   -1.335091   -0.016501
 ---------------------------------------------------------------------
                    Distance matrix (angstroms):
                    1          2          3          4          5
     1  C    0.000000
     2  C    1.376493   0.000000
     3  O    2.267742   1.386025   0.000000
     4  C    2.229928   2.198774   1.379138   0.000000
     5  C    1.400290   2.228642   2.262707   1.374148   0.000000
     6  H    2.214225   3.271828   3.302193   2.195540   1.077133
     7  H    3.287707   3.217474   2.127258   1.076942   2.224235
     8  H    2.231807   1.081420   2.137759   3.221003   3.291477
     9  H    1.079182   2.206238   3.312719   3.272721   2.211549
                    6          7          8          9
     6  H    0.000000
     7  H    2.710436   0.000000
     8  H    4.310429   4.183658   0.000000
     9  H    2.667061   4.304986   2.729680   0.000000
 Stoichiometry    C4H4O
 Framework group  C1[X(C4H4O)]
 Deg. of freedom    21
 Full point group                 C1      NOp   1
 RotChk:  IX=0 Diff= 3.90D-02
 Largest Abelian subgroup         C1      NOp   1
 Largest concise Abelian subgroup C1      NOp   1
                         Standard orientation:                         
 ---------------------------------------------------------------------
 Center     Atomic      Atomic             Coordinates (Angstroms)
 Number     Number       Type             X           Y           Z
 ---------------------------------------------------------------------
      1          6           0        0.746895    0.931938   -0.008743
      2          6           0        1.082399   -0.402990    0.003015
      3          8           0       -0.060439   -1.187200    0.002237
      4          6           0       -1.113783   -0.297067   -0.010063
      5          6           0       -0.651719    0.996859    0.013067
      6          1           0       -1.247187    1.894376    0.003236
      7          1           0       -2.123944   -0.670332   -0.002771
      8          1           0        2.054614   -0.876522    0.008693
      9          1           0        1.417281    1.777641   -0.010707
 ---------------------------------------------------------------------
 Rotational constants (GHZ):      9.5040900      9.0433561      4.6343890
 Leave Link  202 at Mon Nov 23 13:23:36 2015, MaxMem=    33554432 cpu:         0.0
 (Enter /home/Applications/g09/g09/l301.exe)

 Semi-emprical parameters in input format:
 Method=8 CoreType=1 PeptideFC=0.0166290000 RIJScale=0.6119410000
 ****
 H       
 PQN=1 NValence=1 F0ss=0.4150770000 ZetaOverlap=1.0810580000 U=-0.4286880000
 Beta=-0.2869890000 CoreKO=1.2114800000 KON=0,0,0,1.1025190000 KON=1,0,1,1.1074920000
 KON=0,1,1,1.0916540000 KON=2,1,1,1.0589200000 EISol=-0.4188110042 EHeat=0.0830298228
 Alpha=1.5030030000
 GCore=0.0071120000,1.1207970000,2.7005670000
 GCore=0.0003230000,1.4222460000,3.4015070000
 GCore=-0.0013380000,0.4405990000,4.4481290000
 ****
 C       
 PQN=2,2 NValence=4 F0ss=0.4202500000 F0sp=0.4263690000 F0pp=0.3424460000 F2pp=0.1977130000
 G1sp=0.2746580000
 ZetaOverlap=1.7498310000,1.3881390000
 U=-1.7944250000,-1.4545000000
 Beta=-0.5214990000,-0.3746580000 DDN=0,1,0.8234340000 DDN=1,1,0.7559950000
 CoreKO=1.2002200000 KON=0,0,0,1.1694410000 KON=1,0,1,0.9096420000 KON=0,1,1,0.9370920000
 KON=2,1,1,0.5201690000 EISol=-4.4398989268 EHeat=0.2723305520 Alpha=1.3947510000
 DipHyp=1.6467732542
 GCore=0.0008780000,1.2683970000,2.4090670000
 GCore=0.0034720000,1.4096270000,3.6574610000
 GCore=-0.0014060000,1.4542400000,3.3154880000
 GCore=-0.0001000000,1.4766960000,5.0661660000
 ****
 O       
 PQN=2,2 NValence=6 F0ss=0.5672460000 F0sp=0.5681160000 F0pp=0.4898210000 F2pp=0.2703590000
 G1sp=0.4169050000
 ZetaOverlap=2.7263600000,1.8505270000
 U=-3.5241930000,-3.0238760000
 Beta=-0.9772650000,-1.1886600000 DDN=0,1,0.5807610000 DDN=1,1,0.4521100000
 CoreKO=0.9925760000 KON=0,0,0,0.8355350000 KON=1,0,1,0.5454830000 KON=0,1,1,0.8378550000
 KON=2,1,1,0.5017630000 EISol=-11.6164441184 EHeat=0.0949133088 Alpha=2.2627970000
 DipHyp=1.1614551766
 GCore=0.0225710000,1.2849200000,1.7519400000
 GCore=0.0054870000,1.7991710000,2.8334770000
 ****
 
 Standard basis: VSTO-6G (5D, 7F)
 Ernie: Thresh=  0.10000D-02 Tol=  0.10000D-05 Strict=F.
  NNHCO=     0 NNPyr=     0 NCTC=     0               EPep=         0.000000000
    EC=        66.484603534  ECS=         1.759217958   EG=         0.407522820
   EHC=         0.000000000  EAt=       -31.051283842  AtH=         1.516354808
 EPDDG=         0.000000000  ECC=        68.651344311 EAtT=        32.567638650
 There are    24 symmetry adapted cartesian basis functions of A   symmetry.
 There are    24 symmetry adapted basis functions of A   symmetry.
    24 basis functions,   144 primitive gaussians,    24 cartesian basis functions
    13 alpha electrons       13 beta electrons
       nuclear repulsion energy       101.2189829617 Hartrees.
 IExCor=    0 DFT=F Ex=HF Corr=None ExCW=0 ScaHFX=  1.000000
 ScaDFX=  1.000000  1.000000  1.000000  1.000000 ScalE2=  1.000000  1.000000
 IRadAn=      0 IRanWt=     -1 IRanGd=            0 ICorTp=0 IEmpDi=  4
 Integral buffers will be    131072 words long.
 Regular integral format.
 Two-electron integral symmetry is turned off.
 Leave Link  301 at Mon Nov 23 13:23:36 2015, MaxMem=    33554432 cpu:         0.0
 (Enter /home/Applications/g09/g09/l302.exe)
 Do NDO integrals.
 NPDir=0 NMtPBC=     1 NCelOv=     1 NCel=       1 NClECP=     1 NCelD=      1
         NCelK=      1 NCelE2=     1 NClLst=     1 CellRange=     0.0.
 One-electron integrals computed using PRISM.
 NBasis=    24 RedAO= F EigKep=  0.00D+00  NBF=    24
 NBsUse=    24 1.00D-04 EigRej=  0.00D+00 NBFU=    24
 Leave Link  302 at Mon Nov 23 13:23:36 2015, MaxMem=    33554432 cpu:         0.0
 (Enter /home/Applications/g09/g09/l303.exe)
 DipDrv:  MaxL=1.
 Leave Link  303 at Mon Nov 23 13:23:36 2015, MaxMem=    33554432 cpu:         0.0
 (Enter /home/Applications/g09/g09/l401.exe)
 Initial guess from the checkpoint file:  "/home/Applications/g09/scratch/Gau-4892.chk"
 B after Tr=     0.000000    0.000000    0.000000
         Rot=    0.999917   -0.000013    0.000003    0.012867 Ang=  -1.47 deg.
 Guess basis will be translated and rotated to current coordinates.
 JPrj=0 DoOrth=T DoCkMO=T.
 Leave Link  401 at Mon Nov 23 13:23:36 2015, MaxMem=    33554432 cpu:         0.0
 (Enter /home/Applications/g09/g09/l502.exe)
 Closed shell SCF:
 Using DIIS extrapolation, IDIIS=  1040.
 Overlap will be assumed to be unity.
 Two-electron integral symmetry not used.
 Keep J ints in memory in canonical form, NReq=888082.
 IVT=       79475 IEndB=       79475 NGot=    33554432 MDV=    33473473
 LenX=    33473473 LenY=    33472456
 Requested convergence on RMS density matrix=1.00D-08 within 128 cycles.
 Requested convergence on MAX density matrix=1.00D-06.
 Requested convergence on             energy=1.00D-06.
 No special actions if energy rises.
 FoFCou: FMM=F IPFlag=           0 FMFlag=           0 FMFlg1=           0
         NFxFlg=           0 DoJE=F BraDBF=F KetDBF=F FulRan=T
         wScrn=  0.000000 ICntrl=     600 IOpCl=  2 I1Cent=           0 NGrid=           0
         NMat0=    1 NMatS0=     54 NMatT0=    0 NMatD0=    1 NMtDS0=    0 NMtDT0=    0
 Symmetry not used in FoFCou.

 Cycle   1  Pass 1  IDiag  1:
 E= -2.21997030141334    
 DIIS: error= 4.37D-03 at cycle   1 NSaved=   1.
 NSaved= 1 IEnMin= 1 EnMin= -2.21997030141334     IErMin= 1 ErrMin= 4.37D-03
 ErrMax= 4.37D-03  0.00D+00 EMaxC= 1.00D-01 BMatC= 8.37D-04 BMatP= 8.37D-04
 IDIUse=3 WtCom= 9.56D-01 WtEn= 4.37D-02
 Coeff-Com:  0.100D+01
 Coeff-En:   0.100D+01
 Coeff:      0.100D+01
 GapD=    2.000 DampG=2.000 DampE=1.000 DampFc=2.0000 IDamp=-1.
 RMSDP=1.71D-03 MaxDP=8.08D-03              OVMax= 0.00D+00

 Cycle   2  Pass 1  IDiag  3:
 E= -2.22205679986442     Delta-E=       -0.002086498451 Rises=F Damp=F
 DIIS: error= 1.41D-03 at cycle   2 NSaved=   2.
 NSaved= 2 IEnMin= 2 EnMin= -2.22205679986442     IErMin= 2 ErrMin= 1.41D-03
 ErrMax= 1.41D-03  0.00D+00 EMaxC= 1.00D-01 BMatC= 7.95D-05 BMatP= 8.37D-04
 IDIUse=3 WtCom= 9.86D-01 WtEn= 1.41D-02
 Coeff-Com: -0.389D+00 0.139D+01
 Coeff-En:   0.000D+00 0.100D+01
 Coeff:     -0.383D+00 0.138D+01
 Gap=     0.500 Goal=   None    Shift=    0.000
 RMSDP=8.80D-04 MaxDP=4.42D-03 DE=-2.09D-03 OVMax= 5.75D-03

 Cycle   3  Pass 1  IDiag  3:
 E= -2.22234696282820     Delta-E=       -0.000290162964 Rises=F Damp=F
 DIIS: error= 2.16D-04 at cycle   3 NSaved=   3.
 NSaved= 3 IEnMin= 3 EnMin= -2.22234696282820     IErMin= 3 ErrMin= 2.16D-04
 ErrMax= 2.16D-04  0.00D+00 EMaxC= 1.00D-01 BMatC= 2.07D-06 BMatP= 7.95D-05
 IDIUse=3 WtCom= 9.98D-01 WtEn= 2.16D-03
 Coeff-Com:  0.152D+00-0.625D+00 0.147D+01
 Coeff-En:   0.000D+00 0.000D+00 0.100D+01
 Coeff:      0.152D+00-0.624D+00 0.147D+01
 Gap=     0.500 Goal=   None    Shift=    0.000
 RMSDP=2.04D-04 MaxDP=1.02D-03 DE=-2.90D-04 OVMax= 1.18D-03

 Cycle   4  Pass 1  IDiag  3:
 E= -2.22235774609803     Delta-E=       -0.000010783270 Rises=F Damp=F
 DIIS: error= 3.31D-05 at cycle   4 NSaved=   4.
 NSaved= 4 IEnMin= 4 EnMin= -2.22235774609803     IErMin= 4 ErrMin= 3.31D-05
 ErrMax= 3.31D-05  0.00D+00 EMaxC= 1.00D-01 BMatC= 6.93D-08 BMatP= 2.07D-06
 IDIUse=1 WtCom= 1.00D+00 WtEn= 0.00D+00
 Coeff-Com: -0.565D-01 0.237D+00-0.630D+00 0.145D+01
 Coeff:     -0.565D-01 0.237D+00-0.630D+00 0.145D+01
 Gap=     0.500 Goal=   None    Shift=    0.000
 RMSDP=3.56D-05 MaxDP=2.29D-04 DE=-1.08D-05 OVMax= 3.25D-04

 Cycle   5  Pass 1  IDiag  3:
 E= -2.22235813458218     Delta-E=       -0.000000388484 Rises=F Damp=F
 DIIS: error= 1.72D-05 at cycle   5 NSaved=   5.
 NSaved= 5 IEnMin= 5 EnMin= -2.22235813458218     IErMin= 5 ErrMin= 1.72D-05
 ErrMax= 1.72D-05  0.00D+00 EMaxC= 1.00D-01 BMatC= 8.72D-09 BMatP= 6.93D-08
 IDIUse=1 WtCom= 1.00D+00 WtEn= 0.00D+00
 Coeff-Com:  0.141D-01-0.596D-01 0.173D+00-0.686D+00 0.156D+01
 Coeff:      0.141D-01-0.596D-01 0.173D+00-0.686D+00 0.156D+01
 Gap=     0.500 Goal=   None    Shift=    0.000
 RMSDP=1.45D-05 MaxDP=1.09D-04 DE=-3.88D-07 OVMax= 1.37D-04

 Cycle   6  Pass 1  IDiag  3:
 E= -2.22235818927123     Delta-E=       -0.000000054689 Rises=F Damp=F
 DIIS: error= 6.19D-06 at cycle   6 NSaved=   6.
 NSaved= 6 IEnMin= 6 EnMin= -2.22235818927123     IErMin= 6 ErrMin= 6.19D-06
 ErrMax= 6.19D-06  0.00D+00 EMaxC= 1.00D-01 BMatC= 1.01D-09 BMatP= 8.72D-09
 IDIUse=1 WtCom= 1.00D+00 WtEn= 0.00D+00
 Coeff-Com:  0.580D-03-0.188D-02-0.394D-02 0.167D+00-0.801D+00 0.164D+01
 Coeff:      0.580D-03-0.188D-02-0.394D-02 0.167D+00-0.801D+00 0.164D+01
 Gap=     0.500 Goal=   None    Shift=    0.000
 RMSDP=5.46D-06 MaxDP=4.00D-05 DE=-5.47D-08 OVMax= 3.61D-05

 Cycle   7  Pass 1  IDiag  3:
 E= -2.22235819580101     Delta-E=       -0.000000006530 Rises=F Damp=F
 DIIS: error= 1.48D-06 at cycle   7 NSaved=   7.
 NSaved= 7 IEnMin= 7 EnMin= -2.22235819580101     IErMin= 7 ErrMin= 1.48D-06
 ErrMax= 1.48D-06  0.00D+00 EMaxC= 1.00D-01 BMatC= 8.28D-11 BMatP= 1.01D-09
 IDIUse=1 WtCom= 1.00D+00 WtEn= 0.00D+00
 Coeff-Com: -0.128D-02 0.509D-02-0.953D-02-0.477D-01 0.355D+00-0.961D+00
 Coeff-Com:  0.166D+01
 Coeff:     -0.128D-02 0.509D-02-0.953D-02-0.477D-01 0.355D+00-0.961D+00
 Coeff:      0.166D+01
 Gap=     0.500 Goal=   None    Shift=    0.000
 RMSDP=1.49D-06 MaxDP=1.08D-05 DE=-6.53D-09 OVMax= 1.07D-05

 Cycle   8  Pass 1  IDiag  3:
 E= -2.22235819636319     Delta-E=       -0.000000000562 Rises=F Damp=F
 DIIS: error= 6.21D-07 at cycle   8 NSaved=   8.
 NSaved= 8 IEnMin= 8 EnMin= -2.22235819636319     IErMin= 8 ErrMin= 6.21D-07
 ErrMax= 6.21D-07  0.00D+00 EMaxC= 1.00D-01 BMatC= 1.33D-11 BMatP= 8.28D-11
 IDIUse=1 WtCom= 1.00D+00 WtEn= 0.00D+00
 Coeff-Com:  0.133D-02-0.533D-02 0.103D-01 0.452D-01-0.353D+00 0.985D+00
 Coeff-Com: -0.196D+01 0.227D+01
 Coeff:      0.133D-02-0.533D-02 0.103D-01 0.452D-01-0.353D+00 0.985D+00
 Coeff:     -0.196D+01 0.227D+01
 Gap=     0.500 Goal=   None    Shift=    0.000
 RMSDP=7.84D-07 MaxDP=6.61D-06 DE=-5.62D-10 OVMax= 6.29D-06

 Cycle   9  Pass 1  IDiag  3:
 E= -2.22235819647398     Delta-E=       -0.000000000111 Rises=F Damp=F
 DIIS: error= 1.51D-07 at cycle   9 NSaved=   9.
 NSaved= 9 IEnMin= 9 EnMin= -2.22235819647398     IErMin= 9 ErrMin= 1.51D-07
 ErrMax= 1.51D-07  0.00D+00 EMaxC= 1.00D-01 BMatC= 9.15D-13 BMatP= 1.33D-11
 IDIUse=1 WtCom= 1.00D+00 WtEn= 0.00D+00
 Coeff-Com: -0.643D-03 0.258D-02-0.516D-02-0.183D-01 0.153D+00-0.436D+00
 Coeff-Com:  0.909D+00-0.131D+01 0.171D+01
 Coeff:     -0.643D-03 0.258D-02-0.516D-02-0.183D-01 0.153D+00-0.436D+00
 Coeff:      0.909D+00-0.131D+01 0.171D+01
 Gap=     0.500 Goal=   None    Shift=    0.000
 RMSDP=2.17D-07 MaxDP=1.75D-06 DE=-1.11D-10 OVMax= 1.65D-06

 Cycle  10  Pass 1  IDiag  3:
 E= -2.22235819648086     Delta-E=       -0.000000000007 Rises=F Damp=F
 DIIS: error= 1.62D-08 at cycle  10 NSaved=  10.
 NSaved=10 IEnMin=10 EnMin= -2.22235819648086     IErMin=10 ErrMin= 1.62D-08
 ErrMax= 1.62D-08  0.00D+00 EMaxC= 1.00D-01 BMatC= 1.35D-14 BMatP= 9.15D-13
 IDIUse=1 WtCom= 1.00D+00 WtEn= 0.00D+00
 Coeff-Com:  0.155D-03-0.623D-03 0.125D-02 0.425D-02-0.361D-01 0.103D+00
 Coeff-Com: -0.217D+00 0.331D+00-0.518D+00 0.133D+01
 Coeff:      0.155D-03-0.623D-03 0.125D-02 0.425D-02-0.361D-01 0.103D+00
 Coeff:     -0.217D+00 0.331D+00-0.518D+00 0.133D+01
 Gap=     0.500 Goal=   None    Shift=    0.000
 RMSDP=1.62D-08 MaxDP=8.91D-08 DE=-6.88D-12 OVMax= 8.48D-08

 Cycle  11  Pass 1  IDiag  3:
 E= -2.22235819648087     Delta-E=        0.000000000000 Rises=F Damp=F
 DIIS: error= 2.96D-09 at cycle  11 NSaved=  11.
 NSaved=11 IEnMin=11 EnMin= -2.22235819648087     IErMin=11 ErrMin= 2.96D-09
 ErrMax= 2.96D-09  0.00D+00 EMaxC= 1.00D-01 BMatC= 5.28D-16 BMatP= 1.35D-14
 IDIUse=1 WtCom= 1.00D+00 WtEn= 0.00D+00
 Coeff-Com: -0.256D-04 0.103D-03-0.212D-03-0.602D-03 0.549D-02-0.160D-01
 Coeff-Com:  0.341D-01-0.549D-01 0.994D-01-0.412D+00 0.134D+01
 Coeff:     -0.256D-04 0.103D-03-0.212D-03-0.602D-03 0.549D-02-0.160D-01
 Coeff:      0.341D-01-0.549D-01 0.994D-01-0.412D+00 0.134D+01
 Gap=     0.500 Goal=   None    Shift=    0.000
 RMSDP=3.13D-09 MaxDP=1.57D-08 DE=-1.42D-14 OVMax= 2.19D-08

 Cycle  12  Pass 2  IDiag  1:
 SCF Done:  E(RAM1) =  -2.22235819648     A.U. after   12 cycles
            NFock= 11  Conv=0.31D-08     -V/T= 0.8777
 KE=-1.817800300019D+01 PE=-1.697103890223D+02 EE= 8.444705086424D+01
 Leave Link  502 at Mon Nov 23 13:23:36 2015, MaxMem=    33554432 cpu:         0.0
 (Enter /home/Applications/g09/g09/l701.exe)
 Compute integral first derivatives.
 ... and contract with generalized density number  0.
 Leave Link  701 at Mon Nov 23 13:23:36 2015, MaxMem=    33554432 cpu:         0.0
 (Enter /home/Applications/g09/g09/l702.exe)
 L702 exits ... SP integral derivatives will be done elsewhere.
 Leave Link  702 at Mon Nov 23 13:23:36 2015, MaxMem=    33554432 cpu:         0.0
 (Enter /home/Applications/g09/g09/l703.exe)
 Compute integral first derivatives, UseDBF=F ICtDFT=           0.
 Integral derivatives from FoFJK, PRISM(SPDF).
 Calling FoFJK, ICntrl=      2127 FMM=F ISym2X=0 I1Cent= 0 IOpClX= 0 NMat=1 NMatS=1 NMatT=0.
 FoFJK:  IHMeth= 8 ICntrl=    2127 DoSepK=F KAlg= 0 I1Cent=   0 FoldK=F
 IRaf=         0 NMat=   1 IRICut=       1 DoRegI=T DoRafI=F ISym2E= 0.
 FoFCou: FMM=F IPFlag=           0 FMFlag=      100000 FMFlg1=         800
         NFxFlg=           0 DoJE=F BraDBF=F KetDBF=F FulRan=T
         wScrn=  0.000000 ICntrl=    2127 IOpCl=  0 I1Cent=           0 NGrid=           0
         NMat0=    1 NMatS0=      1 NMatT0=    0 NMatD0=    1 NMtDS0=    0 NMtDT0=    0
 Symmetry not used in FoFCou.
 Leave Link  703 at Mon Nov 23 13:23:36 2015, MaxMem=    33554432 cpu:         0.0
 (Enter /home/Applications/g09/g09/l716.exe)
 Dipole        =-2.79404231D-02-3.67465066D-01-1.16798414D-03
 ***** Axes restored to original set *****
 -------------------------------------------------------------------
 Center     Atomic                   Forces (Hartrees/Bohr)
 Number     Number              X              Y              Z
 -------------------------------------------------------------------
      1        6          -0.004112789   -0.008016485    0.005948714
      2        6           0.001244469    0.003381473   -0.002076282
      3        8           0.000718636   -0.006265378   -0.002197699
      4        6           0.002729908   -0.001397670    0.007566225
      5        6          -0.001191821    0.007950588   -0.009192198
      6        1           0.002344673   -0.000405436    0.001152951
      7        1          -0.001640400    0.002528802   -0.000855084
      8        1          -0.000188968    0.001697410   -0.000125691
      9        1           0.000096291    0.000526697   -0.000220935
 -------------------------------------------------------------------
 Cartesian Forces:  Max     0.009192198 RMS     0.003917294
 Leave Link  716 at Mon Nov 23 13:23:36 2015, MaxMem=    33554432 cpu:         0.0
 (Enter /home/Applications/g09/g09/l103.exe)

 GradGradGradGradGradGradGradGradGradGradGradGradGradGradGradGradGradGrad
 Berny optimization.
 Using GEDIIS/GDIIS optimizer.
 FormGI is forming the generalized inverse of G from B-inverse, IUseBI=4.
 Internal  Forces:  Max     0.006021404 RMS     0.001944681
 Search for a local minimum.
 Step number   3 out of a maximum of   48
 All quantities printed in internal units (Hartrees-Bohrs-Radians)
 RMS Force = .19447D-02 SwitMx=.10000D-02 MixMth= 1
 Mixed Optimization -- RFO/linear search
 Update second derivatives using D2CorX and points    1    2    3
 DE= -1.74D-03 DEPred=-1.87D-03 R= 9.28D-01
 TightC=F SS=  1.41D+00  RLast= 1.75D-01 DXNew= 8.4853D-01 5.2454D-01
 Trust test= 9.28D-01 RLast= 1.75D-01 DXMaxT set to 5.25D-01
 ITU=  1  1  0
 Use linear search instead of GDIIS.
     Eigenvalues ---    0.02028   0.02292   0.02505   0.02546   0.02671
     Eigenvalues ---    0.03644   0.15176   0.15993   0.16017   0.16207
     Eigenvalues ---    0.22190   0.22676   0.34289   0.34913   0.36624
     Eigenvalues ---    0.40129   0.41289   0.43895   0.48795   0.60651
     Eigenvalues ---    0.71181
 RFO step:  Lambda=-1.46679381D-03 EMin= 2.02774900D-02
 Quartic linear search produced a step of -0.08559.
 Iteration  1 RMS(Cart)=  0.02192711 RMS(Int)=  0.00091990
 Iteration  2 RMS(Cart)=  0.00066578 RMS(Int)=  0.00066389
 Iteration  3 RMS(Cart)=  0.00000023 RMS(Int)=  0.00066389
 ITry= 1 IFail=0 DXMaxC= 6.01D-02 DCOld= 1.00D+10 DXMaxT= 5.25D-01 DXLimC= 3.00D+00 Rises=F
 Variable       Old X    -DE/DX   Delta X   Delta X   Delta X     New X
                                 (Linear)    (Quad)   (Total)
    R1        2.60120  -0.00328   0.00332  -0.02579  -0.02260   2.57860
    R2        2.64616   0.00602   0.00005   0.01093   0.01092   2.65708
    R3        2.03936  -0.00023   0.00082  -0.00532  -0.00451   2.03485
    R4        2.61921  -0.00416   0.00136  -0.01415  -0.01282   2.60638
    R5        2.04359  -0.00148   0.00134  -0.01095  -0.00961   2.03397
[...]
 RMSDP=2.77D-08 MaxDP=2.32D-07 DE=-7.11D-13 OVMax= 2.23D-07

 Cycle   9  Pass 1  IDiag  3:
 E= -2.22277001556394     Delta-E=        0.000000000000 Rises=F Damp=F
 DIIS: error= 3.92D-09 at cycle   9 NSaved=   9.
 NSaved= 9 IEnMin= 8 EnMin= -2.22277001556407     IErMin= 9 ErrMin= 3.92D-09
 ErrMax= 3.92D-09  0.00D+00 EMaxC= 1.00D-01 BMatC= 6.05D-16 BMatP= 1.41D-14
 IDIUse=1 WtCom= 1.00D+00 WtEn= 0.00D+00
 Coeff-Com:  0.112D-02-0.451D-02 0.119D-01-0.278D-01 0.611D-01-0.210D+00
 Coeff-Com:  0.613D+00-0.102D+01 0.158D+01
 Coeff:      0.112D-02-0.451D-02 0.119D-01-0.278D-01 0.611D-01-0.210D+00
 Coeff:      0.613D+00-0.102D+01 0.158D+01
 Gap=     0.503 Goal=   None    Shift=    0.000
 RMSDP=5.01D-09 MaxDP=3.60D-08 DE= 1.28D-13 OVMax= 4.04D-08

 Cycle  10  Pass 2  IDiag  1:
 SCF Done:  E(RAM1) =  -2.22277001556     A.U. after   10 cycles
            NFock=  9  Conv=0.50D-08     -V/T= 0.8777
 KE=-1.817561883749D+01 PE=-1.696867894450D+02 EE= 8.443592628104D+01
 Leave Link  502 at Mon Nov 23 13:23:37 2015, MaxMem=    33554432 cpu:         0.0
 (Enter /home/Applications/g09/g09/l701.exe)
 Compute integral first derivatives.
 ... and contract with generalized density number  0.
 Leave Link  701 at Mon Nov 23 13:23:37 2015, MaxMem=    33554432 cpu:         0.0
 (Enter /home/Applications/g09/g09/l702.exe)
 L702 exits ... SP integral derivatives will be done elsewhere.
 Leave Link  702 at Mon Nov 23 13:23:37 2015, MaxMem=    33554432 cpu:         0.0
 (Enter /home/Applications/g09/g09/l703.exe)
 Compute integral first derivatives, UseDBF=F ICtDFT=           0.
 Integral derivatives from FoFJK, PRISM(SPDF).
 Calling FoFJK, ICntrl=      2127 FMM=F ISym2X=0 I1Cent= 0 IOpClX= 0 NMat=1 NMatS=1 NMatT=0.
 FoFJK:  IHMeth= 8 ICntrl=    2127 DoSepK=F KAlg= 0 I1Cent=   0 FoldK=F
 IRaf=         0 NMat=   1 IRICut=       1 DoRegI=T DoRafI=F ISym2E= 0.
 FoFCou: FMM=F IPFlag=           0 FMFlag=      100000 FMFlg1=         800
         NFxFlg=           0 DoJE=F BraDBF=F KetDBF=F FulRan=T
         wScrn=  0.000000 ICntrl=    2127 IOpCl=  0 I1Cent=           0 NGrid=           0
         NMat0=    1 NMatS0=      1 NMatT0=    0 NMatD0=    1 NMtDS0=    0 NMtDT0=    0
 Symmetry not used in FoFCou.
 Leave Link  703 at Mon Nov 23 13:23:37 2015, MaxMem=    33554432 cpu:         0.0
 (Enter /home/Applications/g09/g09/l716.exe)
 Dipole        = 4.74057988D-06-3.71527769D-01 1.03808344D-04
 ***** Axes restored to original set *****
 -------------------------------------------------------------------
 Center     Atomic                   Forces (Hartrees/Bohr)
 Number     Number              X              Y              Z
 -------------------------------------------------------------------
      1        6          -0.000052374   -0.000022335   -0.000007485
      2        6           0.000007944   -0.000011959    0.000008875
      3        8           0.000009484   -0.000006445   -0.000000300
      4        6           0.000011687    0.000004463    0.000008838
      5        6          -0.000004815   -0.000007614    0.000008856
      6        1           0.000000603    0.000010078   -0.000009351
      7        1          -0.000000342    0.000006089   -0.000005468
      8        1           0.000011692    0.000020631   -0.000009238
      9        1           0.000016120    0.000007091    0.000005272
 -------------------------------------------------------------------
 Cartesian Forces:  Max     0.000052374 RMS     0.000014077
 Leave Link  716 at Mon Nov 23 13:23:37 2015, MaxMem=    33554432 cpu:         0.0
 (Enter /home/Applications/g09/g09/l103.exe)

 GradGradGradGradGradGradGradGradGradGradGradGradGradGradGradGradGradGrad
 Berny optimization.
 Using GEDIIS/GDIIS optimizer.
 FormGI is forming the generalized inverse of G from B-inverse, IUseBI=4.
 Internal  Forces:  Max     0.000026745 RMS     0.000008415
 Search for a local minimum.
 Step number   9 out of a maximum of   48
 All quantities printed in internal units (Hartrees-Bohrs-Radians)
 RMS Force = .84155D-05 SwitMx=.10000D-02 MixMth= 2
 Mixed Optimization -- En-DIIS/RFO-DIIS
 Swapping is turned off.
 Update second derivatives using D2CorX and points    1    2    4    3    5
                                                      6    7    8    9
 DE= -1.72D-06 DEPred=-1.73D-06 R= 9.96D-01
 TightC=F SS=  1.41D+00  RLast= 5.71D-03 DXNew= 4.4109D-01 1.7129D-02
 Trust test= 9.96D-01 RLast= 5.71D-03 DXMaxT set to 2.62D-01
 ITU=  1  1  0  1  0 -1  1  1  0
     Eigenvalues ---    0.02109   0.02324   0.02496   0.02654   0.08500
     Eigenvalues ---    0.08687   0.09905   0.15393   0.16018   0.16319
     Eigenvalues ---    0.22353   0.22737   0.34642   0.36480   0.36656
     Eigenvalues ---    0.39869   0.41615   0.49513   0.50279   0.62750
     Eigenvalues ---    0.79091
 En-DIIS/RFO-DIIS IScMMF=        0 using points:     9    8    7    6
 RFO step:  Lambda= 0.00000000D+00.
 NNeg= 0 NP= 4 Switch=  2.50D-03 Rises=F DC=  4.58D-06 SmlDif=  1.00D-05
 RMS Error=  0.2104228156D-04 NUsed= 4 EDIIS=F
 DidBck=F Rises=F RFO-DIIS coefs:    1.00078   -0.00073    0.00097   -0.00102
 Iteration  1 RMS(Cart)=  0.00008283 RMS(Int)=  0.00000001
 Iteration  2 RMS(Cart)=  0.00000001 RMS(Int)=  0.00000000
 ITry= 1 IFail=0 DXMaxC= 2.77D-04 DCOld= 1.00D+10 DXMaxT= 2.62D-01 DXLimC= 3.00D+00 Rises=F
 Variable       Old X    -DE/DX   Delta X   Delta X   Delta X     New X
                                 (Linear)    (Quad)   (Total)
    R1        2.59118  -0.00003   0.00000  -0.00005  -0.00005   2.59113
    R2        2.66441   0.00001   0.00000   0.00001   0.00001   2.66442
    R3        2.03827   0.00001   0.00000   0.00003   0.00003   2.03829
    R4        2.61318   0.00000   0.00000   0.00000   0.00000   2.61318
    R5        2.04201  -0.00002   0.00000  -0.00006  -0.00005   2.04196
    R6        2.61317   0.00000   0.00000   0.00001   0.00001   2.61318
    R7        2.59115  -0.00001   0.00000  -0.00002  -0.00002   2.59112
    R8        2.04195   0.00001   0.00000   0.00002   0.00002   2.04197
    R9        2.03828   0.00001   0.00000   0.00002   0.00002   2.03830
    A1        1.86295   0.00001   0.00000   0.00002   0.00002   1.86297
    A2        2.23520   0.00001   0.00000   0.00010   0.00010   2.23530
    A3        2.18503  -0.00002   0.00000  -0.00011  -0.00012   2.18491
    A4        1.92976   0.00000   0.00000  -0.00002  -0.00002   1.92974
    A5        2.27513   0.00000   0.00000  -0.00001   0.00000   2.27513
    A6        2.07830   0.00000   0.00000   0.00003   0.00003   2.07832
    A7        1.83933   0.00001   0.00000   0.00003   0.00003   1.83936
    A8        1.92977  -0.00001   0.00000  -0.00003  -0.00003   1.92974
    A9        2.07830   0.00001   0.00000   0.00003   0.00003   2.07832
   A10        2.27512   0.00000   0.00000   0.00000   0.00001   2.27513
   A11        1.86297   0.00000   0.00000   0.00001   0.00001   1.86297
   A12        2.18480   0.00001   0.00000   0.00004   0.00004   2.18484
   A13        2.23542  -0.00001   0.00000  -0.00005  -0.00005   2.23538
    D1        0.00002   0.00000   0.00001  -0.00003  -0.00002   0.00000
    D2       -3.14139  -0.00001   0.00000  -0.00021  -0.00021   3.14158
    D3       -3.14150   0.00000   0.00001   0.00001   0.00002  -3.14149
    D4        0.00027   0.00000   0.00000  -0.00017  -0.00017   0.00009
    D5       -0.00002   0.00000   0.00000   0.00002   0.00001  -0.00001
    D6        3.14141   0.00001   0.00000   0.00023   0.00024  -3.14154
    D7        3.14150   0.00000   0.00000  -0.00002  -0.00002   3.14148
    D8       -0.00024   0.00000   0.00000   0.00020   0.00020  -0.00004
    D9       -0.00001   0.00000  -0.00001   0.00003   0.00002   0.00001
   D10        3.14143   0.00000   0.00000   0.00019   0.00019  -3.14157
   D11        0.00000   0.00000   0.00001  -0.00002  -0.00001  -0.00002
   D12       -3.14149   0.00000   0.00000  -0.00019  -0.00019   3.14151
   D13        0.00002   0.00000   0.00000   0.00000   0.00000   0.00002
   D14       -3.14141  -0.00001  -0.00001  -0.00022  -0.00023   3.14154
   D15        3.14149   0.00000   0.00000   0.00020   0.00020  -3.14149
   D16        0.00006   0.00000   0.00000  -0.00003  -0.00003   0.00003
         Item               Value     Threshold  Converged?
 Maximum Force            0.000027     0.000450     YES
 RMS     Force            0.000008     0.000300     YES
 Maximum Displacement     0.000277     0.001800     YES
 RMS     Displacement     0.000083     0.001200     YES
 Predicted change in Energy=-8.412732D-09
 Optimization completed.
    -- Stationary point found.
                           ----------------------------
                           !   Optimized Parameters   !
                           ! (Angstroms and Degrees)  !
 --------------------------                            --------------------------
 ! Name  Definition              Value          Derivative Info.                !
 --------------------------------------------------------------------------------
 ! R1    R(1,2)                  1.3712         -DE/DX =    0.0                 !
 ! R2    R(1,5)                  1.4099         -DE/DX =    0.0                 !
 ! R3    R(1,9)                  1.0786         -DE/DX =    0.0                 !
 ! R4    R(2,3)                  1.3828         -DE/DX =    0.0                 !
 ! R5    R(2,8)                  1.0806         -DE/DX =    0.0                 !
 ! R6    R(3,4)                  1.3828         -DE/DX =    0.0                 !
 ! R7    R(4,5)                  1.3712         -DE/DX =    0.0                 !
 ! R8    R(4,7)                  1.0806         -DE/DX =    0.0                 !
 ! R9    R(5,6)                  1.0786         -DE/DX =    0.0                 !
 ! A1    A(2,1,5)              106.7393         -DE/DX =    0.0                 !
 ! A2    A(2,1,9)              128.0678         -DE/DX =    0.0                 !
 ! A3    A(5,1,9)              125.193          -DE/DX =    0.0                 !
 ! A4    A(1,2,3)              110.567          -DE/DX =    0.0                 !
 ! A5    A(1,2,8)              130.3554         -DE/DX =    0.0                 !
 ! A6    A(3,2,8)              119.0776         -DE/DX =    0.0                 !
 ! A7    A(2,3,4)              105.3861         -DE/DX =    0.0                 !
 ! A8    A(3,4,5)              110.5676         -DE/DX =    0.0                 !
 ! A9    A(3,4,7)              119.0776         -DE/DX =    0.0                 !
 ! A10   A(5,4,7)              130.3548         -DE/DX =    0.0                 !
 ! A11   A(1,5,4)              106.74           -DE/DX =    0.0                 !
 ! A12   A(1,5,6)              125.1796         -DE/DX =    0.0                 !
 ! A13   A(4,5,6)              128.0803         -DE/DX =    0.0                 !
 ! D1    D(5,1,2,3)              0.0012         -DE/DX =    0.0                 !
 ! D2    D(5,1,2,8)            180.0114         -DE/DX =    0.0                 !
 ! D3    D(9,1,2,3)           -179.9949         -DE/DX =    0.0                 !
 ! D4    D(9,1,2,8)              0.0154         -DE/DX =    0.0                 !
 ! D5    D(2,1,5,4)             -0.0013         -DE/DX =    0.0                 !
 ! D6    D(2,1,5,6)           -180.0102         -DE/DX =    0.0                 !
 ! D7    D(9,1,5,4)            179.9949         -DE/DX =    0.0                 !
 ! D8    D(9,1,5,6)             -0.014          -DE/DX =    0.0                 !
 ! D9    D(1,2,3,4)             -0.0006         -DE/DX =    0.0                 !
 ! D10   D(8,2,3,4)           -180.0095         -DE/DX =    0.0                 !
 ! D11   D(2,3,4,5)             -0.0002         -DE/DX =    0.0                 !
 ! D12   D(2,3,4,7)            180.0057         -DE/DX =    0.0                 !
 ! D13   D(3,4,5,1)              0.001          -DE/DX =    0.0                 !
 ! D14   D(3,4,5,6)            180.0102         -DE/DX =    0.0                 !
 ! D15   D(7,4,5,1)           -180.0058         -DE/DX =    0.0                 !
 ! D16   D(7,4,5,6)              0.0035         -DE/DX =    0.0                 !
 --------------------------------------------------------------------------------
 Lowest energy point so far.  Saving SCF results.
 GradGradGradGradGradGradGradGradGradGradGradGradGradGradGradGradGradGrad

 Largest change from initial coordinates is atom    6       1.926 Angstoms.
 Leave Link  103 at Mon Nov 23 13:23:37 2015, MaxMem=    33554432 cpu:         0.0
 (Enter /home/Applications/g09/g09/l202.exe)
                          Input orientation:                          
 ---------------------------------------------------------------------
 Center     Atomic      Atomic             Coordinates (Angstroms)
 Number     Number       Type             X           Y           Z
 ---------------------------------------------------------------------
      1          6           0        0.926230   -0.703975   -0.006682
      2          6           0       -0.388993   -1.091409   -0.022820
      3          8           0       -1.220931    0.013150   -0.015176
      4          6           0       -0.376727    1.108173    0.006391
      5          6           0        0.934076    0.705822    0.012059
      6          1           0        1.819090    1.322184    0.027787
      7          1           0       -0.804049    2.100593    0.016036
      8          1           0       -0.827373   -2.078939   -0.039406
      9          1           0        1.804179   -1.330547   -0.007694
 ---------------------------------------------------------------------
                    Distance matrix (angstroms):
                    1          2          3          4          5
     1  C    0.000000
     2  C    1.371195   0.000000
     3  O    2.263767   1.382834   0.000000
     4  C    2.231983   2.199810   1.382831   0.000000
     5  C    1.409943   2.231987   2.263756   1.371175   0.000000
     6  H    2.214432   3.271639   3.310158   2.206325   1.078610
     7  H    3.295448   3.219108   2.128893   1.080553   2.228560
     8  H    2.228614   1.080587   2.128923   3.219140   3.295489
     9  H    1.078605   2.206223   3.310117   3.271682   2.214558
                    6          7          8          9
     6  H    0.000000
     7  H    2.736222   0.000000
     8  H    4.309979   4.179965   0.000000
     9  H    2.653010   4.310004   2.736085   0.000000
 Stoichiometry    C4H4O
 Framework group  C1[X(C4H4O)]
 Deg. of freedom    21
 Full point group                 C1      NOp   1
 RotChk:  IX=0 Diff= 5.03D-15
 Largest Abelian subgroup         C1      NOp   1
 Largest concise Abelian subgroup C1      NOp   1
                         Standard orientation:                         
 ---------------------------------------------------------------------
 Center     Atomic      Atomic             Coordinates (Angstroms)
 Number     Number       Type             X           Y           Z
 ---------------------------------------------------------------------
      1          6           0        0.705055    0.963699   -0.000011
      2          6           0        1.099869   -0.349427    0.000001
      3          8           0       -0.000120   -1.187434   -0.000012
      4          6           0       -1.099941   -0.349212   -0.000018
      5          6           0       -0.704888    0.963820   -0.000004
      6          1           0       -1.326244    1.845475    0.000147
      7          1           0       -2.090046   -0.781980    0.000065
      8          1           0        2.089919   -0.782403    0.000165
      9          1           0        1.326766    1.845098   -0.000082
 ---------------------------------------------------------------------
 Rotational constants (GHZ):      9.4793278      9.0561612      4.6314570
 Leave Link  202 at Mon Nov 23 13:23:37 2015, MaxMem=    33554432 cpu:         0.0
 (Enter /home/Applications/g09/g09/l601.exe)
 Copying SCF densities to generalized density rwf, IOpCl= 0 IROHF=0.

 **********************************************************************

            Population analysis using the SCF density.

 **********************************************************************

 Orbital symmetries:
       Occupied  (A) (A) (A) (A) (A) (A) (A) (A) (A) (A) (A) (A)
                 (A)
       Virtual   (A) (A) (A) (A) (A) (A) (A) (A) (A) (A) (A)
 The electronic state is 1-A.
 Alpha  occ. eigenvalues --   -1.54126  -1.12516  -1.09745  -0.86225  -0.82769
 Alpha  occ. eigenvalues --   -0.79443  -0.73518  -0.49101  -0.44006  -0.42801
 Alpha  occ. eigenvalues --   -0.42641  -0.39760  -0.32878
 Alpha virt. eigenvalues --    0.17407   0.19058   0.26819   0.29318   0.30758
 Alpha virt. eigenvalues --    0.32543   0.34396   0.36015   0.40431   0.41779
 Alpha virt. eigenvalues --    0.44845
          Condensed to atoms (all electrons):
               1          2          3          4          5          6
     1  C    4.292529   0.000000   0.000000   0.000000   0.000000   0.000000
     2  C    0.000000   4.052053   0.000000   0.000000   0.000000   0.000000
     3  O    0.000000   0.000000   5.890812   0.000000   0.000000   0.000000
     4  C    0.000000   0.000000   0.000000   4.052039   0.000000   0.000000
     5  C    0.000000   0.000000   0.000000   0.000000   4.292522   0.000000
     6  H    0.000000   0.000000   0.000000   0.000000   0.000000   0.849099
     7  H    0.000000   0.000000   0.000000   0.000000   0.000000   0.000000
     8  H    0.000000   0.000000   0.000000   0.000000   0.000000   0.000000
     9  H    0.000000   0.000000   0.000000   0.000000   0.000000   0.000000
               7          8          9
     1  C    0.000000   0.000000   0.000000
     2  C    0.000000   0.000000   0.000000
     3  O    0.000000   0.000000   0.000000
     4  C    0.000000   0.000000   0.000000
     5  C    0.000000   0.000000   0.000000
     6  H    0.000000   0.000000   0.000000
     7  H    0.860921   0.000000   0.000000
     8  H    0.000000   0.860923   0.000000
     9  H    0.000000   0.000000   0.849102
 Mulliken charges:
               1
     1  C   -0.292529
     2  C   -0.052053
     3  O    0.109188
     4  C   -0.052039
     5  C   -0.292522
     6  H    0.150901
     7  H    0.139079
     8  H    0.139077
     9  H    0.150898
 Sum of Mulliken charges =   0.00000
 Mulliken charges with hydrogens summed into heavy atoms:
               1
     1  C   -0.141631
     2  C    0.087024
     3  O    0.109188
     4  C    0.087040
     5  C   -0.141621
 Charge=              0.0000 electrons
 Dipole moment (field-independent basis, Debye):
    X=              0.0000    Y=             -0.9443    Z=              0.0003  Tot=              0.9443
 N-N= 1.012037119859D+02 E-N=-1.696867894374D+02  KE=-1.817561883749D+01
 Leave Link  601 at Mon Nov 23 13:23:37 2015, MaxMem=    33554432 cpu:         0.0
 (Enter /home/Applications/g09/g09/l9999.exe)
 1\1\GINC-DUSTIN-DESKTOP\FOpt\RAM1\ZDO\C4H4O1\DUSTIN\23-Nov-2015\0\\#P 
 AM1(Input,print) Opt\\AM1-Reparam Input\\0,1\C,0.9262297237,-0.7039752
 351,-0.0066821873\C,-0.3889927902,-1.0914089569,-0.0228200279\O,-1.220
 9313726,0.013149685,-0.0151760448\C,-0.3767268169,1.1081725764,0.00639
 12983\C,0.934075759,0.7058218364,0.012059353\H,1.8190895406,1.32218391
 67,0.0277874232\H,-0.8040486759,2.10059261,0.0160364109\H,-0.827372722
 8,-2.0789393877,-0.0394058085\H,1.8041793552,-1.3305470448,-0.00769441
 7\\Version=ES64L-G09RevD.01\State=1-A\HF=-2.22277\RMSD=5.015e-09\RMSF=
 1.408e-05\Dipole=-0.3715101,0.0020704,-0.0029814\PG=C01 [X(C4H4O1)]\\@


 KNIGHT- SIRE, I'VE JUST RETURNED FROM THE FRONT
 KING-   HOW GOES THE BATTLE                    
 KNIGHT- THE SITUATION IS QUITE FLUID           
 KING-   WHAT DOES *THAT* MEAN                  
 KNIGHT- WE'RE UP THE CREEK                     
                THE WIZARD OF ID                
 Job cpu time:       0 days  0 hours  0 minutes  1.4 seconds.
 File lengths (MBytes):  RWF=      5 Int=      0 D2E=      0 Chk=      2 Scr=      1
 Normal termination of Gaussian 09 at Mon Nov 23 13:23:37 2015.
