 Entering Gaussian System, Link 0=g09
 Input=FuranAM1Best0.com
 Output=FuranAM1Best0.log
 Initial command:
 /home/Applications/g09/g09/l1.exe "/home/Applications/g09/scratch/Gau-4856.inp" -scrdir="/home/Applications/g09/scratch/"
 Entering Link 1 = /home/Applications/g09/g09/l1.exe PID=      4858.
  
 Copyright (c) 1988,1990,1992,1993,1995,1998,2003,2009,2013,
            Gaussian, Inc.  All Rights Reserved.
  
 This is part of the Gaussian(R) 09 program.  It is based on
 the Gaussian(R) 03 system (copyright 2003, Gaussian, Inc.),
 the Gaussian(R) 98 system (copyright 1998, Gaussian, Inc.),
 the Gaussian(R) 94 system (copyright 1995, Gaussian, Inc.),
 the Gaussian 92(TM) system (copyright 1992, Gaussian, Inc.),
 the Gaussian 90(TM) system (copyright 1990, Gaussian, Inc.),
 the Gaussian 88(TM) system (copyright 1988, Gaussian, Inc.),
 the Gaussian 86(TM) system (copyright 1986, Carnegie Mellon
 University), and the Gaussian 82(TM) system (copyright 1983,
 Carnegie Mellon University). Gaussian is a federally registered
 trademark of Gaussian, Inc.
  
 This software contains proprietary and confidential information,
 including trade secrets, belonging to Gaussian, Inc.
  
 This software is provided under written license and may be
 used, copied, transmitted, or stored only in accord with that
 written license.
  
 The following legend is applicable only to US Government
 contracts under FAR:
  
                    RESTRICTED RIGHTS LEGEND
  
 Use, reproduction and disclosure by the US Government is
 subject to restrictions as set forth in subparagraphs (a)
 and (c) of the Commercial Computer Software - Restricted
 Rights clause in FAR 52.227-19.
  
 Gaussian, Inc.
 340 Quinnipiac St., Bldg. 40, Wallingford CT 06492
  
  
 ---------------------------------------------------------------
 Warning -- This program may not be used in any manner that
 competes with the business of Gaussian, Inc. or will provide
 assistance to any competitor of Gaussian, Inc.  The licensee
 of this program is prohibited from giving any competitor of
 Gaussian, Inc. access to this program.  By using this program,
 the user acknowledges that Gaussian, Inc. is engaged in the
 business of creating and licensing software in the field of
 computational chemistry and represents and warrants to the
 licensee that it is not a competitor of Gaussian, Inc. and that
 it will not use this program in any manner prohibited above.
 ---------------------------------------------------------------
  

 Cite this work as:
 Gaussian 09, Revision D.01,
 M. J. Frisch, G. W. Trucks, H. B. Schlegel, G. E. Scuseria, 
 M. A. Robb, J. R. Cheeseman, G. Scalmani, V. Barone, B. Mennucci, 
 G. A. Petersson, H. Nakatsuji, M. Caricato, X. Li, H. P. Hratchian, 
 A. F. Izmaylov, J. Bloino, G. Zheng, J. L. Sonnenberg, M. Hada, 
 M. Ehara, K. Toyota, R. Fukuda, J. Hasegawa, M. Ishida, T. Nakajima, 
 Y. Honda, O. Kitao, H. Nakai, T. Vreven, J. A. Montgomery, Jr., 
 J. E. Peralta, F. Ogliaro, M. Bearpark, J. J. Heyd, E. Brothers, 
 K. N. Kudin, V. N. Staroverov, T. Keith, R. Kobayashi, J. Normand, 
 K. Raghavachari, A. Rendell, J. C. Burant, S. S. Iyengar, J. Tomasi, 
 M. Cossi, N. Rega, J. M. Millam, M. Klene, J. E. Knox, J. B. Cross, 
 V. Bakken, C. Adamo, J. Jaramillo, R. Gomperts, R. E. Stratmann, 
 O. Yazyev, A. J. Austin, R. Cammi, C. Pomelli, J. W. Ochterski, 
 R. L. Martin, K. Morokuma, V. G. Zakrzewski, G. A. Voth, 
 P. Salvador, J. J. Dannenberg, S. Dapprich, A. D. Daniels, 
 O. Farkas, J. B. Foresman, J. V. Ortiz, J. Cioslowski, 
 and D. J. Fox, Gaussian, Inc., Wallingford CT, 2013.
 
 ******************************************
 Gaussian 09:  ES64L-G09RevD.01 24-Apr-2013
                23-Nov-2015 
 ******************************************
 -----------------------
 #P AM1(Input,print) Opt
 -----------------------
 1/14=-1,18=20,19=15,26=1,38=1/1,3;
 2/9=110,12=2,17=6,18=5,40=1/2;
 3/5=2,16=1,25=1,41=700000,71=1,135=100,136=1/1,2,3;
 4/35=1/1;
 5/5=2,35=1,38=5/2;
 6/7=2,8=2,9=2,10=2,28=1/1;
 7//1,2,3,16;
 1/14=-1,18=20,19=15,26=1/3(2);
 2/9=110/2;
 99//99;
 2/9=110/2;
 3/5=2,16=1,25=1,41=700000,71=1,135=20,136=1/1,2,3;
 4/5=5,16=3,35=1/1;
 5/5=2,35=1,38=5/2;
 7//1,2,3,16;
 1/14=-1,18=20,19=15,26=1/3(-5);
 2/9=110/2;
 6/7=2,8=2,9=2,10=2,19=2,28=1/1;
 99/9=1/99;
 Leave Link    1 at Mon Nov 23 13:23:23 2015, MaxMem=           0 cpu:         0.0
 (Enter /home/Applications/g09/g09/l101.exe)
 -----------------
 AM1-Reparam Input
 -----------------
 Symbolic Z-matrix:
 Charge =  0 Multiplicity = 1
 6                     0.90823  -0.66674  -0.03179 
 6                    -0.35668  -1.07904  -0.03614 
 8                    -1.15197   0.018    -0.03283 
 6                    -0.37202   1.12847   0.03053 
 6                     0.99468   0.6861    0.02238 
 1                     1.78788   1.41364   0.00896 
 1                    -0.87744   2.04291  -0.02472 
 1                    -0.87926  -2.03991   0.00312 
 1                     1.85737  -1.36727   0.03875 
 
 NAtoms=      9 NQM=        9 NQMF=       0 NMMI=      0 NMMIF=      0
                NMic=       0 NMicF=      0.
                    Isotopes and Nuclear Properties:
 (Nuclear quadrupole moments (NQMom) in fm**2, nuclear magnetic moments (NMagM)
  in nuclear magnetons)

  Atom         1           2           3           4           5           6           7           8           9
 IAtWgt=          12          12          16          12          12           1           1           1           1
 AtmWgt=  12.0000000  12.0000000  15.9949146  12.0000000  12.0000000   1.0078250   1.0078250   1.0078250   1.0078250
 NucSpn=           0           0           0           0           0           1           1           1           1
 AtZEff=   0.0000000   0.0000000   0.0000000   0.0000000   0.0000000   0.0000000   0.0000000   0.0000000   0.0000000
 NQMom=    0.0000000   0.0000000   0.0000000   0.0000000   0.0000000   0.0000000   0.0000000   0.0000000   0.0000000
 NMagM=    0.0000000   0.0000000   0.0000000   0.0000000   0.0000000   2.7928460   2.7928460   2.7928460   2.7928460
 AtZNuc=   6.0000000   6.0000000   8.0000000   6.0000000   6.0000000   1.0000000   1.0000000   1.0000000   1.0000000
 Leave Link  101 at Mon Nov 23 13:23:23 2015, MaxMem=    33554432 cpu:         0.0
 (Enter /home/Applications/g09/g09/l103.exe)

 GradGradGradGradGradGradGradGradGradGradGradGradGradGradGradGradGradGrad
 Berny optimization.
 Initialization pass.
                           ----------------------------
                           !    Initial Parameters    !
                           ! (Angstroms and Degrees)  !
 --------------------------                            --------------------------
 ! Name  Definition              Value          Derivative Info.                !
 --------------------------------------------------------------------------------
 ! R1    R(1,2)                  1.3304         estimate D2E/DX2                !
 ! R2    R(1,5)                  1.3567         estimate D2E/DX2                !
 ! R3    R(1,9)                  1.1818         estimate D2E/DX2                !
 ! R4    R(2,3)                  1.355          estimate D2E/DX2                !
 ! R5    R(2,8)                  1.0945         estimate D2E/DX2                !
 ! R6    R(3,4)                  1.3585         estimate D2E/DX2                !
 ! R7    R(4,5)                  1.4365         estimate D2E/DX2                !
 ! R8    R(4,7)                  1.0463         estimate D2E/DX2                !
 ! R9    R(5,6)                  1.0764         estimate D2E/DX2                !
 ! A1    A(2,1,5)              111.7002         estimate D2E/DX2                !
 ! A2    A(2,1,9)              125.457          estimate D2E/DX2                !
 ! A3    A(5,1,9)              122.5161         estimate D2E/DX2                !
 ! A4    A(1,2,3)              107.8854         estimate D2E/DX2                !
 ! A5    A(1,2,8)              136.5451         estimate D2E/DX2                !
 ! A6    A(3,2,8)              115.4965         estimate D2E/DX2                !
 ! A7    A(2,3,4)              108.9624         estimate D2E/DX2                !
 ! A8    A(3,4,5)              107.1122         estimate D2E/DX2                !
 ! A9    A(3,4,7)              115.7613         estimate D2E/DX2                !
 ! A10   A(5,4,7)              136.7538         estimate D2E/DX2                !
 ! A11   A(1,5,4)              104.2805         estimate D2E/DX2                !
 ! A12   A(1,5,6)              136.0909         estimate D2E/DX2                !
 ! A13   A(4,5,6)              119.5383         estimate D2E/DX2                !
 ! D1    D(5,1,2,3)              2.1805         estimate D2E/DX2                !
 ! D2    D(5,1,2,8)           -174.4241         estimate D2E/DX2                !
 ! D3    D(9,1,2,3)            175.7241         estimate D2E/DX2                !
 ! D4    D(9,1,2,8)             -0.8805         estimate D2E/DX2                !
 ! D5    D(2,1,5,4)             -0.9563         estimate D2E/DX2                !
 ! D6    D(2,1,5,6)           -177.2979         estimate D2E/DX2                !
 ! D7    D(9,1,5,4)           -174.7205         estimate D2E/DX2                !
 ! D8    D(9,1,5,6)              8.9379         estimate D2E/DX2                !
 ! D9    D(1,2,3,4)             -2.5362         estimate D2E/DX2                !
 ! D10   D(8,2,3,4)            174.8772         estimate D2E/DX2                !
 ! D11   D(2,3,4,5)              1.9349         estimate D2E/DX2                !
 ! D12   D(2,3,4,7)            176.1118         estimate D2E/DX2                !
 ! D13   D(3,4,5,1)             -0.6187         estimate D2E/DX2                !
 ! D14   D(3,4,5,6)            176.4658         estimate D2E/DX2                !
 ! D15   D(7,4,5,1)           -172.9546         estimate D2E/DX2                !
 ! D16   D(7,4,5,6)              4.1299         estimate D2E/DX2                !
 --------------------------------------------------------------------------------
 Trust Radius=3.00D-01 FncErr=1.00D-07 GrdErr=1.00D-07
 Number of steps in this run=     48 maximum allowed number of steps=    100.
 GradGradGradGradGradGradGradGradGradGradGradGradGradGradGradGradGradGrad

 Leave Link  103 at Mon Nov 23 13:23:23 2015, MaxMem=    33554432 cpu:         0.0
 (Enter /home/Applications/g09/g09/l202.exe)
                          Input orientation:                          
 ---------------------------------------------------------------------
 Center     Atomic      Atomic             Coordinates (Angstroms)
 Number     Number       Type             X           Y           Z
 ---------------------------------------------------------------------
      1          6           0        0.908227   -0.666735   -0.031786
      2          6           0       -0.356680   -1.079044   -0.036139
      3          8           0       -1.151974    0.018001   -0.032826
      4          6           0       -0.372017    1.128465    0.030529
      5          6           0        0.994680    0.686099    0.022381
      6          1           0        1.787878    1.413639    0.008960
      7          1           0       -0.877435    2.042912   -0.024719
      8          1           0       -0.879263   -2.039909    0.003120
      9          1           0        1.857373   -1.367266    0.038748
 ---------------------------------------------------------------------
                    Distance matrix (angstroms):
                    1          2          3          4          5
     1  C    0.000000
     2  C    1.330416   0.000000
     3  O    2.171012   1.354995   0.000000
     4  C    2.205822   2.208569   1.358483   0.000000
     5  C    1.356675   2.223809   2.248894   1.436529   0.000000
     6  H    2.259071   3.288561   3.254579   2.178746   1.076410
     7  H    3.245123   3.165111   2.043453   1.046285   2.312569
     8  H    2.254317   1.094484   2.076212   3.208838   3.308044
     9  H    1.181777   2.233990   3.313647   3.346479   2.227289
                    6          7          8          9
     6  H    0.000000
     7  H    2.738798   0.000000
     8  H    4.363562   4.082916   0.000000
     9  H    2.781933   4.371786   2.818314   0.000000
 Stoichiometry    C4H4O
 Framework group  C1[X(C4H4O)]
 Deg. of freedom    21
 Full point group                 C1      NOp   1
 Largest Abelian subgroup         C1      NOp   1
 Largest concise Abelian subgroup C1      NOp   1
                         Standard orientation:                         
 ---------------------------------------------------------------------
 Center     Atomic      Atomic             Coordinates (Angstroms)
 Number     Number       Type             X           Y           Z
 ---------------------------------------------------------------------
      1          6           0        0.606094    0.969085   -0.021790
      2          6           0        1.121202   -0.257433   -0.003792
      3          8           0        0.093517   -1.140517   -0.010048
      4          6           0       -1.078393   -0.454293    0.024600
      5          6           0       -0.750029    0.944103    0.007767
      6          1           0       -1.540063    1.674333   -0.027834
      7          1           0       -1.946933   -1.034045   -0.040501
      8          1           0        2.120964   -0.698450    0.058460
      9          1           0        1.224651    1.973523    0.049545
 ---------------------------------------------------------------------
 Rotational constants (GHZ):      9.6180922      9.2890666      4.7273020
 Leave Link  202 at Mon Nov 23 13:23:23 2015, MaxMem=    33554432 cpu:         0.0
 (Enter /home/Applications/g09/g09/l301.exe)

 Semi-emprical parameters in input format:
 Method=8 CoreType=1 PeptideFC=0.0166290000 RIJScale=0.6119410000
 ****
 H       
 PQN=1 NValence=1 F0ss=0.4150770000 ZetaOverlap=1.0810580000 U=-0.4286880000
 Beta=-0.2869890000 CoreKO=1.2114800000 KON=0,0,0,1.1025190000 KON=1,0,1,1.1074920000
 KON=0,1,1,1.0916540000 KON=2,1,1,1.0589200000 EISol=-0.4188110042 EHeat=0.0830298228
 Alpha=1.5030030000
 GCore=0.0071120000,1.1207970000,2.7005670000
 GCore=0.0003230000,1.4222460000,3.4015070000
 GCore=-0.0013380000,0.4405990000,4.4481290000
 ****
 C       
 PQN=2,2 NValence=4 F0ss=0.4202500000 F0sp=0.4263690000 F0pp=0.3424460000 F2pp=0.1977130000
 G1sp=0.2746580000
 ZetaOverlap=1.7498310000,1.3881390000
 U=-1.7944250000,-1.4545000000
 Beta=-0.5214990000,-0.3746580000 DDN=0,1,0.8234340000 DDN=1,1,0.7559950000
 CoreKO=1.2002200000 KON=0,0,0,1.1694410000 KON=1,0,1,0.9096420000 KON=0,1,1,0.9370920000
 KON=2,1,1,0.5201690000 EISol=-4.4398989268 EHeat=0.2723305520 Alpha=1.3947510000
 DipHyp=1.6467732542
 GCore=0.0008780000,1.2683970000,2.4090670000
 GCore=0.0034720000,1.4096270000,3.6574610000
 GCore=-0.0014060000,1.4542400000,3.3154880000
 GCore=-0.0001000000,1.4766960000,5.0661660000
 ****
 O       
 PQN=2,2 NValence=6 F0ss=0.5672460000 F0sp=0.5681160000 F0pp=0.4898210000 F2pp=0.2703590000
 G1sp=0.4169050000
 ZetaOverlap=2.7263600000,1.8505270000
 U=-3.5241930000,-3.0238760000
 Beta=-0.9772650000,-1.1886600000 DDN=0,1,0.5807610000 DDN=1,1,0.4521100000
 CoreKO=0.9925760000 KON=0,0,0,0.8355350000 KON=1,0,1,0.5454830000 KON=0,1,1,0.8378550000
 KON=2,1,1,0.5017630000 EISol=-11.6164441184 EHeat=0.0949133088 Alpha=2.2627970000
 DipHyp=1.1614551766
 GCore=0.0225710000,1.2849200000,1.7519400000
 GCore=0.0054870000,1.7991710000,2.8334770000
 ****
 
 Standard basis: VSTO-6G (5D, 7F)
 Ernie: Thresh=  0.10000D-02 Tol=  0.10000D-05 Strict=F.
  NNHCO=     0 NNPyr=     0 NCTC=     0               EPep=         0.000000000
    EC=        66.889354303  ECS=         1.798278861   EG=         0.434658954
   EHC=         0.000000000  EAt=       -31.051283842  AtH=         1.516354808
 EPDDG=         0.000000000  ECC=        69.122292118 EAtT=        32.567638650
 There are    24 symmetry adapted cartesian basis functions of A   symmetry.
 There are    24 symmetry adapted basis functions of A   symmetry.
    24 basis functions,   144 primitive gaussians,    24 cartesian basis functions
    13 alpha electrons       13 beta electrons
       nuclear repulsion energy       101.6899307685 Hartrees.
 IExCor=    0 DFT=F Ex=HF Corr=None ExCW=0 ScaHFX=  1.000000
 ScaDFX=  1.000000  1.000000  1.000000  1.000000 ScalE2=  1.000000  1.000000
 IRadAn=      0 IRanWt=     -1 IRanGd=            0 ICorTp=0 IEmpDi=  4
 Integral buffers will be    131072 words long.
 Regular integral format.
 Two-electron integral symmetry is turned off.
 Leave Link  301 at Mon Nov 23 13:23:23 2015, MaxMem=    33554432 cpu:         0.0
 (Enter /home/Applications/g09/g09/l302.exe)
 Do NDO integrals.
 NPDir=0 NMtPBC=     1 NCelOv=     1 NCel=       1 NClECP=     1 NCelD=      1
         NCelK=      1 NCelE2=     1 NClLst=     1 CellRange=     0.0.
 One-electron integrals computed using PRISM.
 NBasis=    24 RedAO= F EigKep=  0.00D+00  NBF=    24
 NBsUse=    24 1.00D-04 EigRej=  0.00D+00 NBFU=    24
 Leave Link  302 at Mon Nov 23 13:23:23 2015, MaxMem=    33554432 cpu:         0.0
 (Enter /home/Applications/g09/g09/l303.exe)
 DipDrv:  MaxL=1.
 Leave Link  303 at Mon Nov 23 13:23:23 2015, MaxMem=    33554432 cpu:         0.0
 (Enter /home/Applications/g09/g09/l401.exe)
 Simple Huckel Guess.
 JPrj=0 DoOrth=F DoCkMO=F.
 Leave Link  401 at Mon Nov 23 13:23:23 2015, MaxMem=    33554432 cpu:         0.0
 (Enter /home/Applications/g09/g09/l502.exe)
 Closed shell SCF:
 Using DIIS extrapolation, IDIIS=  1040.
 Overlap will be assumed to be unity.
 Two-electron integral symmetry not used.
 Keep J ints in memory in canonical form, NReq=888082.
 IVT=       79475 IEndB=       79475 NGot=    33554432 MDV=    33473473
 LenX=    33473473 LenY=    33472456
 Requested convergence on RMS density matrix=1.00D-08 within 128 cycles.
 Requested convergence on MAX density matrix=1.00D-06.
 Requested convergence on             energy=1.00D-06.
 No special actions if energy rises.
 FoFCou: FMM=F IPFlag=           0 FMFlag=           0 FMFlg1=           0
         NFxFlg=           0 DoJE=F BraDBF=F KetDBF=F FulRan=T
         wScrn=  0.000000 ICntrl=     600 IOpCl=  2 I1Cent=           0 NGrid=           0
         NMat0=    1 NMatS0=     54 NMatT0=    0 NMatD0=    1 NMtDS0=    0 NMtDT0=    0
 Symmetry not used in FoFCou.

 Cycle   1  Pass 1  IDiag  1:
 E= -2.03985217657690    
 DIIS: error= 2.88D-02 at cycle   1 NSaved=   1.
 NSaved= 1 IEnMin= 1 EnMin= -2.03985217657690     IErMin= 1 ErrMin= 2.88D-02
 ErrMax= 2.88D-02  0.00D+00 EMaxC= 1.00D-01 BMatC= 5.64D-02 BMatP= 5.64D-02
 IDIUse=3 WtCom= 7.12D-01 WtEn= 2.88D-01
 Coeff-Com:  0.100D+01
 Coeff-En:   0.100D+01
 Coeff:      0.100D+01
 GapD=    2.000 DampG=2.000 DampE=0.500 DampFc=1.0000 IDamp=-1.
 RMSDP=1.39D-02 MaxDP=7.27D-02              OVMax= 0.00D+00

 Cycle   2  Pass 1  IDiag  1:
 E= -2.17776078236608     Delta-E=       -0.137908605789 Rises=F Damp=F
 DIIS: error= 1.34D-02 at cycle   2 NSaved=   2.
 NSaved= 2 IEnMin= 2 EnMin= -2.17776078236608     IErMin= 2 ErrMin= 1.34D-02
 ErrMax= 1.34D-02  0.00D+00 EMaxC= 1.00D-01 BMatC= 5.13D-03 BMatP= 5.64D-02
 IDIUse=3 WtCom= 8.66D-01 WtEn= 1.34D-01
 Coeff-Com: -0.313D+00 0.131D+01
 Coeff-En:   0.000D+00 0.100D+01
 Coeff:     -0.271D+00 0.127D+01
 RMSDP=6.19D-03 MaxDP=4.50D-02 DE=-1.38D-01 OVMax= 0.00D+00

 Cycle   3  Pass 1  IDiag  3:
 E= -2.19623521329024     Delta-E=       -0.018474430924 Rises=F Damp=F
 DIIS: error= 3.97D-03 at cycle   3 NSaved=   3.
 NSaved= 3 IEnMin= 3 EnMin= -2.19623521329024     IErMin= 3 ErrMin= 3.97D-03
 ErrMax= 3.97D-03  0.00D+00 EMaxC= 1.00D-01 BMatC= 4.44D-04 BMatP= 5.13D-03
 IDIUse=3 WtCom= 9.60D-01 WtEn= 3.97D-02
 Coeff-Com:  0.930D-01-0.597D+00 0.150D+01
 Coeff-En:   0.000D+00 0.000D+00 0.100D+01
 Coeff:      0.893D-01-0.574D+00 0.148D+01
 Gap=     0.496 Goal=   None    Shift=    0.000
 RMSDP=2.64D-03 MaxDP=2.16D-02 DE=-1.85D-02 OVMax= 1.55D-02

 Cycle   4  Pass 1  IDiag  3:
 E= -2.19850170138639     Delta-E=       -0.002266488096 Rises=F Damp=F
 DIIS: error= 7.17D-04 at cycle   4 NSaved=   4.
 NSaved= 4 IEnMin= 4 EnMin= -2.19850170138639     IErMin= 4 ErrMin= 7.17D-04
 ErrMax= 7.17D-04  0.00D+00 EMaxC= 1.00D-01 BMatC= 3.32D-05 BMatP= 4.44D-04
 IDIUse=3 WtCom= 9.93D-01 WtEn= 7.17D-03
 Coeff-Com: -0.158D-01 0.131D+00-0.567D+00 0.145D+01
 Coeff-En:   0.000D+00 0.000D+00 0.000D+00 0.100D+01
 Coeff:     -0.157D-01 0.130D+00-0.563D+00 0.145D+01
 Gap=     0.495 Goal=   None    Shift=    0.000
 RMSDP=8.41D-04 MaxDP=5.71D-03 DE=-2.27D-03 OVMax= 6.70D-03

 Cycle   5  Pass 1  IDiag  3:
 E= -2.19869372357209     Delta-E=       -0.000192022186 Rises=F Damp=F
 DIIS: error= 2.85D-04 at cycle   5 NSaved=   5.
 NSaved= 5 IEnMin= 5 EnMin= -2.19869372357209     IErMin= 5 ErrMin= 2.85D-04
 ErrMax= 2.85D-04  0.00D+00 EMaxC= 1.00D-01 BMatC= 3.45D-06 BMatP= 3.32D-05
 IDIUse=3 WtCom= 9.97D-01 WtEn= 2.85D-03
 Coeff-Com: -0.214D-03-0.232D-01 0.219D+00-0.908D+00 0.171D+01
 Coeff-En:   0.000D+00 0.000D+00 0.000D+00 0.000D+00 0.100D+01
 Coeff:     -0.213D-03-0.232D-01 0.218D+00-0.905D+00 0.171D+01
 Gap=     0.496 Goal=   None    Shift=    0.000
 RMSDP=2.89D-04 MaxDP=1.58D-03 DE=-1.92D-04 OVMax= 2.44D-03

 Cycle   6  Pass 1  IDiag  3:
 E= -2.19871402733827     Delta-E=       -0.000020303766 Rises=F Damp=F
 DIIS: error= 7.39D-05 at cycle   6 NSaved=   6.
 NSaved= 6 IEnMin= 6 EnMin= -2.19871402733827     IErMin= 6 ErrMin= 7.39D-05
 ErrMax= 7.39D-05  0.00D+00 EMaxC= 1.00D-01 BMatC= 2.01D-07 BMatP= 3.45D-06
 IDIUse=1 WtCom= 1.00D+00 WtEn= 0.00D+00
 Coeff-Com:  0.132D-02-0.222D-03-0.496D-01 0.287D+00-0.791D+00 0.155D+01
 Coeff:      0.132D-02-0.222D-03-0.496D-01 0.287D+00-0.791D+00 0.155D+01
 Gap=     0.496 Goal=   None    Shift=    0.000
 RMSDP=7.04D-05 MaxDP=5.32D-04 DE=-2.03D-05 OVMax= 4.96D-04

 Cycle   7  Pass 1  IDiag  3:
 E= -2.19871510210498     Delta-E=       -0.000001074767 Rises=F Damp=F
 DIIS: error= 1.08D-05 at cycle   7 NSaved=   7.
 NSaved= 7 IEnMin= 7 EnMin= -2.19871510210498     IErMin= 7 ErrMin= 1.08D-05
 ErrMax= 1.08D-05  0.00D+00 EMaxC= 1.00D-01 BMatC= 5.22D-09 BMatP= 2.01D-07
 IDIUse=1 WtCom= 1.00D+00 WtEn= 0.00D+00
 Coeff-Com: -0.526D-03 0.173D-03 0.188D-01-0.112D+00 0.321D+00-0.694D+00
 Coeff-Com:  0.147D+01
 Coeff:     -0.526D-03 0.173D-03 0.188D-01-0.112D+00 0.321D+00-0.694D+00
 Coeff:      0.147D+01
 Gap=     0.496 Goal=   None    Shift=    0.000
 RMSDP=9.06D-06 MaxDP=6.72D-05 DE=-1.07D-06 OVMax= 6.53D-05

 Cycle   8  Pass 1  IDiag  3:
 E= -2.19871513245853     Delta-E=       -0.000000030354 Rises=F Damp=F
 DIIS: error= 6.14D-06 at cycle   8 NSaved=   8.
 NSaved= 8 IEnMin= 8 EnMin= -2.19871513245853     IErMin= 8 ErrMin= 6.14D-06
 ErrMax= 6.14D-06  0.00D+00 EMaxC= 1.00D-01 BMatC= 1.27D-09 BMatP= 5.22D-09
 IDIUse=1 WtCom= 1.00D+00 WtEn= 0.00D+00
 Coeff-Com:  0.413D-03-0.333D-03-0.130D-01 0.812D-01-0.241D+00 0.544D+00
 Coeff-Com: -0.158D+01 0.221D+01
 Coeff:      0.413D-03-0.333D-03-0.130D-01 0.812D-01-0.241D+00 0.544D+00
 Coeff:     -0.158D+01 0.221D+01
 Gap=     0.496 Goal=   None    Shift=    0.000
 RMSDP=7.50D-06 MaxDP=6.29D-05 DE=-3.04D-08 OVMax= 6.07D-05

 Cycle   9  Pass 1  IDiag  3:
 E= -2.19871514335064     Delta-E=       -0.000000010892 Rises=F Damp=F
 DIIS: error= 2.08D-06 at cycle   9 NSaved=   9.
 NSaved= 9 IEnMin= 9 EnMin= -2.19871514335064     IErMin= 9 ErrMin= 2.08D-06
 ErrMax= 2.08D-06  0.00D+00 EMaxC= 1.00D-01 BMatC= 1.19D-10 BMatP= 1.27D-09
 IDIUse=1 WtCom= 1.00D+00 WtEn= 0.00D+00
 Coeff-Com: -0.116D-03 0.121D-03 0.344D-02-0.223D-01 0.702D-01-0.166D+00
 Coeff-Com:  0.584D+00-0.117D+01 0.170D+01
 Coeff:     -0.116D-03 0.121D-03 0.344D-02-0.223D-01 0.702D-01-0.166D+00
 Coeff:      0.584D+00-0.117D+01 0.170D+01
 Gap=     0.496 Goal=   None    Shift=    0.000
 RMSDP=2.60D-06 MaxDP=2.13D-05 DE=-1.09D-08 OVMax= 1.82D-05

 Cycle  10  Pass 1  IDiag  3:
 E= -2.19871514430486     Delta-E=       -0.000000000954 Rises=F Damp=F
 DIIS: error= 2.38D-07 at cycle  10 NSaved=  10.
 NSaved=10 IEnMin=10 EnMin= -2.19871514430486     IErMin=10 ErrMin= 2.38D-07
 ErrMax= 2.38D-07  0.00D+00 EMaxC= 1.00D-01 BMatC= 2.29D-12 BMatP= 1.19D-10
 IDIUse=1 WtCom= 1.00D+00 WtEn= 0.00D+00
 Coeff-Com:  0.498D-05 0.174D-04-0.380D-03 0.222D-02-0.757D-02 0.190D-01
 Coeff-Com: -0.840D-01 0.213D+00-0.453D+00 0.131D+01
 Coeff:      0.498D-05 0.174D-04-0.380D-03 0.222D-02-0.757D-02 0.190D-01
 Coeff:     -0.840D-01 0.213D+00-0.453D+00 0.131D+01
 Gap=     0.496 Goal=   None    Shift=    0.000
 RMSDP=2.20D-07 MaxDP=1.69D-06 DE=-9.54D-10 OVMax= 1.20D-06

 Cycle  11  Pass 1  IDiag  3:
 E= -2.19871514431502     Delta-E=       -0.000000000010 Rises=F Damp=F
 DIIS: error= 2.80D-08 at cycle  11 NSaved=  11.
 NSaved=11 IEnMin=11 EnMin= -2.19871514431502     IErMin=11 ErrMin= 2.80D-08
 ErrMax= 2.80D-08  0.00D+00 EMaxC= 1.00D-01 BMatC= 4.47D-14 BMatP= 2.29D-12
 IDIUse=1 WtCom= 1.00D+00 WtEn= 0.00D+00
 Coeff-Com:  0.704D-06-0.728D-05 0.459D-04-0.235D-03 0.955D-03-0.262D-02
 Coeff-Com:  0.146D-01-0.431D-01 0.107D+00-0.402D+00 0.133D+01
 Coeff:      0.704D-06-0.728D-05 0.459D-04-0.235D-03 0.955D-03-0.262D-02
 Coeff:      0.146D-01-0.431D-01 0.107D+00-0.402D+00 0.133D+01
 Gap=     0.496 Goal=   None    Shift=    0.000
 RMSDP=2.32D-08 MaxDP=1.24D-07 DE=-1.02D-11 OVMax= 1.38D-07

 Cycle  12  Pass 1  IDiag  3:
 E= -2.19871514431519     Delta-E=        0.000000000000 Rises=F Damp=F
 DIIS: error= 5.81D-09 at cycle  12 NSaved=  12.
 NSaved=12 IEnMin=12 EnMin= -2.19871514431519     IErMin=12 ErrMin= 5.81D-09
 ErrMax= 5.81D-09  0.00D+00 EMaxC= 1.00D-01 BMatC= 1.56D-15 BMatP= 4.47D-14
 IDIUse=1 WtCom= 1.00D+00 WtEn= 0.00D+00
 Coeff-Com: -0.313D-06 0.283D-05-0.162D-04 0.825D-04-0.349D-03 0.971D-03
 Coeff-Com: -0.552D-02 0.167D-01-0.419D-01 0.163D+00-0.621D+00 0.149D+01
 Coeff:     -0.313D-06 0.283D-05-0.162D-04 0.825D-04-0.349D-03 0.971D-03
 Coeff:     -0.552D-02 0.167D-01-0.419D-01 0.163D+00-0.621D+00 0.149D+01
 Gap=     0.496 Goal=   None    Shift=    0.000
 RMSDP=5.39D-09 MaxDP=3.30D-08 DE=-1.71D-13 OVMax= 4.12D-08

 Cycle  13  Pass 2  IDiag  1:
 SCF Done:  E(RAM1) =  -2.19871514432     A.U. after   13 cycles
            NFock= 12  Conv=0.54D-08     -V/T= 0.8794
 KE=-1.822492051416D+01 PE=-1.704879699901D+02 EE= 8.482424459145D+01
 Leave Link  502 at Mon Nov 23 13:23:23 2015, MaxMem=    33554432 cpu:         0.0
 (Enter /home/Applications/g09/g09/l601.exe)
 Copying SCF densities to generalized density rwf, IOpCl= 0 IROHF=0.

 **********************************************************************

            Population analysis using the SCF density.

 **********************************************************************

 Orbital symmetries:
       Occupied  (A) (A) (A) (A) (A) (A) (A) (A) (A) (A) (A) (A)
                 (A)
       Virtual   (A) (A) (A) (A) (A) (A) (A) (A) (A) (A) (A)
 The electronic state is 1-A.
 Alpha  occ. eigenvalues --   -1.57098  -1.15181  -1.10301  -0.85839  -0.84552
 Alpha  occ. eigenvalues --   -0.78579  -0.73315  -0.49223  -0.45610  -0.41042
 Alpha  occ. eigenvalues --   -0.40610  -0.39750  -0.32121
 Alpha virt. eigenvalues --    0.17444   0.20137   0.27484   0.28380   0.29488
 Alpha virt. eigenvalues --    0.31942   0.33947   0.36707   0.40717   0.42137
 Alpha virt. eigenvalues --    0.45934
          Condensed to atoms (all electrons):
               1          2          3          4          5          6
     1  C    4.214085   0.000000   0.000000   0.000000   0.000000   0.000000
     2  C    0.000000   4.101304   0.000000   0.000000   0.000000   0.000000
     3  O    0.000000   0.000000   5.842165   0.000000   0.000000   0.000000
     4  C    0.000000   0.000000   0.000000   4.102962   0.000000   0.000000
     5  C    0.000000   0.000000   0.000000   0.000000   4.311443   0.000000
     6  H    0.000000   0.000000   0.000000   0.000000   0.000000   0.845413
     7  H    0.000000   0.000000   0.000000   0.000000   0.000000   0.000000
     8  H    0.000000   0.000000   0.000000   0.000000   0.000000   0.000000
     9  H    0.000000   0.000000   0.000000   0.000000   0.000000   0.000000
               7          8          9
     1  C    0.000000   0.000000   0.000000
     2  C    0.000000   0.000000   0.000000
     3  O    0.000000   0.000000   0.000000
     4  C    0.000000   0.000000   0.000000
     5  C    0.000000   0.000000   0.000000
     6  H    0.000000   0.000000   0.000000
     7  H    0.851317   0.000000   0.000000
     8  H    0.000000   0.853971   0.000000
     9  H    0.000000   0.000000   0.877340
 Mulliken charges:
               1
     1  C   -0.214085
     2  C   -0.101304
     3  O    0.157835
     4  C   -0.102962
     5  C   -0.311443
     6  H    0.154587
     7  H    0.148683
     8  H    0.146029
     9  H    0.122660
 Sum of Mulliken charges =   0.00000
 Mulliken charges with hydrogens summed into heavy atoms:
               1
     1  C   -0.091425
     2  C    0.044725
     3  O    0.157835
     4  C    0.045721
     5  C   -0.156856
 Charge=              0.0000 electrons
 Dipole moment (field-independent basis, Debye):
    X=              0.1641    Y=             -1.2094    Z=              0.0005  Tot=              1.2205
 N-N= 1.016899307685D+02 E-N=-1.704879700099D+02  KE=-1.822492051416D+01
 Leave Link  601 at Mon Nov 23 13:23:23 2015, MaxMem=    33554432 cpu:         0.0
 (Enter /home/Applications/g09/g09/l701.exe)
 Compute integral first derivatives.
 ... and contract with generalized density number  0.
 Leave Link  701 at Mon Nov 23 13:23:23 2015, MaxMem=    33554432 cpu:         0.0
 (Enter /home/Applications/g09/g09/l702.exe)
 L702 exits ... SP integral derivatives will be done elsewhere.
 Leave Link  702 at Mon Nov 23 13:23:23 2015, MaxMem=    33554432 cpu:         0.0
 (Enter /home/Applications/g09/g09/l703.exe)
 Compute integral first derivatives, UseDBF=F ICtDFT=           0.
 Integral derivatives from FoFJK, PRISM(SPDF).
 Calling FoFJK, ICntrl=      2127 FMM=F ISym2X=0 I1Cent= 0 IOpClX= 0 NMat=1 NMatS=1 NMatT=0.
 FoFJK:  IHMeth= 8 ICntrl=    2127 DoSepK=F KAlg= 0 I1Cent=   0 FoldK=F
 IRaf=         0 NMat=   1 IRICut=       1 DoRegI=T DoRafI=F ISym2E= 0.
 FoFCou: FMM=F IPFlag=           0 FMFlag=      100000 FMFlg1=         800
         NFxFlg=           0 DoJE=F BraDBF=F KetDBF=F FulRan=T
         wScrn=  0.000000 ICntrl=    2127 IOpCl=  0 I1Cent=           0 NGrid=           0
         NMat0=    1 NMatS0=      1 NMatT0=    0 NMatD0=    1 NMtDS0=    0 NMtDT0=    0
 Symmetry not used in FoFCou.
 Leave Link  703 at Mon Nov 23 13:23:23 2015, MaxMem=    33554432 cpu:         0.0
 (Enter /home/Applications/g09/g09/l716.exe)
 Dipole        = 6.45492635D-02-4.75804946D-01 2.08774912D-04
 ***** Axes restored to original set *****
 -------------------------------------------------------------------
 Center     Atomic                   Forces (Hartrees/Bohr)
 Number     Number              X              Y              Z
 -------------------------------------------------------------------
      1        6           0.125692168   -0.070597227    0.016635695
      2        6          -0.039277126   -0.038854471   -0.000108529
      3        8          -0.057971209    0.015109945    0.006539554
      4        6           0.054878938   -0.035166955   -0.013049460
      5        6          -0.054686502    0.069452661   -0.003613263
      6        1           0.009582830   -0.010609327    0.002699287
      7        1          -0.002017968    0.031535878    0.003834918
      8        1           0.012512322    0.002956659   -0.004297581
      9        1          -0.048713452    0.036172838   -0.008640621
 -------------------------------------------------------------------
 Cartesian Forces:  Max     0.125692168 RMS     0.040894742
 Leave Link  716 at Mon Nov 23 13:23:23 2015, MaxMem=    33554432 cpu:         0.0
 (Enter /home/Applications/g09/g09/l103.exe)

 GradGradGradGradGradGradGradGradGradGradGradGradGradGradGradGradGradGrad
 Berny optimization.
 FormGI is forming the generalized inverse of G from B-inverse, IUseBI=4.
 Internal  Forces:  Max     0.061082446 RMS     0.019995225
 Search for a local minimum.
 Step number   1 out of a maximum of   48
 All quantities printed in internal units (Hartrees-Bohrs-Radians)
 RMS Force = .19995D-01 SwitMx=.10000D-02 MixMth= 1
 Mixed Optimization -- RFO/linear search
 Second derivative matrix not updated -- first step.
 ITU=  0
     Eigenvalues ---    0.01761   0.02101   0.02310   0.02665   0.02800
     Eigenvalues ---    0.02900   0.15868   0.15883   0.15961   0.15980
     Eigenvalues ---    0.21998   0.22927   0.26045   0.34300   0.36432
     Eigenvalues ---    0.37785   0.40396   0.47387   0.51145   0.53602
     Eigenvalues ---    0.57311
 RFO step:  Lambda=-4.02929400D-02 EMin= 1.76121746D-02
 Linear search not attempted -- first point.
 Maximum step size (   0.300) exceeded in Quadratic search.
    -- Step size scaled by   0.898
 Iteration  1 RMS(Cart)=  0.04365620 RMS(Int)=  0.00223459
 Iteration  2 RMS(Cart)=  0.00196543 RMS(Int)=  0.00115417
 Iteration  3 RMS(Cart)=  0.00000462 RMS(Int)=  0.00115416
 Iteration  4 RMS(Cart)=  0.00000002 RMS(Int)=  0.00115416
 ITry= 1 IFail=0 DXMaxC= 1.07D-01 DCOld= 1.00D+10 DXMaxT= 3.00D-01 DXLimC= 3.00D+00 Rises=F
 Variable       Old X    -DE/DX   Delta X   Delta X   Delta X     New X
                                 (Linear)    (Quad)   (Total)
    R1        2.51412   0.05275   0.00000   0.08124   0.08124   2.59536
    R2        2.56374   0.03507   0.00000   0.05434   0.05433   2.61808
    R3        2.23323  -0.06108   0.00000  -0.18232  -0.18232   2.05091
    R4        2.56057   0.04349   0.00000   0.07256   0.07257   2.63314
    R5        2.06828  -0.00872   0.00000  -0.02043  -0.02043   2.04784
    R6        2.56716   0.03209   0.00000   0.04635   0.04636   2.61352
    R7        2.71465  -0.02850   0.00000  -0.06816  -0.06818   2.64647
    R8        1.97719   0.02833   0.00000   0.05725   0.05725   2.03445
    R9        2.03412  -0.00014   0.00000  -0.00032  -0.00032   2.03380
    A1        1.94954  -0.01805   0.00000  -0.04963  -0.05001   1.89952
    A2        2.18964   0.00899   0.00000   0.02656   0.02629   2.21593
    A3        2.13831   0.00936   0.00000   0.02796   0.02765   2.16596
    A4        1.88296  -0.00016   0.00000   0.02301   0.02295   1.90591
    A5        2.38316  -0.00977   0.00000  -0.05558  -0.05557   2.32760
    A6        2.01579   0.00994   0.00000   0.03279   0.03281   2.04860
    A7        1.90175  -0.01727   0.00000  -0.05212  -0.05216   1.84960
    A8        1.86946   0.02127   0.00000   0.04971   0.04893   1.91839
    A9        2.02042   0.00250   0.00000   0.03750   0.03696   2.05738
   A10        2.38680  -0.02330   0.00000  -0.07952  -0.08038   2.30643
   A11        1.82004   0.01437   0.00000   0.03138   0.03124   1.85128
   A12        2.37523  -0.02137   0.00000  -0.07923  -0.07934   2.29589
   A13        2.08634   0.00708   0.00000   0.04878   0.04888   2.13522
    D1        0.03806  -0.00263   0.00000  -0.03724  -0.03827  -0.00021
    D2       -3.04428  -0.00323   0.00000  -0.04420  -0.04469  -3.08896
    D3        3.06696   0.00072   0.00000   0.01212   0.01209   3.07906
    D4       -0.01537   0.00012   0.00000   0.00515   0.00568  -0.00969
    D5       -0.01669   0.00065   0.00000   0.00926   0.00955  -0.00714
    D6       -3.09443  -0.00170   0.00000  -0.01307  -0.01101  -3.10544
    D7       -3.04945  -0.00263   0.00000  -0.03852  -0.03915  -3.08860
    D8        0.15600  -0.00498   0.00000  -0.06085  -0.05971   0.09629
    D9       -0.04426   0.00377   0.00000   0.05172   0.05183   0.00757
   D10        3.05218   0.00355   0.00000   0.05367   0.05372   3.10590
   D11        0.03377  -0.00297   0.00000  -0.04549  -0.04592  -0.01215
   D12        3.07373  -0.00100   0.00000   0.00844   0.01379   3.08752
   D13       -0.01080   0.00137   0.00000   0.02201   0.02287   0.01207
   D14        3.07991   0.00190   0.00000   0.03420   0.03540   3.11531
   D15       -3.01863  -0.00472   0.00000  -0.06297  -0.06091  -3.07954
   D16        0.07208  -0.00419   0.00000  -0.05078  -0.04837   0.02371
         Item               Value     Threshold  Converged?
 Maximum Force            0.061082     0.000450     NO 
 RMS     Force            0.019995     0.000300     NO 
 Maximum Displacement     0.106739     0.001800     NO 
 RMS     Displacement     0.043589     0.001200     NO 
 Predicted change in Energy=-2.222633D-02
 Lowest energy point so far.  Saving SCF results.
 GradGradGradGradGradGradGradGradGradGradGradGradGradGradGradGradGradGrad

 Leave Link  103 at Mon Nov 23 13:23:23 2015, MaxMem=    33554432 cpu:         0.0
 (Enter /home/Applications/g09/g09/l202.exe)
                          Input orientation:                          
 ---------------------------------------------------------------------
 Center     Atomic      Atomic             Coordinates (Angstroms)
 Number     Number       Type             X           Y           Z
 ---------------------------------------------------------------------
      1          6           0        0.938695   -0.686085   -0.012970
      2          6           0       -0.370325   -1.101302   -0.030588
      3          8           0       -1.205193    0.014113   -0.010518
      4          6           0       -0.368711    1.115305    0.009635
      5          6           0        0.968300    0.698671    0.018342
      6          1           0        1.788507    1.395440    0.010071
      7          1           0       -0.820951    2.091710   -0.024176
      8          1           0       -0.841726   -2.076931   -0.014042
      9          1           0        1.822193   -1.314759    0.032513
 ---------------------------------------------------------------------
                    Distance matrix (angstroms):
                    1          2          3          4          5
     1  C    0.000000
     2  C    1.373408   0.000000
     3  O    2.255336   1.393398   0.000000
     4  C    2.225945   2.216972   1.383016   0.000000
     5  C    1.385426   2.243704   2.278930   1.400449   0.000000
     6  H    2.248435   3.300898   3.297079   2.175331   1.076242
     7  H    3.288256   3.224659   2.112874   1.076583   2.267991
     8  H    2.259282   1.083672   2.122401   3.227178   3.313790
     9  H    1.085296   2.203788   3.306481   3.271971   2.187060
                    6          7          8          9
     6  H    0.000000
     7  H    2.700969   0.000000
     8  H    4.356153   4.168705   0.000000
     9  H    2.710502   4.312013   2.771198   0.000000
 Stoichiometry    C4H4O
 Framework group  C1[X(C4H4O)]
 Deg. of freedom    21
 Full point group                 C1      NOp   1
 RotChk:  IX=2 Diff= 1.83D-01
 Largest Abelian subgroup         C1      NOp   1
 Largest concise Abelian subgroup C1      NOp   1
                         Standard orientation:                         
 ---------------------------------------------------------------------
 Center     Atomic      Atomic             Coordinates (Angstroms)
 Number     Number       Type             X           Y           Z
 ---------------------------------------------------------------------
      1          6           0        0.479737    1.082565   -0.009353
      2          6           0        1.160729   -0.110120   -0.010947
      3          8           0        0.245312   -1.160510    0.004812
      4          6           0       -1.007128   -0.573887    0.005928
      5          6           0       -0.880643    0.820838    0.007119
      6          1           0       -1.733943    1.476317   -0.015785
      7          1           0       -1.866328   -1.221344   -0.034131
      8          1           0        2.213313   -0.365952    0.020061
      9          1           0        0.908293    2.078683    0.034879
 ---------------------------------------------------------------------
 Rotational constants (GHZ):      9.4568867      8.9972296      4.6111970
 Leave Link  202 at Mon Nov 23 13:23:23 2015, MaxMem=    33554432 cpu:         0.0
 (Enter /home/Applications/g09/g09/l301.exe)

 Semi-emprical parameters in input format:
 Method=8 CoreType=1 PeptideFC=0.0166290000 RIJScale=0.6119410000
 ****
 H       
 PQN=1 NValence=1 F0ss=0.4150770000 ZetaOverlap=1.0810580000 U=-0.4286880000
 Beta=-0.2869890000 CoreKO=1.2114800000 KON=0,0,0,1.1025190000 KON=1,0,1,1.1074920000
 KON=0,1,1,1.0916540000 KON=2,1,1,1.0589200000 EISol=-0.4188110042 EHeat=0.0830298228
 Alpha=1.5030030000
 GCore=0.0071120000,1.1207970000,2.7005670000
 GCore=0.0003230000,1.4222460000,3.4015070000
 GCore=-0.0013380000,0.4405990000,4.4481290000
 ****
 C       
 PQN=2,2 NValence=4 F0ss=0.4202500000 F0sp=0.4263690000 F0pp=0.3424460000 F2pp=0.1977130000
 G1sp=0.2746580000
 ZetaOverlap=1.7498310000,1.3881390000
 U=-1.7944250000,-1.4545000000
 Beta=-0.5214990000,-0.3746580000 DDN=0,1,0.8234340000 DDN=1,1,0.7559950000
 CoreKO=1.2002200000 KON=0,0,0,1.1694410000 KON=1,0,1,0.9096420000 KON=0,1,1,0.9370920000
 KON=2,1,1,0.5201690000 EISol=-4.4398989268 EHeat=0.2723305520 Alpha=1.3947510000
 DipHyp=1.6467732542
 GCore=0.0008780000,1.2683970000,2.4090670000
 GCore=0.0034720000,1.4096270000,3.6574610000
 GCore=-0.0014060000,1.4542400000,3.3154880000
 GCore=-0.0001000000,1.4766960000,5.0661660000
 ****
 O       
 PQN=2,2 NValence=6 F0ss=0.5672460000 F0sp=0.5681160000 F0pp=0.4898210000 F2pp=0.2703590000
 G1sp=0.4169050000
 ZetaOverlap=2.7263600000,1.8505270000
 U=-3.5241930000,-3.0238760000
 Beta=-0.9772650000,-1.1886600000 DDN=0,1,0.5807610000 DDN=1,1,0.4521100000
 CoreKO=0.9925760000 KON=0,0,0,0.8355350000 KON=1,0,1,0.5454830000 KON=0,1,1,0.8378550000
 KON=2,1,1,0.5017630000 EISol=-11.6164441184 EHeat=0.0949133088 Alpha=2.2627970000
 DipHyp=1.1614551766
 GCore=0.0225710000,1.2849200000,1.7519400000
 GCore=0.0054870000,1.7991710000,2.8334770000
 ****
 
 Standard basis: VSTO-6G (5D, 7F)
 Ernie: Thresh=  0.10000D-02 Tol=  0.10000D-05 Strict=F.
  NNHCO=     0 NNPyr=     0 NCTC=     0               EPep=         0.000000000
    EC=        66.379310677  ECS=         1.741014093   EG=         0.402403997
   EHC=         0.000000000  EAt=       -31.051283842  AtH=         1.516354808
 EPDDG=         0.000000000  ECC=        68.522728766 EAtT=        32.567638650
 There are    24 symmetry adapted cartesian basis functions of A   symmetry.
 There are    24 symmetry adapted basis functions of A   symmetry.
    24 basis functions,   144 primitive gaussians,    24 cartesian basis functions
    13 alpha electrons       13 beta electrons
       nuclear repulsion energy       101.0903674160 Hartrees.
 IExCor=    0 DFT=F Ex=HF Corr=None ExCW=0 ScaHFX=  1.000000
 ScaDFX=  1.000000  1.000000  1.000000  1.000000 ScalE2=  1.000000  1.000000
 IRadAn=      0 IRanWt=     -1 IRanGd=            0 ICorTp=0 IEmpDi=  4
 Integral buffers will be    131072 words long.
 Regular integral format.
 Two-electron integral symmetry is turned off.
 Leave Link  301 at Mon Nov 23 13:23:23 2015, MaxMem=    33554432 cpu:         0.0
 (Enter /home/Applications/g09/g09/l302.exe)
 Do NDO integrals.
 NPDir=0 NMtPBC=     1 NCelOv=     1 NCel=       1 NClECP=     1 NCelD=      1
         NCelK=      1 NCelE2=     1 NClLst=     1 CellRange=     0.0.
 One-electron integrals computed using PRISM.
 NBasis=    24 RedAO= F EigKep=  0.00D+00  NBF=    24
 NBsUse=    24 1.00D-04 EigRej=  0.00D+00 NBFU=    24
 Leave Link  302 at Mon Nov 23 13:23:23 2015, MaxMem=    33554432 cpu:         0.0
 (Enter /home/Applications/g09/g09/l303.exe)
 DipDrv:  MaxL=1.
 Leave Link  303 at Mon Nov 23 13:23:23 2015, MaxMem=    33554432 cpu:         0.0
 (Enter /home/Applications/g09/g09/l401.exe)
 Initial guess from the checkpoint file:  "/home/Applications/g09/scratch/Gau-4858.chk"
 B after Tr=     0.000000    0.000000    0.000000
         Rot=    0.997835   -0.000139    0.000024   -0.065773 Ang=  -7.54 deg.
 Guess basis will be translated and rotated to current coordinates.
 JPrj=0 DoOrth=T DoCkMO=T.
 Leave Link  401 at Mon Nov 23 13:23:23 2015, MaxMem=    33554432 cpu:         0.0
 (Enter /home/Applications/g09/g09/l502.exe)
 Closed shell SCF:
 Using DIIS extrapolation, IDIIS=  1040.
 Overlap will be assumed to be unity.
 Two-electron integral symmetry not used.
 Keep J ints in memory in canonical form, NReq=888082.
 IVT=       79475 IEndB=       79475 NGot=    33554432 MDV=    33473473
 LenX=    33473473 LenY=    33472456
 Requested convergence on RMS density matrix=1.00D-08 within 128 cycles.
 Requested convergence on MAX density matrix=1.00D-06.
 Requested convergence on             energy=1.00D-06.
 No special actions if energy rises.
 FoFCou: FMM=F IPFlag=           0 FMFlag=           0 FMFlg1=           0
         NFxFlg=           0 DoJE=F BraDBF=F KetDBF=F FulRan=T
         wScrn=  0.000000 ICntrl=     600 IOpCl=  2 I1Cent=           0 NGrid=           0
         NMat0=    1 NMatS0=     54 NMatT0=    0 NMatD0=    1 NMtDS0=    0 NMtDT0=    0
 Symmetry not used in FoFCou.

 Cycle   1  Pass 1  IDiag  1:
 E= -2.21031618835555    
 DIIS: error= 9.35D-03 at cycle   1 NSaved=   1.
 NSaved= 1 IEnMin= 1 EnMin= -2.21031618835555     IErMin= 1 ErrMin= 9.35D-03
 ErrMax= 9.35D-03  0.00D+00 EMaxC= 1.00D-01 BMatC= 3.87D-03 BMatP= 3.87D-03
 IDIUse=3 WtCom= 9.07D-01 WtEn= 9.35D-02
 Coeff-Com:  0.100D+01
 Coeff-En:   0.100D+01
 Coeff:      0.100D+01
 GapD=    2.000 DampG=2.000 DampE=1.000 DampFc=2.0000 IDamp=-1.
 RMSDP=3.33D-03 MaxDP=1.45D-02              OVMax= 0.00D+00

 Cycle   2  Pass 1  IDiag  3:
 E= -2.21877641953802     Delta-E=       -0.008460231182 Rises=F Damp=F
 DIIS: error= 2.48D-03 at cycle   2 NSaved=   2.
 NSaved= 2 IEnMin= 2 EnMin= -2.21877641953802     IErMin= 2 ErrMin= 2.48D-03
 ErrMax= 2.48D-03  0.00D+00 EMaxC= 1.00D-01 BMatC= 2.83D-04 BMatP= 3.87D-03
 IDIUse=3 WtCom= 9.75D-01 WtEn= 2.48D-02
 Coeff-Com: -0.320D+00 0.132D+01
 Coeff-En:   0.000D+00 0.100D+01
 Coeff:     -0.312D+00 0.131D+01
 Gap=     0.493 Goal=   None    Shift=    0.000
 RMSDP=1.39D-03 MaxDP=5.22D-03 DE=-8.46D-03 OVMax= 8.01D-03

 Cycle   3  Pass 1  IDiag  3:
 E= -2.21963278388441     Delta-E=       -0.000856364346 Rises=F Damp=F
 DIIS: error= 4.66D-04 at cycle   3 NSaved=   3.
 NSaved= 3 IEnMin= 3 EnMin= -2.21963278388441     IErMin= 3 ErrMin= 4.66D-04
 ErrMax= 4.66D-04  0.00D+00 EMaxC= 1.00D-01 BMatC= 8.23D-06 BMatP= 2.83D-04
 IDIUse=3 WtCom= 9.95D-01 WtEn= 4.66D-03
 Coeff-Com:  0.699D-01-0.359D+00 0.129D+01
 Coeff-En:   0.000D+00 0.000D+00 0.100D+01
 Coeff:      0.696D-01-0.358D+00 0.129D+01
 Gap=     0.493 Goal=   None    Shift=    0.000
 RMSDP=3.32D-04 MaxDP=1.88D-03 DE=-8.56D-04 OVMax= 2.97D-03

 Cycle   4  Pass 1  IDiag  3:
 E= -2.21967357653993     Delta-E=       -0.000040792656 Rises=F Damp=F
 DIIS: error= 2.13D-04 at cycle   4 NSaved=   4.
 NSaved= 4 IEnMin= 4 EnMin= -2.21967357653993     IErMin= 4 ErrMin= 2.13D-04
 ErrMax= 2.13D-04  0.00D+00 EMaxC= 1.00D-01 BMatC= 1.03D-06 BMatP= 8.23D-06
 IDIUse=3 WtCom= 9.98D-01 WtEn= 2.13D-03
 Coeff-Com: -0.479D-02 0.468D-01-0.506D+00 0.146D+01
 Coeff-En:   0.000D+00 0.000D+00 0.000D+00 0.100D+01
 Coeff:     -0.478D-02 0.467D-01-0.505D+00 0.146D+01
 Gap=     0.493 Goal=   None    Shift=    0.000
 RMSDP=1.49D-04 MaxDP=1.06D-03 DE=-4.08D-05 OVMax= 1.55D-03

 Cycle   5  Pass 1  IDiag  3:
 E= -2.21967987273683     Delta-E=       -0.000006296197 Rises=F Damp=F
 DIIS: error= 6.50D-05 at cycle   5 NSaved=   5.
 NSaved= 5 IEnMin= 5 EnMin= -2.21967987273683     IErMin= 5 ErrMin= 6.50D-05
 ErrMax= 6.50D-05  0.00D+00 EMaxC= 1.00D-01 BMatC= 1.44D-07 BMatP= 1.03D-06
 IDIUse=1 WtCom= 1.00D+00 WtEn= 0.00D+00
 Coeff-Com: -0.528D-02 0.121D-01 0.200D+00-0.993D+00 0.179D+01
 Coeff:     -0.528D-02 0.121D-01 0.200D+00-0.993D+00 0.179D+01
 Gap=     0.493 Goal=   None    Shift=    0.000
 RMSDP=6.68D-05 MaxDP=5.22D-04 DE=-6.30D-06 OVMax= 5.55D-04

 Cycle   6  Pass 1  IDiag  3:
 E= -2.21968085768474     Delta-E=       -0.000000984948 Rises=F Damp=F
 DIIS: error= 1.89D-05 at cycle   6 NSaved=   6.
 NSaved= 6 IEnMin= 6 EnMin= -2.21968085768474     IErMin= 6 ErrMin= 1.89D-05
 ErrMax= 1.89D-05  0.00D+00 EMaxC= 1.00D-01 BMatC= 1.39D-08 BMatP= 1.44D-07
 IDIUse=1 WtCom= 1.00D+00 WtEn= 0.00D+00
 Coeff-Com:  0.348D-02-0.896D-02-0.120D+00 0.640D+00-0.137D+01 0.185D+01
 Coeff:      0.348D-02-0.896D-02-0.120D+00 0.640D+00-0.137D+01 0.185D+01
 Gap=     0.493 Goal=   None    Shift=    0.000
 RMSDP=2.15D-05 MaxDP=1.71D-04 DE=-9.85D-07 OVMax= 1.52D-04

 Cycle   7  Pass 1  IDiag  3:
 E= -2.21968095530804     Delta-E=       -0.000000097623 Rises=F Damp=F
 DIIS: error= 6.98D-06 at cycle   7 NSaved=   7.
 NSaved= 7 IEnMin= 7 EnMin= -2.21968095530804     IErMin= 7 ErrMin= 6.98D-06
 ErrMax= 6.98D-06  0.00D+00 EMaxC= 1.00D-01 BMatC= 1.38D-09 BMatP= 1.39D-08
 IDIUse=1 WtCom= 1.00D+00 WtEn= 0.00D+00
 Coeff-Com: -0.218D-02 0.543D-02 0.813D-01-0.431D+00 0.945D+00-0.148D+01
 Coeff-Com:  0.188D+01
 Coeff:     -0.218D-02 0.543D-02 0.813D-01-0.431D+00 0.945D+00-0.148D+01
 Coeff:      0.188D+01
 Gap=     0.493 Goal=   None    Shift=    0.000
 RMSDP=7.06D-06 MaxDP=5.79D-05 DE=-9.76D-08 OVMax= 6.00D-05

 Cycle   8  Pass 1  IDiag  3:
 E= -2.21968096604876     Delta-E=       -0.000000010741 Rises=F Damp=F
 DIIS: error= 2.43D-06 at cycle   8 NSaved=   8.
 NSaved= 8 IEnMin= 8 EnMin= -2.21968096604876     IErMin= 8 ErrMin= 2.43D-06
 ErrMax= 2.43D-06  0.00D+00 EMaxC= 1.00D-01 BMatC= 1.69D-10 BMatP= 1.38D-09
 IDIUse=1 WtCom= 1.00D+00 WtEn= 0.00D+00
 Coeff-Com:  0.114D-02-0.299D-02-0.391D-01 0.211D+00-0.472D+00 0.777D+00
 Coeff-Com: -0.132D+01 0.184D+01
 Coeff:      0.114D-02-0.299D-02-0.391D-01 0.211D+00-0.472D+00 0.777D+00
 Coeff:     -0.132D+01 0.184D+01
 Gap=     0.493 Goal=   None    Shift=    0.000
 RMSDP=2.79D-06 MaxDP=2.38D-05 DE=-1.07D-08 OVMax= 2.17D-05

 Cycle   9  Pass 1  IDiag  3:
 E= -2.21968096733711     Delta-E=       -0.000000001288 Rises=F Damp=F
 DIIS: error= 3.73D-07 at cycle   9 NSaved=   9.
 NSaved= 9 IEnMin= 9 EnMin= -2.21968096733711     IErMin= 9 ErrMin= 3.73D-07
 ErrMax= 3.73D-07  0.00D+00 EMaxC= 1.00D-01 BMatC= 7.09D-12 BMatP= 1.69D-10
 IDIUse=1 WtCom= 1.00D+00 WtEn= 0.00D+00
 Coeff-Com: -0.189D-03 0.462D-03 0.720D-02-0.377D-01 0.843D-01-0.142D+00
 Coeff-Com:  0.292D+00-0.617D+00 0.141D+01
 Coeff:     -0.189D-03 0.462D-03 0.720D-02-0.377D-01 0.843D-01-0.142D+00
 Coeff:      0.292D+00-0.617D+00 0.141D+01
 Gap=     0.493 Goal=   None    Shift=    0.000
 RMSDP=4.43D-07 MaxDP=3.07D-06 DE=-1.29D-09 OVMax= 2.74D-06

 Cycle  10  Pass 1  IDiag  3:
 E= -2.21968096737669     Delta-E=       -0.000000000040 Rises=F Damp=F
 DIIS: error= 7.61D-08 at cycle  10 NSaved=  10.
 NSaved=10 IEnMin=10 EnMin= -2.21968096737669     IErMin=10 ErrMin= 7.61D-08
 ErrMax= 7.61D-08  0.00D+00 EMaxC= 1.00D-01 BMatC= 2.22D-13 BMatP= 7.09D-12
 IDIUse=1 WtCom= 1.00D+00 WtEn= 0.00D+00
 Coeff-Com:  0.289D-04-0.638D-04-0.123D-02 0.624D-02-0.140D-01 0.249D-01
 Coeff-Com: -0.627D-01 0.170D+00-0.548D+00 0.142D+01
 Coeff:      0.289D-04-0.638D-04-0.123D-02 0.624D-02-0.140D-01 0.249D-01
 Coeff:     -0.627D-01 0.170D+00-0.548D+00 0.142D+01
 Gap=     0.493 Goal=   None    Shift=    0.000
 RMSDP=6.08D-08 MaxDP=3.43D-07 DE=-3.96D-11 OVMax= 3.64D-07

 Cycle  11  Pass 1  IDiag  3:
 E= -2.21968096737794     Delta-E=       -0.000000000001 Rises=F Damp=F
 DIIS: error= 1.01D-08 at cycle  11 NSaved=  11.
 NSaved=11 IEnMin=11 EnMin= -2.21968096737794     IErMin=11 ErrMin= 1.01D-08
 ErrMax= 1.01D-08  0.00D+00 EMaxC= 1.00D-01 BMatC= 5.30D-15 BMatP= 2.22D-13
 IDIUse=1 WtCom= 1.00D+00 WtEn= 0.00D+00
 Coeff-Com: -0.440D-05 0.743D-05 0.233D-03-0.112D-02 0.252D-02-0.474D-02
 Coeff-Com:  0.142D-01-0.437D-01 0.159D+00-0.514D+00 0.139D+01
 Coeff:     -0.440D-05 0.743D-05 0.233D-03-0.112D-02 0.252D-02-0.474D-02
 Coeff:      0.142D-01-0.437D-01 0.159D+00-0.514D+00 0.139D+01
 Gap=     0.493 Goal=   None    Shift=    0.000
 RMSDP=8.49D-09 MaxDP=4.41D-08 DE=-1.25D-12 OVMax= 4.02D-08

 Cycle  12  Pass 2  IDiag  1:
 SCF Done:  E(RAM1) =  -2.21968096738     A.U. after   12 cycles
            NFock= 11  Conv=0.85D-08     -V/T= 0.8777
 KE=-1.815636153273D+01 PE=-1.694979948204D+02 EE= 8.434430796974D+01
 Leave Link  502 at Mon Nov 23 13:23:23 2015, MaxMem=    33554432 cpu:         0.0
 (Enter /home/Applications/g09/g09/l701.exe)
 Compute integral first derivatives.
 ... and contract with generalized density number  0.
 Leave Link  701 at Mon Nov 23 13:23:23 2015, MaxMem=    33554432 cpu:         0.0
 (Enter /home/Applications/g09/g09/l702.exe)
 L702 exits ... SP integral derivatives will be done elsewhere.
 Leave Link  702 at Mon Nov 23 13:23:23 2015, MaxMem=    33554432 cpu:         0.0
 (Enter /home/Applications/g09/g09/l703.exe)
 Compute integral first derivatives, UseDBF=F ICtDFT=           0.
 Integral derivatives from FoFJK, PRISM(SPDF).
 Calling FoFJK, ICntrl=      2127 FMM=F ISym2X=0 I1Cent= 0 IOpClX= 0 NMat=1 NMatS=1 NMatT=0.
 FoFJK:  IHMeth= 8 ICntrl=    2127 DoSepK=F KAlg= 0 I1Cent=   0 FoldK=F
 IRaf=         0 NMat=   1 IRICut=       1 DoRegI=T DoRafI=F ISym2E= 0.
 FoFCou: FMM=F IPFlag=           0 FMFlag=      100000 FMFlg1=         800
         NFxFlg=           0 DoJE=F BraDBF=F KetDBF=F FulRan=T
         wScrn=  0.000000 ICntrl=    2127 IOpCl=  0 I1Cent=           0 NGrid=           0
         NMat0=    1 NMatS0=      1 NMatT0=    0 NMatD0=    1 NMtDS0=    0 NMtDT0=    0
 Symmetry not used in FoFCou.
 Leave Link  703 at Mon Nov 23 13:23:23 2015, MaxMem=    33554432 cpu:         0.0
 (Enter /home/Applications/g09/g09/l716.exe)
 Dipole        = 5.81221364D-02-3.73730690D-01 5.02257875D-03
 ***** Axes restored to original set *****
 -------------------------------------------------------------------
 Center     Atomic                   Forces (Hartrees/Bohr)
 Number     Number              X              Y              Z
 -------------------------------------------------------------------
      1        6           0.012317047   -0.021457296    0.006165025
      2        6          -0.011207284    0.014939869    0.005618791
      3        8           0.008905459   -0.003185183   -0.002488182
      4        6           0.012662944   -0.020580762   -0.003041075
      5        6          -0.034987269    0.030397371   -0.005093462
      6        1           0.007031644   -0.006367154    0.001830429
      7        1           0.002529308    0.003637323    0.002728024
      8        1           0.005496310    0.001720193   -0.002217199
      9        1          -0.002748158    0.000895640   -0.003502352
 -------------------------------------------------------------------
 Cartesian Forces:  Max     0.034987269 RMS     0.012281391
 Leave Link  716 at Mon Nov 23 13:23:23 2015, MaxMem=    33554432 cpu:         0.0
 (Enter /home/Applications/g09/g09/l103.exe)

 GradGradGradGradGradGradGradGradGradGradGradGradGradGradGradGradGradGrad
 Berny optimization.
 Using GEDIIS/GDIIS optimizer.
 FormGI is forming the generalized inverse of G from B-inverse, IUseBI=4.
 Internal  Forces:  Max     0.020933482 RMS     0.005566578
 Search for a local minimum.
 Step number   2 out of a maximum of   48
 All quantities printed in internal units (Hartrees-Bohrs-Radians)
 RMS Force = .55666D-02 SwitMx=.10000D-02 MixMth= 1
 Mixed Optimization -- RFO/linear search
 Update second derivatives using D2CorX and points    1    2
 DE= -2.10D-02 DEPred=-2.22D-02 R= 9.43D-01
 TightC=F SS=  1.41D+00  RLast= 3.38D-01 DXNew= 5.0454D-01 1.0149D+00
 Trust test= 9.43D-01 RLast= 3.38D-01 DXMaxT set to 5.05D-01
 ITU=  1  0
 Use linear search instead of GDIIS.
     Eigenvalues ---    0.01774   0.02121   0.02249   0.02694   0.02767
     Eigenvalues ---    0.02888   0.14524   0.15957   0.15983   0.16070
     Eigenvalues ---    0.21542   0.22766   0.27762   0.34016   0.35409
     Eigenvalues ---    0.36442   0.40579   0.47779   0.51333   0.55660
     Eigenvalues ---    0.66202
 RFO step:  Lambda=-4.82690205D-03 EMin= 1.77353145D-02
 Quartic linear search produced a step of  0.15840.
 Iteration  1 RMS(Cart)=  0.02505630 RMS(Int)=  0.00151391
 Iteration  2 RMS(Cart)=  0.00101288 RMS(Int)=  0.00106604
 Iteration  3 RMS(Cart)=  0.00000208 RMS(Int)=  0.00106604
 Iteration  4 RMS(Cart)=  0.00000000 RMS(Int)=  0.00106604
 ITry= 1 IFail=0 DXMaxC= 6.34D-02 DCOld= 1.00D+10 DXMaxT= 5.05D-01 DXLimC= 3.00D+00 Rises=F
 Variable       Old X    -DE/DX   Delta X   Delta X   Delta X     New X
                                 (Linear)    (Quad)   (Total)
    R1        2.59536  -0.00282   0.01287  -0.00975   0.00343   2.59879
    R2        2.61808   0.01167   0.00861   0.02310   0.03185   2.64993
    R3        2.05091  -0.00290  -0.02888   0.00416  -0.02473   2.02619
    R4        2.63314  -0.01004   0.01150  -0.02769  -0.01612   2.61702
    R5        2.04784  -0.00397  -0.00324  -0.01148  -0.01471   2.03313
    R6        2.61352  -0.00568   0.00734  -0.01801  -0.01100   2.60253
    R7        2.64647  -0.02093  -0.01080  -0.05474  -0.06574   2.58072
    R8        2.03445   0.00215   0.00907   0.00151   0.01058   2.04503
    R9        2.03380   0.00122  -0.00005   0.00385   0.00380   2.03760
    A1        1.89952  -0.00876  -0.00792  -0.03059  -0.03852   1.86100
    A2        2.21593   0.00342   0.00417   0.00970   0.01314   2.22907
    A3        2.16596   0.00543   0.00438   0.02349   0.02713   2.19308
    A4        1.90591   0.00314   0.00364   0.01624   0.01946   1.92537
    A5        2.32760  -0.00578  -0.00880  -0.03133  -0.04108   2.28652
    A6        2.04860   0.00273   0.00520   0.01826   0.02243   2.07103
    A7        1.84960   0.00012  -0.00826  -0.00448  -0.01303   1.83657
    A8        1.91839   0.00366   0.00775   0.00837   0.01550   1.93389
    A9        2.05738   0.00207   0.00586   0.01684   0.02268   2.08006
   A10        2.30643  -0.00569  -0.01273  -0.02454  -0.03734   2.26908
   A11        1.85128   0.00185   0.00495   0.01122   0.01582   1.86710
   A12        2.29589  -0.01037  -0.01257  -0.06381  -0.07673   2.21916
   A13        2.13522   0.00856   0.00774   0.05435   0.06169   2.19691
    D1       -0.00021   0.00018  -0.00606   0.01897   0.01335   0.01313
    D2       -3.08896  -0.00214  -0.00708  -0.05938  -0.06536   3.12887
    D3        3.07906   0.00189   0.00192   0.06513   0.06751  -3.13662
    D4       -0.00969  -0.00044   0.00090  -0.01322  -0.01119  -0.02088
    D5       -0.00714   0.00039   0.00151   0.01734   0.01883   0.01169
    D6       -3.10544  -0.00118  -0.00174  -0.03233  -0.03150  -3.13694
    D7       -3.08860  -0.00119  -0.00620  -0.02668  -0.03336  -3.12196
    D8        0.09629  -0.00276  -0.00946  -0.07635  -0.08369   0.01259
    D9        0.00757  -0.00072   0.00821  -0.04782  -0.03981  -0.03224
   D10        3.10590   0.00088   0.00851   0.01461   0.02569   3.13159
   D11       -0.01215   0.00092  -0.00727   0.05906   0.05219   0.04004
   D12        3.08752   0.00155   0.00218   0.07265   0.07731  -3.11835
   D13        0.01207  -0.00082   0.00362  -0.04795  -0.04484  -0.03277
   D14        3.11531   0.00001   0.00561  -0.00746   0.00043   3.11574
   D15       -3.07954  -0.00189  -0.00965  -0.06572  -0.07568   3.12797
   D16        0.02371  -0.00106  -0.00766  -0.02522  -0.03041  -0.00670
         Item               Value     Threshold  Converged?
 Maximum Force            0.020933     0.000450     NO 
 RMS     Force            0.005567     0.000300     NO 
 Maximum Displacement     0.063400     0.001800     NO 
 RMS     Displacement     0.025432     0.001200     NO 
 Predicted change in Energy=-3.043953D-03
 Lowest energy point so far.  Saving SCF results.
 GradGradGradGradGradGradGradGradGradGradGradGradGradGradGradGradGradGrad

 Leave Link  103 at Mon Nov 23 13:23:23 2015, MaxMem=    33554432 cpu:         0.0
 (Enter /home/Applications/g09/g09/l202.exe)
                          Input orientation:                          
 ---------------------------------------------------------------------
 Center     Atomic      Atomic             Coordinates (Angstroms)
 Number     Number       Type             X           Y           Z
 ---------------------------------------------------------------------
      1          6           0        0.941946   -0.689418    0.007735
      2          6           0       -0.373627   -1.089767   -0.007134
      3          8           0       -1.211314    0.012526   -0.040078
      4          6           0       -0.373429    1.104858   -0.002242
      5          6           0        0.934750    0.712828    0.001012
      6          1           0        1.790815    1.368393    0.004821
      7          1           0       -0.801970    2.098556    0.003838
      8          1           0       -0.812559   -2.071981   -0.018413
      9          1           0        1.816178   -1.309834    0.028728
 ---------------------------------------------------------------------
                    Distance matrix (angstroms):
                    1          2          3          4          5
     1  C    0.000000
     2  C    1.375221   0.000000
     3  O    2.265290   1.384866   0.000000
     4  C    2.224800   2.194631   1.377197   0.000000
     5  C    1.402281   2.227390   2.257808   1.365660   0.000000
     6  H    2.226022   3.275287   3.294414   2.180241   1.078252
     7  H    3.288473   3.216986   2.126266   1.082183   2.221811
     8  H    2.233932   1.075886   2.122415   3.207086   3.287647
     9  H    1.072212   2.201128   3.304403   3.259766   2.206546
                    6          7          8          9
     6  H    0.000000
     7  H    2.693635   0.000000
     8  H    4.314425   4.170609   0.000000
     9  H    2.678454   4.297958   2.737399   0.000000
 Stoichiometry    C4H4O
 Framework group  C1[X(C4H4O)]
 Deg. of freedom    21
 Full point group                 C1      NOp   1
 RotChk:  IX=0 Diff= 2.49D-01
 Largest Abelian subgroup         C1      NOp   1
 Largest concise Abelian subgroup C1      NOp   1
                         Standard orientation:                         
 ---------------------------------------------------------------------
 Center     Atomic      Atomic             Coordinates (Angstroms)
 Number     Number       Type             X           Y           Z
 ---------------------------------------------------------------------
      1          6           0        0.665862    0.992138    0.000660
      2          6           0        1.113090   -0.308312    0.007706
      3          8           0        0.041545   -1.185385   -0.012043
      4          6           0       -1.080139   -0.386667    0.011363
      5          6           0       -0.735218    0.934594   -0.006730
      6          1           0       -1.421028    1.766567   -0.017401
      7          1           0       -2.057856   -0.850380    0.023950
      8          1           0        2.110407   -0.711895    0.004215
      9          1           0        1.254543    1.888266    0.007587
 ---------------------------------------------------------------------
 Rotational constants (GHZ):      9.5206604      9.0848380      4.6493405
 Leave Link  202 at Mon Nov 23 13:23:23 2015, MaxMem=    33554432 cpu:         0.0
 (Enter /home/Applications/g09/g09/l301.exe)

 Semi-emprical parameters in input format:
 Method=8 CoreType=1 PeptideFC=0.0166290000 RIJScale=0.6119410000
 ****
 H       
 PQN=1 NValence=1 F0ss=0.4150770000 ZetaOverlap=1.0810580000 U=-0.4286880000
 Beta=-0.2869890000 CoreKO=1.2114800000 KON=0,0,0,1.1025190000 KON=1,0,1,1.1074920000
 KON=0,1,1,1.0916540000 KON=2,1,1,1.0589200000 EISol=-0.4188110042 EHeat=0.0830298228
 Alpha=1.5030030000
 GCore=0.0071120000,1.1207970000,2.7005670000
 GCore=0.0003230000,1.4222460000,3.4015070000
 GCore=-0.0013380000,0.4405990000,4.4481290000
 ****
 C       
 PQN=2,2 NValence=4 F0ss=0.4202500000 F0sp=0.4263690000 F0pp=0.3424460000 F2pp=0.1977130000
 G1sp=0.2746580000
 ZetaOverlap=1.7498310000,1.3881390000
 U=-1.7944250000,-1.4545000000
 Beta=-0.5214990000,-0.3746580000 DDN=0,1,0.8234340000 DDN=1,1,0.7559950000
 CoreKO=1.2002200000 KON=0,0,0,1.1694410000 KON=1,0,1,0.9096420000 KON=0,1,1,0.9370920000
 KON=2,1,1,0.5201690000 EISol=-4.4398989268 EHeat=0.2723305520 Alpha=1.3947510000
 DipHyp=1.6467732542
 GCore=0.0008780000,1.2683970000,2.4090670000
 GCore=0.0034720000,1.4096270000,3.6574610000
 GCore=-0.0014060000,1.4542400000,3.3154880000
 GCore=-0.0001000000,1.4766960000,5.0661660000
 ****
 O       
 PQN=2,2 NValence=6 F0ss=0.5672460000 F0sp=0.5681160000 F0pp=0.4898210000 F2pp=0.2703590000
 G1sp=0.4169050000
 ZetaOverlap=2.7263600000,1.8505270000
 U=-3.5241930000,-3.0238760000
 Beta=-0.9772650000,-1.1886600000 DDN=0,1,0.5807610000 DDN=1,1,0.4521100000
 CoreKO=0.9925760000 KON=0,0,0,0.8355350000 KON=1,0,1,0.5454830000 KON=0,1,1,0.8378550000
 KON=2,1,1,0.5017630000 EISol=-11.6164441184 EHeat=0.0949133088 Alpha=2.2627970000
 DipHyp=1.1614551766
 GCore=0.0225710000,1.2849200000,1.7519400000
 GCore=0.0054870000,1.7991710000,2.8334770000
 ****
 
 Standard basis: VSTO-6G (5D, 7F)
 Ernie: Thresh=  0.10000D-02 Tol=  0.10000D-05 Strict=F.
  NNHCO=     0 NNPyr=     0 NCTC=     0               EPep=         0.000000000
    EC=        66.555755641  ECS=         1.770998915   EG=         0.409646381
   EHC=         0.000000000  EAt=       -31.051283842  AtH=         1.516354808
 EPDDG=         0.000000000  ECC=        68.736400937 EAtT=        32.567638650
 There are    24 symmetry adapted cartesian basis functions of A   symmetry.
 There are    24 symmetry adapted basis functions of A   symmetry.
    24 basis functions,   144 primitive gaussians,    24 cartesian basis functions
    13 alpha electrons       13 beta electrons
       nuclear repulsion energy       101.3040395876 Hartrees.
 IExCor=    0 DFT=F Ex=HF Corr=None ExCW=0 ScaHFX=  1.000000
 ScaDFX=  1.000000  1.000000  1.000000  1.000000 ScalE2=  1.000000  1.000000
 IRadAn=      0 IRanWt=     -1 IRanGd=            0 ICorTp=0 IEmpDi=  4
 Integral buffers will be    131072 words long.
 Regular integral format.
 Two-electron integral symmetry is turned off.
 Leave Link  301 at Mon Nov 23 13:23:23 2015, MaxMem=    33554432 cpu:         0.0
 (Enter /home/Applications/g09/g09/l302.exe)
 Do NDO integrals.
 NPDir=0 NMtPBC=     1 NCelOv=     1 NCel=       1 NClECP=     1 NCelD=      1
         NCelK=      1 NCelE2=     1 NClLst=     1 CellRange=     0.0.
 One-electron integrals computed using PRISM.
 NBasis=    24 RedAO= F EigKep=  0.00D+00  NBF=    24
 NBsUse=    24 1.00D-04 EigRej=  0.00D+00 NBFU=    24
 Leave Link  302 at Mon Nov 23 13:23:23 2015, MaxMem=    33554432 cpu:         0.0
 (Enter /home/Applications/g09/g09/l303.exe)
 DipDrv:  MaxL=1.
 Leave Link  303 at Mon Nov 23 13:23:23 2015, MaxMem=    33554432 cpu:         0.0
 (Enter /home/Applications/g09/g09/l401.exe)
 Initial guess from the checkpoint file:  "/home/Applications/g09/scratch/Gau-4858.chk"
 B after Tr=     0.000000    0.000000    0.000000
         Rot=    0.996275   -0.000002    0.000001    0.086228 Ang=  -9.89 deg.
 Guess basis will be translated and rotated to current coordinates.
 JPrj=0 DoOrth=T DoCkMO=T.
 Leave Link  401 at Mon Nov 23 13:23:24 2015, MaxMem=    33554432 cpu:         0.0
 (Enter /home/Applications/g09/g09/l502.exe)
 Closed shell SCF:
 Using DIIS extrapolation, IDIIS=  1040.
 Overlap will be assumed to be unity.
 Two-electron integral symmetry not used.
 Keep J ints in memory in canonical form, NReq=888082.
 IVT=       79475 IEndB=       79475 NGot=    33554432 MDV=    33473473
 LenX=    33473473 LenY=    33472456
 Requested convergence on RMS density matrix=1.00D-08 within 128 cycles.
 Requested convergence on MAX density matrix=1.00D-06.
 Requested convergence on             energy=1.00D-06.
 No special actions if energy rises.
 FoFCou: FMM=F IPFlag=           0 FMFlag=           0 FMFlg1=           0
         NFxFlg=           0 DoJE=F BraDBF=F KetDBF=F FulRan=T
         wScrn=  0.000000 ICntrl=     600 IOpCl=  2 I1Cent=           0 NGrid=           0
         NMat0=    1 NMatS0=     54 NMatT0=    0 NMatD0=    1 NMtDS0=    0 NMtDT0=    0
 Symmetry not used in FoFCou.

 Cycle   1  Pass 1  IDiag  1:
 E= -2.21853319416339    
 DIIS: error= 4.95D-03 at cycle   1 NSaved=   1.
 NSaved= 1 IEnMin= 1 EnMin= -2.21853319416339     IErMin= 1 ErrMin= 4.95D-03
 ErrMax= 4.95D-03  0.00D+00 EMaxC= 1.00D-01 BMatC= 1.38D-03 BMatP= 1.38D-03
 IDIUse=3 WtCom= 9.51D-01 WtEn= 4.95D-02
 Coeff-Com:  0.100D+01
 Coeff-En:   0.100D+01
 Coeff:      0.100D+01
 GapD=    2.000 DampG=2.000 DampE=1.000 DampFc=2.0000 IDamp=-1.
 RMSDP=2.11D-03 MaxDP=7.48D-03              OVMax= 0.00D+00

 Cycle   2  Pass 1  IDiag  3:
 E= -2.22178015532073     Delta-E=       -0.003246961157 Rises=F Damp=F
 DIIS: error= 1.47D-03 at cycle   2 NSaved=   2.
 NSaved= 2 IEnMin= 2 EnMin= -2.22178015532073     IErMin= 2 ErrMin= 1.47D-03
 ErrMax= 1.47D-03  0.00D+00 EMaxC= 1.00D-01 BMatC= 1.13D-04 BMatP= 1.38D-03
 IDIUse=3 WtCom= 9.85D-01 WtEn= 1.47D-02
 Coeff-Com: -0.360D+00 0.136D+01
 Coeff-En:   0.000D+00 0.100D+01
 Coeff:     -0.355D+00 0.135D+01
 Gap=     0.502 Goal=   None    Shift=    0.000
 RMSDP=9.79D-04 MaxDP=3.71D-03 DE=-3.25D-03 OVMax= 5.47D-03

 Cycle   3  Pass 1  IDiag  3:
 E= -2.22215764144839     Delta-E=       -0.000377486128 Rises=F Damp=F
 DIIS: error= 2.24D-04 at cycle   3 NSaved=   3.
 NSaved= 3 IEnMin= 3 EnMin= -2.22215764144839     IErMin= 3 ErrMin= 2.24D-04
 ErrMax= 2.24D-04  0.00D+00 EMaxC= 1.00D-01 BMatC= 2.80D-06 BMatP= 1.13D-04
 IDIUse=3 WtCom= 9.98D-01 WtEn= 2.24D-03
 Coeff-Com:  0.153D+00-0.638D+00 0.148D+01
 Coeff-En:   0.000D+00 0.000D+00 0.100D+01
 Coeff:      0.153D+00-0.636D+00 0.148D+01
 Gap=     0.502 Goal=   None    Shift=    0.000
 RMSDP=2.28D-04 MaxDP=1.34D-03 DE=-3.77D-04 OVMax= 1.65D-03

 Cycle   4  Pass 1  IDiag  3:
 E= -2.22217255232596     Delta-E=       -0.000014910878 Rises=F Damp=F
 DIIS: error= 7.60D-05 at cycle   4 NSaved=   4.
 NSaved= 4 IEnMin= 4 EnMin= -2.22217255232596     IErMin= 4 ErrMin= 7.60D-05
 ErrMax= 7.60D-05  0.00D+00 EMaxC= 1.00D-01 BMatC= 2.18D-07 BMatP= 2.80D-06
 IDIUse=1 WtCom= 1.00D+00 WtEn= 0.00D+00
 Coeff-Com: -0.681D-01 0.290D+00-0.803D+00 0.158D+01
 Coeff:     -0.681D-01 0.290D+00-0.803D+00 0.158D+01
 Gap=     0.502 Goal=   None    Shift=    0.000
 RMSDP=6.90D-05 MaxDP=5.79D-04 DE=-1.49D-05 OVMax= 5.76D-04

 Cycle   5  Pass 1  IDiag  3:
 E= -2.22217394630037     Delta-E=       -0.000001393974 Rises=F Damp=F
 DIIS: error= 3.60D-05 at cycle   5 NSaved=   5.
 NSaved= 5 IEnMin= 5 EnMin= -2.22217394630037     IErMin= 5 ErrMin= 3.60D-05
 ErrMax= 3.60D-05  0.00D+00 EMaxC= 1.00D-01 BMatC= 3.68D-08 BMatP= 2.18D-07
 IDIUse=1 WtCom= 1.00D+00 WtEn= 0.00D+00
 Coeff-Com:  0.213D-01-0.913D-01 0.284D+00-0.955D+00 0.174D+01
 Coeff:      0.213D-01-0.913D-01 0.284D+00-0.955D+00 0.174D+01
 Gap=     0.502 Goal=   None    Shift=    0.000
 RMSDP=3.50D-05 MaxDP=2.94D-04 DE=-1.39D-06 OVMax= 2.35D-04

 Cycle   6  Pass 1  IDiag  3:
 E= -2.22217421440857     Delta-E=       -0.000000268108 Rises=F Damp=F
 DIIS: error= 1.04D-05 at cycle   6 NSaved=   6.
 NSaved= 6 IEnMin= 6 EnMin= -2.22217421440857     IErMin= 6 ErrMin= 1.04D-05
 ErrMax= 1.04D-05  0.00D+00 EMaxC= 1.00D-01 BMatC= 4.14D-09 BMatP= 3.68D-08
 IDIUse=1 WtCom= 1.00D+00 WtEn= 0.00D+00
 Coeff-Com: -0.297D-02 0.130D-01-0.542D-01 0.337D+00-0.988D+00 0.170D+01
 Coeff:     -0.297D-02 0.130D-01-0.542D-01 0.337D+00-0.988D+00 0.170D+01
 Gap=     0.502 Goal=   None    Shift=    0.000
 RMSDP=1.21D-05 MaxDP=9.36D-05 DE=-2.68D-07 OVMax= 9.14D-05

 Cycle   7  Pass 1  IDiag  3:
 E= -2.22217424484401     Delta-E=       -0.000000030435 Rises=F Damp=F
 DIIS: error= 4.03D-06 at cycle   7 NSaved=   7.
 NSaved= 7 IEnMin= 7 EnMin= -2.22217424484401     IErMin= 7 ErrMin= 4.03D-06
 ErrMax= 4.03D-06  0.00D+00 EMaxC= 1.00D-01 BMatC= 4.94D-10 BMatP= 4.14D-09
 IDIUse=1 WtCom= 1.00D+00 WtEn= 0.00D+00
 Coeff-Com: -0.740D-03 0.284D-02 0.365D-02-0.148D+00 0.588D+00-0.134D+01
 Coeff-Com:  0.190D+01
 Coeff:     -0.740D-03 0.284D-02 0.365D-02-0.148D+00 0.588D+00-0.134D+01
 Coeff:      0.190D+01
 Gap=     0.502 Goal=   None    Shift=    0.000
 RMSDP=4.30D-06 MaxDP=3.57D-05 DE=-3.04D-08 OVMax= 3.05D-05

 Cycle   8  Pass 1  IDiag  3:
 E= -2.22217424863545     Delta-E=       -0.000000003791 Rises=F Damp=F
 DIIS: error= 1.15D-06 at cycle   8 NSaved=   8.
 NSaved= 8 IEnMin= 8 EnMin= -2.22217424863545     IErMin= 8 ErrMin= 1.15D-06
 ErrMax= 1.15D-06  0.00D+00 EMaxC= 1.00D-01 BMatC= 4.89D-11 BMatP= 4.94D-10
 IDIUse=1 WtCom= 1.00D+00 WtEn= 0.00D+00
 Coeff-Com:  0.537D-03-0.212D-02-0.537D-03 0.796D-01-0.335D+00 0.804D+00
 Coeff-Com: -0.141D+01 0.187D+01
 Coeff:      0.537D-03-0.212D-02-0.537D-03 0.796D-01-0.335D+00 0.804D+00
 Coeff:     -0.141D+01 0.187D+01
 Gap=     0.502 Goal=   None    Shift=    0.000
 RMSDP=1.50D-06 MaxDP=1.27D-05 DE=-3.79D-09 OVMax= 1.04D-05

 Cycle   9  Pass 1  IDiag  3:
 E= -2.22217424898994     Delta-E=       -0.000000000354 Rises=F Damp=F
 DIIS: error= 1.30D-07 at cycle   9 NSaved=   9.
 NSaved= 9 IEnMin= 9 EnMin= -2.22217424898994     IErMin= 9 ErrMin= 1.30D-07
 ErrMax= 1.30D-07  0.00D+00 EMaxC= 1.00D-01 BMatC= 1.18D-12 BMatP= 4.89D-11
 IDIUse=1 WtCom= 1.00D+00 WtEn= 0.00D+00
 Coeff-Com: -0.239D-03 0.960D-03-0.701D-03-0.222D-01 0.995D-01-0.244D+00
 Coeff-Com:  0.454D+00-0.719D+00 0.143D+01
 Coeff:     -0.239D-03 0.960D-03-0.701D-03-0.222D-01 0.995D-01-0.244D+00
 Coeff:      0.454D+00-0.719D+00 0.143D+01
 Gap=     0.502 Goal=   None    Shift=    0.000
 RMSDP=1.64D-07 MaxDP=1.04D-06 DE=-3.54D-10 OVMax= 9.27D-07

 Cycle  10  Pass 1  IDiag  3:
 E= -2.22217424899601     Delta-E=       -0.000000000006 Rises=F Damp=F
 DIIS: error= 2.35D-08 at cycle  10 NSaved=  10.
 NSaved=10 IEnMin=10 EnMin= -2.22217424899601     IErMin=10 ErrMin= 2.35D-08
 ErrMax= 2.35D-08  0.00D+00 EMaxC= 1.00D-01 BMatC= 3.49D-14 BMatP= 1.18D-12
 IDIUse=1 WtCom= 1.00D+00 WtEn= 0.00D+00
 Coeff-Com:  0.571D-04-0.231D-03 0.248D-03 0.413D-02-0.195D-01 0.486D-01
 Coeff-Com: -0.936D-01 0.162D+00-0.457D+00 0.136D+01
 Coeff:      0.571D-04-0.231D-03 0.248D-03 0.413D-02-0.195D-01 0.486D-01
 Coeff:     -0.936D-01 0.162D+00-0.457D+00 0.136D+01
 Gap=     0.502 Goal=   None    Shift=    0.000
 RMSDP=2.57D-08 MaxDP=1.38D-07 DE=-6.07D-12 OVMax= 1.99D-07

 Cycle  11  Pass 1  IDiag  3:
 E= -2.22217424899660     Delta-E=       -0.000000000001 Rises=F Damp=F
 DIIS: error= 3.91D-09 at cycle  11 NSaved=  11.
 NSaved=11 IEnMin=11 EnMin= -2.22217424899660     IErMin=11 ErrMin= 3.91D-09
 ErrMax= 3.91D-09  0.00D+00 EMaxC= 1.00D-01 BMatC= 9.34D-16 BMatP= 3.49D-14
 IDIUse=1 WtCom= 1.00D+00 WtEn= 0.00D+00
 Coeff-Com: -0.102D-04 0.420D-04-0.723D-04-0.338D-03 0.198D-02-0.526D-02
 Coeff-Com:  0.110D-01-0.214D-01 0.828D-01-0.385D+00 0.132D+01
 Coeff:     -0.102D-04 0.420D-04-0.723D-04-0.338D-03 0.198D-02-0.526D-02
 Coeff:      0.110D-01-0.214D-01 0.828D-01-0.385D+00 0.132D+01
 Gap=     0.502 Goal=   None    Shift=    0.000
 RMSDP=3.89D-09 MaxDP=1.99D-08 DE=-5.83D-13 OVMax= 2.41D-08

 Cycle  12  Pass 2  IDiag  1:
 SCF Done:  E(RAM1) =  -2.22217424900     A.U. after   12 cycles
            NFock= 11  Conv=0.39D-08     -V/T= 0.8778
 KE=-1.818946889971D+01 PE=-1.698545127017D+02 EE= 8.451776776483D+01
 Leave Link  502 at Mon Nov 23 13:23:24 2015, MaxMem=    33554432 cpu:         0.0
 (Enter /home/Applications/g09/g09/l701.exe)
 Compute integral first derivatives.
 ... and contract with generalized density number  0.
 Leave Link  701 at Mon Nov 23 13:23:24 2015, MaxMem=    33554432 cpu:         0.0
 (Enter /home/Applications/g09/g09/l702.exe)
 L702 exits ... SP integral derivatives will be done elsewhere.
 Leave Link  702 at Mon Nov 23 13:23:24 2015, MaxMem=    33554432 cpu:         0.0
 (Enter /home/Applications/g09/g09/l703.exe)
 Compute integral first derivatives, UseDBF=F ICtDFT=           0.
 Integral derivatives from FoFJK, PRISM(SPDF).
 Calling FoFJK, ICntrl=      2127 FMM=F ISym2X=0 I1Cent= 0 IOpClX= 0 NMat=1 NMatS=1 NMatT=0.
 FoFJK:  IHMeth= 8 ICntrl=    2127 DoSepK=F KAlg= 0 I1Cent=   0 FoldK=F
 IRaf=         0 NMat=   1 IRICut=       1 DoRegI=T DoRafI=F ISym2E= 0.
 FoFCou: FMM=F IPFlag=           0 FMFlag=      100000 FMFlg1=         800
         NFxFlg=           0 DoJE=F BraDBF=F KetDBF=F FulRan=T
         wScrn=  0.000000 ICntrl=    2127 IOpCl=  0 I1Cent=           0 NGrid=           0
         NMat0=    1 NMatS0=      1 NMatT0=    0 NMatD0=    1 NMtDS0=    0 NMtDT0=    0
 Symmetry not used in FoFCou.
 Leave Link  703 at Mon Nov 23 13:23:24 2015, MaxMem=    33554432 cpu:         0.0
 (Enter /home/Applications/g09/g09/l716.exe)
 Dipole        =-7.54613942D-03-3.78812470D-01 1.04622859D-03
 ***** Axes restored to original set *****
 -------------------------------------------------------------------
 Center     Atomic                   Forces (Hartrees/Bohr)
 Number     Number              X              Y              Z
 -------------------------------------------------------------------
      1        6          -0.006408704   -0.004366845    0.000748814
      2        6           0.001780959    0.005155390   -0.005344274
      3        8          -0.002991892   -0.006077899    0.007420835
      4        6          -0.005766755    0.007775028   -0.006685335
      5        6           0.006062063    0.007150148    0.003723864
      6        1           0.003068730   -0.002417414    0.000532467
      7        1          -0.000042705   -0.000569204   -0.000448404
      8        1          -0.000286058   -0.003778694    0.000330918
      9        1           0.004584361   -0.002870510   -0.000278886
 -------------------------------------------------------------------
 Cartesian Forces:  Max     0.007775028 RMS     0.004388493
 Leave Link  716 at Mon Nov 23 13:23:24 2015, MaxMem=    33554432 cpu:         0.0
 (Enter /home/Applications/g09/g09/l103.exe)

 GradGradGradGradGradGradGradGradGradGradGradGradGradGradGradGradGradGrad
 Berny optimization.
 Using GEDIIS/GDIIS optimizer.
 FormGI is forming the generalized inverse of G from B-inverse, IUseBI=4.
 Internal  Forces:  Max     0.008496186 RMS     0.002759783
 Search for a local minimum.
 Step number   3 out of a maximum of   48
 All quantities printed in internal units (Hartrees-Bohrs-Radians)
 RMS Force = .27598D-02 SwitMx=.10000D-02 MixMth= 1
 Mixed Optimization -- RFO/linear search
 Update second derivatives using D2CorX and points    1    2    3
 DE= -2.49D-03 DEPred=-3.04D-03 R= 8.19D-01
 TightC=F SS=  1.41D+00  RLast= 2.49D-01 DXNew= 8.4853D-01 7.4766D-01
 Trust test= 8.19D-01 RLast= 2.49D-01 DXMaxT set to 7.48D-01
 ITU=  1  1  0
 Use linear search instead of GDIIS.
     Eigenvalues ---    0.01750   0.02080   0.02332   0.02646   0.02866
     Eigenvalues ---    0.03201   0.11445   0.15996   0.16018   0.16173
     Eigenvalues ---    0.21835   0.22775   0.29409   0.34495   0.36361
     Eigenvalues ---    0.40376   0.41342   0.47157   0.52137   0.56049
     Eigenvalues ---    0.65725
 RFO step:  Lambda=-1.87961303D-03 EMin= 1.74995687D-02
 Quartic linear search produced a step of -0.11957.
 Iteration  1 RMS(Cart)=  0.02660442 RMS(Int)=  0.00133621
 Iteration  2 RMS(Cart)=  0.00107517 RMS(Int)=  0.00076608
 Iteration  3 RMS(Cart)=  0.00000075 RMS(Int)=  0.00076608
 ITry= 1 IFail=0 DXMaxC= 1.01D-01 DCOld= 1.00D+10 DXMaxT= 7.48D-01 DXLimC= 3.00D+00 Rises=F
 Variable       Old X    -DE/DX   Delta X   Delta X   Delta X     New X
                                 (Linear)    (Quad)   (Total)
    R1        2.59879  -0.00148  -0.00041  -0.00148  -0.00187   2.59692
    R2        2.64993   0.00597  -0.00381   0.02308   0.01939   2.66932
    R3        2.02619   0.00539   0.00296   0.00705   0.01000   2.03619
    R4        2.61702   0.00001   0.00193  -0.00702  -0.00518   2.61183
    R5        2.03313   0.00356   0.00176   0.00307   0.00482   2.03796
    R6        2.60253   0.00624   0.00131   0.00677   0.00797   2.61049
    R7        2.58072   0.00850   0.00786  -0.00665   0.00128   2.58200
    R8        2.04503  -0.00051  -0.00127   0.00347   0.00220   2.04723
    R9        2.03760   0.00097  -0.00045   0.00387   0.00342   2.04102
    A1        1.86100   0.00148   0.00461  -0.01146  -0.00766   1.85334
    A2        2.22907  -0.00043  -0.00157   0.00465   0.00352   2.23259
    A3        2.19308  -0.00105  -0.00324   0.00697   0.00416   2.19724
    A4        1.92537   0.00196  -0.00233   0.01247   0.00900   1.93437
[...]
 Coeff-Com: -0.155D+01 0.184D+01
 Coeff:      0.850D-03-0.331D-02 0.572D-02 0.659D-01-0.434D+00 0.107D+01
 Coeff:     -0.155D+01 0.184D+01
 Gap=     0.503 Goal=   None    Shift=    0.000
 RMSDP=1.69D-08 MaxDP=1.25D-07 DE=-4.69D-13 OVMax= 1.37D-07

 Cycle   9  Pass 1  IDiag  3:
 E= -2.22276988108872     Delta-E=        0.000000000000 Rises=F Damp=F
 DIIS: error= 5.79D-09 at cycle   9 NSaved=   9.
 NSaved= 9 IEnMin= 9 EnMin= -2.22276988108872     IErMin= 9 ErrMin= 5.79D-09
 ErrMax= 5.79D-09  0.00D+00 EMaxC= 1.00D-01 BMatC= 9.21D-16 BMatP= 7.79D-15
 IDIUse=1 WtCom= 1.00D+00 WtEn= 0.00D+00
 Coeff-Com: -0.561D-03 0.219D-02-0.393D-02-0.399D-01 0.269D+00-0.673D+00
 Coeff-Com:  0.101D+01-0.150D+01 0.194D+01
 Coeff:     -0.561D-03 0.219D-02-0.393D-02-0.399D-01 0.269D+00-0.673D+00
 Coeff:      0.101D+01-0.150D+01 0.194D+01
 Gap=     0.503 Goal=   None    Shift=    0.000
 RMSDP=6.24D-09 MaxDP=5.25D-08 DE=-1.85D-13 OVMax= 4.69D-08

 Cycle  10  Pass 2  IDiag  1:
 SCF Done:  E(RAM1) =  -2.22276988109     A.U. after   10 cycles
            NFock=  9  Conv=0.62D-08     -V/T= 0.8777
 KE=-1.817594392229D+01 PE=-1.696900233642D+02 EE= 8.443747180491D+01
 Leave Link  502 at Mon Nov 23 13:23:24 2015, MaxMem=    33554432 cpu:         0.0
 (Enter /home/Applications/g09/g09/l701.exe)
 Compute integral first derivatives.
 ... and contract with generalized density number  0.
 Leave Link  701 at Mon Nov 23 13:23:25 2015, MaxMem=    33554432 cpu:         0.0
 (Enter /home/Applications/g09/g09/l702.exe)
 L702 exits ... SP integral derivatives will be done elsewhere.
 Leave Link  702 at Mon Nov 23 13:23:25 2015, MaxMem=    33554432 cpu:         0.0
 (Enter /home/Applications/g09/g09/l703.exe)
 Compute integral first derivatives, UseDBF=F ICtDFT=           0.
 Integral derivatives from FoFJK, PRISM(SPDF).
 Calling FoFJK, ICntrl=      2127 FMM=F ISym2X=0 I1Cent= 0 IOpClX= 0 NMat=1 NMatS=1 NMatT=0.
 FoFJK:  IHMeth= 8 ICntrl=    2127 DoSepK=F KAlg= 0 I1Cent=   0 FoldK=F
 IRaf=         0 NMat=   1 IRICut=       1 DoRegI=T DoRafI=F ISym2E= 0.
 FoFCou: FMM=F IPFlag=           0 FMFlag=      100000 FMFlg1=         800
         NFxFlg=           0 DoJE=F BraDBF=F KetDBF=F FulRan=T
         wScrn=  0.000000 ICntrl=    2127 IOpCl=  0 I1Cent=           0 NGrid=           0
         NMat0=    1 NMatS0=      1 NMatT0=    0 NMatD0=    1 NMtDS0=    0 NMtDT0=    0
 Symmetry not used in FoFCou.
 Leave Link  703 at Mon Nov 23 13:23:25 2015, MaxMem=    33554432 cpu:         0.0
 (Enter /home/Applications/g09/g09/l716.exe)
 Dipole        =-1.83729708D-04-3.71670583D-01-7.37739879D-05
 ***** Axes restored to original set *****
 -------------------------------------------------------------------
 Center     Atomic                   Forces (Hartrees/Bohr)
 Number     Number              X              Y              Z
 -------------------------------------------------------------------
      1        6           0.000002744   -0.000263914    0.000005458
      2        6           0.000171266   -0.000061004    0.000016419
      3        8          -0.000136684   -0.000016172   -0.000020386
      4        6           0.000110696    0.000036895    0.000029507
      5        6          -0.000007225    0.000098490   -0.000040001
      6        1           0.000034252    0.000037016    0.000008982
      7        1          -0.000047216    0.000093049    0.000001100
      8        1          -0.000045882   -0.000028944   -0.000004585
      9        1          -0.000081950    0.000104584    0.000003505
 -------------------------------------------------------------------
 Cartesian Forces:  Max     0.000263914 RMS     0.000082181
 Leave Link  716 at Mon Nov 23 13:23:25 2015, MaxMem=    33554432 cpu:         0.0
 (Enter /home/Applications/g09/g09/l103.exe)

 GradGradGradGradGradGradGradGradGradGradGradGradGradGradGradGradGradGrad
 Berny optimization.
 Using GEDIIS/GDIIS optimizer.
 FormGI is forming the generalized inverse of G from B-inverse, IUseBI=4.
 Internal  Forces:  Max     0.000158170 RMS     0.000050166
 Search for a local minimum.
 Step number   9 out of a maximum of   48
 All quantities printed in internal units (Hartrees-Bohrs-Radians)
 RMS Force = .50166D-04 SwitMx=.10000D-02 MixMth= 2
 Mixed Optimization -- En-DIIS/RFO-DIIS
 Swapping is turned off.
 Update second derivatives using D2CorX and points    1    2    4    3    5
                                                      6    7    8    9
 DE= -6.32D-06 DEPred=-6.24D-06 R= 1.01D+00
 TightC=F SS=  1.41D+00  RLast= 1.08D-02 DXNew= 6.2871D-01 3.2457D-02
 Trust test= 1.01D+00 RLast= 1.08D-02 DXMaxT set to 3.74D-01
 ITU=  1  0  1  1  0 -1  1  1  0
     Eigenvalues ---    0.01854   0.02248   0.02800   0.03025   0.08548
     Eigenvalues ---    0.08678   0.10370   0.12365   0.15989   0.16042
     Eigenvalues ---    0.22111   0.23236   0.32079   0.35020   0.36808
     Eigenvalues ---    0.39968   0.42966   0.48165   0.50229   0.54246
     Eigenvalues ---    0.77370
 En-DIIS/RFO-DIIS IScMMF=        0 using points:     9    8    7
 RFO step:  Lambda=-1.49149998D-07.
 NNeg= 0 NP= 3 Switch=  2.50D-03 Rises=F DC=  7.63D-06 SmlDif=  1.00D-05
 RMS Error=  0.8150934866D-04 NUsed= 3 EDIIS=F
 DidBck=F Rises=F RFO-DIIS coefs:    1.01717   -0.01517   -0.00200
 Iteration  1 RMS(Cart)=  0.00015590 RMS(Int)=  0.00000005
 Iteration  2 RMS(Cart)=  0.00000003 RMS(Int)=  0.00000004
 ITry= 1 IFail=0 DXMaxC= 4.39D-04 DCOld= 1.00D+10 DXMaxT= 3.74D-01 DXLimC= 3.00D+00 Rises=F
 Variable       Old X    -DE/DX   Delta X   Delta X   Delta X     New X
                                 (Linear)    (Quad)   (Total)
    R1        2.59139  -0.00005   0.00001  -0.00017  -0.00016   2.59123
    R2        2.66400   0.00016   0.00001   0.00032   0.00033   2.66433
    R3        2.03860  -0.00013   0.00002  -0.00040  -0.00038   2.03822
    R4        2.61294   0.00012   0.00002   0.00017   0.00018   2.61312
    R5        2.04185   0.00004  -0.00001   0.00012   0.00011   2.04196
    R6        2.61297   0.00012   0.00001   0.00021   0.00022   2.61318
    R7        2.59126   0.00001   0.00001  -0.00006  -0.00004   2.59121
    R8        2.04173   0.00010   0.00001   0.00022   0.00024   2.04196
    R9        2.03819   0.00005   0.00001   0.00013   0.00014   2.03834
    A1        1.86295   0.00002  -0.00001   0.00005   0.00004   1.86299
    A2        2.23487   0.00003   0.00000   0.00029   0.00030   2.23517
    A3        2.18537  -0.00005   0.00000  -0.00035  -0.00034   2.18502
    A4        1.92974  -0.00001   0.00001  -0.00006  -0.00005   1.92969
    A5        2.27476   0.00004   0.00001   0.00026   0.00027   2.27503
    A6        2.07869  -0.00003  -0.00001  -0.00020  -0.00022   2.07847
    A7        1.83935   0.00001  -0.00001   0.00008   0.00008   1.83943
    A8        1.92978  -0.00002   0.00000  -0.00010  -0.00010   1.92968
    A9        2.07844   0.00001   0.00000  -0.00006  -0.00006   2.07838
   A10        2.27496   0.00002   0.00000   0.00016   0.00016   2.27512
   A11        1.86296   0.00000   0.00000   0.00002   0.00002   1.86299
   A12        2.18487   0.00001   0.00002  -0.00003  -0.00001   2.18486
   A13        2.23535  -0.00001  -0.00002   0.00001  -0.00001   2.23534
    D1        0.00002   0.00000   0.00005  -0.00004   0.00001   0.00003
    D2       -3.14147  -0.00001  -0.00004  -0.00005  -0.00009  -3.14156
    D3       -3.14153   0.00000   0.00005  -0.00007  -0.00002  -3.14155
    D4        0.00017   0.00000  -0.00004  -0.00009  -0.00013   0.00005
    D5       -0.00010   0.00001  -0.00003   0.00013   0.00009  -0.00001
    D6       -3.14145   0.00000   0.00001  -0.00023  -0.00022   3.14151
    D7        3.14144   0.00001  -0.00004   0.00016   0.00012   3.14156
    D8        0.00009   0.00000   0.00001  -0.00019  -0.00019  -0.00009
    D9        0.00007  -0.00001  -0.00005  -0.00006  -0.00011  -0.00004
   D10        3.14157   0.00000   0.00004  -0.00005  -0.00002   3.14156
   D11       -0.00014   0.00001   0.00002   0.00015   0.00017   0.00003
   D12        3.14152   0.00001   0.00002   0.00020   0.00021  -3.14146
   D13        0.00015  -0.00001   0.00001  -0.00017  -0.00016  -0.00001
   D14        3.14149   0.00000  -0.00004   0.00020   0.00016  -3.14153
   D15       -3.14151  -0.00001   0.00001  -0.00023  -0.00021   3.14146
   D16       -0.00017   0.00001  -0.00003   0.00014   0.00011  -0.00006
         Item               Value     Threshold  Converged?
 Maximum Force            0.000158     0.000450     YES
 RMS     Force            0.000050     0.000300     YES
 Maximum Displacement     0.000439     0.001800     YES
 RMS     Displacement     0.000156     0.001200     YES
 Predicted change in Energy=-1.262308D-07
 Optimization completed.
    -- Stationary point found.
                           ----------------------------
                           !   Optimized Parameters   !
                           ! (Angstroms and Degrees)  !
 --------------------------                            --------------------------
 ! Name  Definition              Value          Derivative Info.                !
 --------------------------------------------------------------------------------
 ! R1    R(1,2)                  1.3713         -DE/DX =    0.0                 !
 ! R2    R(1,5)                  1.4097         -DE/DX =    0.0002              !
 ! R3    R(1,9)                  1.0788         -DE/DX =   -0.0001              !
 ! R4    R(2,3)                  1.3827         -DE/DX =    0.0001              !
 ! R5    R(2,8)                  1.0805         -DE/DX =    0.0                 !
 ! R6    R(3,4)                  1.3827         -DE/DX =    0.0001              !
 ! R7    R(4,5)                  1.3712         -DE/DX =    0.0                 !
 ! R8    R(4,7)                  1.0804         -DE/DX =    0.0001              !
 ! R9    R(5,6)                  1.0786         -DE/DX =    0.0                 !
 ! A1    A(2,1,5)              106.739          -DE/DX =    0.0                 !
 ! A2    A(2,1,9)              128.0487         -DE/DX =    0.0                 !
 ! A3    A(5,1,9)              125.2123         -DE/DX =    0.0                 !
 ! A4    A(1,2,3)              110.5658         -DE/DX =    0.0                 !
 ! A5    A(1,2,8)              130.3342         -DE/DX =    0.0                 !
 ! A6    A(3,2,8)              119.1            -DE/DX =    0.0                 !
 ! A7    A(2,3,4)              105.3871         -DE/DX =    0.0                 !
 ! A8    A(3,4,5)              110.5682         -DE/DX =    0.0                 !
 ! A9    A(3,4,7)              119.0861         -DE/DX =    0.0                 !
 ! A10   A(5,4,7)              130.3457         -DE/DX =    0.0                 !
 ! A11   A(1,5,4)              106.74           -DE/DX =    0.0                 !
 ! A12   A(1,5,6)              125.1838         -DE/DX =    0.0                 !
 ! A13   A(4,5,6)              128.0762         -DE/DX =    0.0                 !
 ! D1    D(5,1,2,3)              0.0011         -DE/DX =    0.0                 !
 ! D2    D(5,1,2,8)           -179.9928         -DE/DX =    0.0                 !
 ! D3    D(9,1,2,3)           -179.9961         -DE/DX =    0.0                 !
 ! D4    D(9,1,2,8)              0.01           -DE/DX =    0.0                 !
 ! D5    D(2,1,5,4)             -0.006          -DE/DX =    0.0                 !
 ! D6    D(2,1,5,6)            180.008          -DE/DX =    0.0                 !
 ! D7    D(9,1,5,4)            179.9914         -DE/DX =    0.0                 !
 ! D8    D(9,1,5,6)              0.0054         -DE/DX =    0.0                 !
 ! D9    D(1,2,3,4)              0.0041         -DE/DX =    0.0                 !
 ! D10   D(8,2,3,4)            179.9988         -DE/DX =    0.0                 !
 ! D11   D(2,3,4,5)             -0.0081         -DE/DX =    0.0                 !
 ! D12   D(2,3,4,7)           -180.0044         -DE/DX =    0.0                 !
 ! D13   D(3,4,5,1)              0.0089         -DE/DX =    0.0                 !
 ! D14   D(3,4,5,6)           -180.0057         -DE/DX =    0.0                 !
 ! D15   D(7,4,5,1)            180.0047         -DE/DX =    0.0                 !
 ! D16   D(7,4,5,6)             -0.0099         -DE/DX =    0.0                 !
 --------------------------------------------------------------------------------
 Lowest energy point so far.  Saving SCF results.
 GradGradGradGradGradGradGradGradGradGradGradGradGradGradGradGradGradGrad

 Largest change from initial coordinates is atom    7       0.173 Angstoms.
 Leave Link  103 at Mon Nov 23 13:23:25 2015, MaxMem=    33554432 cpu:         0.0
 (Enter /home/Applications/g09/g09/l202.exe)
                          Input orientation:                          
 ---------------------------------------------------------------------
 Center     Atomic      Atomic             Coordinates (Angstroms)
 Number     Number       Type             X           Y           Z
 ---------------------------------------------------------------------
      1          6           0        0.937112   -0.687650    0.006009
      2          6           0       -0.374875   -1.086247   -0.010912
      3          8           0       -1.215868    0.011259   -0.020353
      4          6           0       -0.380934    1.113380   -0.008798
      5          6           0        0.933180    0.722072    0.007452
      6          1           0        1.812894    1.345987    0.019053
      7          1           0       -0.816308    2.102202   -0.013340
      8          1           0       -0.804572   -2.077608   -0.017261
      9          1           0        1.820160   -1.307233    0.016419
 ---------------------------------------------------------------------
                    Distance matrix (angstroms):
                    1          2          3          4          5
     1  C    0.000000
     2  C    1.371304   0.000000
     3  O    2.263734   1.382707   0.000000
     4  C    2.231854   2.199636   1.382722   0.000000
     5  C    1.409728   2.231896   2.263722   1.371233   0.000000
     6  H    2.214237   3.271543   3.310053   2.206300   1.078564
     7  H    3.295168   3.218862   2.128788   1.080435   2.228430
     8  H    2.228449   1.080498   2.128976   3.218997   3.295239
     9  H    1.078780   2.206300   3.310172   3.271822   2.214699
                    6          7          8          9
     6  H    0.000000
     7  H    2.735984   0.000000
     8  H    4.309692   4.179828   0.000000
     9  H    2.653231   4.309999   2.735659   0.000000
 Stoichiometry    C4H4O
 Framework group  C1[X(C4H4O)]
 Deg. of freedom    21
 Full point group                 C1      NOp   1
 RotChk:  IX=2 Diff= 2.19D-14
 Largest Abelian subgroup         C1      NOp   1
 Largest concise Abelian subgroup C1      NOp   1
                         Standard orientation:                         
 ---------------------------------------------------------------------
 Center     Atomic      Atomic             Coordinates (Angstroms)
 Number     Number       Type             X           Y           Z
 ---------------------------------------------------------------------
      1          6           0        0.705600    0.963229   -0.000011
      2          6           0        1.099530   -0.350275   -0.000018
      3          8           0       -0.000960   -1.187414    0.000024
      4          6           0       -1.100105   -0.348488   -0.000038
      5          6           0       -0.704128    0.964327    0.000065
      6          1           0       -1.324912    1.846330   -0.000035
      7          1           0       -2.090469   -0.780366   -0.000092
      8          1           0        2.089357   -0.783540    0.000037
      9          1           0        1.328319    1.844130   -0.000094
 ---------------------------------------------------------------------
 Rotational constants (GHZ):      9.4807887      9.0561608      4.6318056
 Leave Link  202 at Mon Nov 23 13:23:25 2015, MaxMem=    33554432 cpu:         0.0
 (Enter /home/Applications/g09/g09/l601.exe)
 Copying SCF densities to generalized density rwf, IOpCl= 0 IROHF=0.

 **********************************************************************

            Population analysis using the SCF density.

 **********************************************************************

 Orbital symmetries:
       Occupied  (A) (A) (A) (A) (A) (A) (A) (A) (A) (A) (A) (A)
                 (A)
       Virtual   (A) (A) (A) (A) (A) (A) (A) (A) (A) (A) (A)
 The electronic state is 1-A.
 Alpha  occ. eigenvalues --   -1.54137  -1.12521  -1.09751  -0.86225  -0.82776
 Alpha  occ. eigenvalues --   -0.79445  -0.73519  -0.49102  -0.44009  -0.42794
 Alpha  occ. eigenvalues --   -0.42638  -0.39762  -0.32873
 Alpha virt. eigenvalues --    0.17409   0.19060   0.26821   0.29322   0.30758
 Alpha virt. eigenvalues --    0.32543   0.34397   0.36017   0.40432   0.41781
 Alpha virt. eigenvalues --    0.44848
          Condensed to atoms (all electrons):
               1          2          3          4          5          6
     1  C    4.292453   0.000000   0.000000   0.000000   0.000000   0.000000
     2  C    0.000000   4.052255   0.000000   0.000000   0.000000   0.000000
     3  O    0.000000   0.000000   5.890567   0.000000   0.000000   0.000000
     4  C    0.000000   0.000000   0.000000   4.052199   0.000000   0.000000
     5  C    0.000000   0.000000   0.000000   0.000000   4.292475   0.000000
     6  H    0.000000   0.000000   0.000000   0.000000   0.000000   0.849101
     7  H    0.000000   0.000000   0.000000   0.000000   0.000000   0.000000
     8  H    0.000000   0.000000   0.000000   0.000000   0.000000   0.000000
     9  H    0.000000   0.000000   0.000000   0.000000   0.000000   0.000000
               7          8          9
     1  C    0.000000   0.000000   0.000000
     2  C    0.000000   0.000000   0.000000
     3  O    0.000000   0.000000   0.000000
     4  C    0.000000   0.000000   0.000000
     5  C    0.000000   0.000000   0.000000
     6  H    0.000000   0.000000   0.000000
     7  H    0.860905   0.000000   0.000000
     8  H    0.000000   0.860902   0.000000
     9  H    0.000000   0.000000   0.849144
 Mulliken charges:
               1
     1  C   -0.292453
     2  C   -0.052255
     3  O    0.109433
     4  C   -0.052199
     5  C   -0.292475
     6  H    0.150899
     7  H    0.139095
     8  H    0.139098
     9  H    0.150856
 Sum of Mulliken charges =   0.00000
 Mulliken charges with hydrogens summed into heavy atoms:
               1
     1  C   -0.141597
     2  C    0.086844
     3  O    0.109433
     4  C    0.086896
     5  C   -0.141576
 Charge=              0.0000 electrons
 Dipole moment (field-independent basis, Debye):
    X=             -0.0005    Y=             -0.9447    Z=             -0.0002  Tot=              0.9447
 N-N= 1.012057256005D+02 E-N=-1.696900233596D+02  KE=-1.817594392229D+01
 Leave Link  601 at Mon Nov 23 13:23:25 2015, MaxMem=    33554432 cpu:         0.0
 (Enter /home/Applications/g09/g09/l9999.exe)
 1\1\GINC-DUSTIN-DESKTOP\FOpt\RAM1\ZDO\C4H4O1\DUSTIN\23-Nov-2015\0\\#P 
 AM1(Input,print) Opt\\AM1-Reparam Input\\0,1\C,0.9371119646,-0.6876502
 273,0.0060094845\C,-0.3748746955,-1.0862467874,-0.0109122732\O,-1.2158
 681752,0.0112589179,-0.0203530442\C,-0.3809338551,1.113379744,-0.00879
 83\C,0.9331798735,0.7220718413,0.0074520503\H,1.8128936905,1.345987159
 6,0.0190525939\H,-0.8163079556,2.1022017131,-0.0133399284\H,-0.8045721
 61,-2.077607543,-0.0172614682\H,1.8201603138,-1.3072328183,0.016418885
 2\\Version=ES64L-G09RevD.01\State=1-A\HF=-2.2227699\RMSD=6.237e-09\RMS
 F=8.218e-05\Dipole=-0.3716385,-0.0011375,-0.0047528\PG=C01 [X(C4H4O1)]
 \\@


 HICKORY, DICKORY, DOCK
 TWO MICE RAN UP THE CLOCK
 THE CLOCK STRUCK ONE...
 THE OTHER ESCAPED WITH MINOR INJURIES.
 Job cpu time:       0 days  0 hours  0 minutes  1.5 seconds.
 File lengths (MBytes):  RWF=      5 Int=      0 D2E=      0 Chk=      2 Scr=      1
 Normal termination of Gaussian 09 at Mon Nov 23 13:23:25 2015.
