 Entering Gaussian System, Link 0=g09
 Input=FuranAM1Best7.com
 Output=FuranAM1Best7.log
 Initial command:
 /home/Applications/g09/g09/l1.exe "/home/Applications/g09/scratch/Gau-4883.inp" -scrdir="/home/Applications/g09/scratch/"
 Entering Link 1 = /home/Applications/g09/g09/l1.exe PID=      4885.
  
 Copyright (c) 1988,1990,1992,1993,1995,1998,2003,2009,2013,
            Gaussian, Inc.  All Rights Reserved.
  
 This is part of the Gaussian(R) 09 program.  It is based on
 the Gaussian(R) 03 system (copyright 2003, Gaussian, Inc.),
 the Gaussian(R) 98 system (copyright 1998, Gaussian, Inc.),
 the Gaussian(R) 94 system (copyright 1995, Gaussian, Inc.),
 the Gaussian 92(TM) system (copyright 1992, Gaussian, Inc.),
 the Gaussian 90(TM) system (copyright 1990, Gaussian, Inc.),
 the Gaussian 88(TM) system (copyright 1988, Gaussian, Inc.),
 the Gaussian 86(TM) system (copyright 1986, Carnegie Mellon
 University), and the Gaussian 82(TM) system (copyright 1983,
 Carnegie Mellon University). Gaussian is a federally registered
 trademark of Gaussian, Inc.
  
 This software contains proprietary and confidential information,
 including trade secrets, belonging to Gaussian, Inc.
  
 This software is provided under written license and may be
 used, copied, transmitted, or stored only in accord with that
 written license.
  
 The following legend is applicable only to US Government
 contracts under FAR:
  
                    RESTRICTED RIGHTS LEGEND
  
 Use, reproduction and disclosure by the US Government is
 subject to restrictions as set forth in subparagraphs (a)
 and (c) of the Commercial Computer Software - Restricted
 Rights clause in FAR 52.227-19.
  
 Gaussian, Inc.
 340 Quinnipiac St., Bldg. 40, Wallingford CT 06492
  
  
 ---------------------------------------------------------------
 Warning -- This program may not be used in any manner that
 competes with the business of Gaussian, Inc. or will provide
 assistance to any competitor of Gaussian, Inc.  The licensee
 of this program is prohibited from giving any competitor of
 Gaussian, Inc. access to this program.  By using this program,
 the user acknowledges that Gaussian, Inc. is engaged in the
 business of creating and licensing software in the field of
 computational chemistry and represents and warrants to the
 licensee that it is not a competitor of Gaussian, Inc. and that
 it will not use this program in any manner prohibited above.
 ---------------------------------------------------------------
  

 Cite this work as:
 Gaussian 09, Revision D.01,
 M. J. Frisch, G. W. Trucks, H. B. Schlegel, G. E. Scuseria, 
 M. A. Robb, J. R. Cheeseman, G. Scalmani, V. Barone, B. Mennucci, 
 G. A. Petersson, H. Nakatsuji, M. Caricato, X. Li, H. P. Hratchian, 
 A. F. Izmaylov, J. Bloino, G. Zheng, J. L. Sonnenberg, M. Hada, 
 M. Ehara, K. Toyota, R. Fukuda, J. Hasegawa, M. Ishida, T. Nakajima, 
 Y. Honda, O. Kitao, H. Nakai, T. Vreven, J. A. Montgomery, Jr., 
 J. E. Peralta, F. Ogliaro, M. Bearpark, J. J. Heyd, E. Brothers, 
 K. N. Kudin, V. N. Staroverov, T. Keith, R. Kobayashi, J. Normand, 
 K. Raghavachari, A. Rendell, J. C. Burant, S. S. Iyengar, J. Tomasi, 
 M. Cossi, N. Rega, J. M. Millam, M. Klene, J. E. Knox, J. B. Cross, 
 V. Bakken, C. Adamo, J. Jaramillo, R. Gomperts, R. E. Stratmann, 
 O. Yazyev, A. J. Austin, R. Cammi, C. Pomelli, J. W. Ochterski, 
 R. L. Martin, K. Morokuma, V. G. Zakrzewski, G. A. Voth, 
 P. Salvador, J. J. Dannenberg, S. Dapprich, A. D. Daniels, 
 O. Farkas, J. B. Foresman, J. V. Ortiz, J. Cioslowski, 
 and D. J. Fox, Gaussian, Inc., Wallingford CT, 2013.
 
 ******************************************
 Gaussian 09:  ES64L-G09RevD.01 24-Apr-2013
                23-Nov-2015 
 ******************************************
 -----------------------
 #P AM1(Input,print) Opt
 -----------------------
 1/14=-1,18=20,19=15,26=1,38=1/1,3;
 2/9=110,12=2,17=6,18=5,40=1/2;
 3/5=2,16=1,25=1,41=700000,71=1,135=100,136=1/1,2,3;
 4/35=1/1;
 5/5=2,35=1,38=5/2;
 6/7=2,8=2,9=2,10=2,28=1/1;
 7//1,2,3,16;
 1/14=-1,18=20,19=15,26=1/3(2);
 2/9=110/2;
 99//99;
 2/9=110/2;
 3/5=2,16=1,25=1,41=700000,71=1,135=20,136=1/1,2,3;
 4/5=5,16=3,35=1/1;
 5/5=2,35=1,38=5/2;
 7//1,2,3,16;
 1/14=-1,18=20,19=15,26=1/3(-5);
 2/9=110/2;
 6/7=2,8=2,9=2,10=2,19=2,28=1/1;
 99/9=1/99;
 Leave Link    1 at Mon Nov 23 13:23:33 2015, MaxMem=           0 cpu:         0.0
 (Enter /home/Applications/g09/g09/l101.exe)
 -----------------
 AM1-Reparam Input
 -----------------
 Symbolic Z-matrix:
 Charge =  0 Multiplicity = 1
 6                     0.93557  -0.69437   0.0029 
 6                    -0.35144  -1.07235   0.04435 
 8                    -1.14932  -0.03284  -0.04848 
 6                    -0.31763   1.09762  -0.03531 
 6                     0.90764   0.71575   0.02484 
 1                     1.82358   1.36976   0.01188 
 1                    -0.83222   2.01656   0.04191 
 1                    -0.80346  -2.03528  -0.02422 
 1                     1.76333  -1.32037  -0.03522 
 
 NAtoms=      9 NQM=        9 NQMF=       0 NMMI=      0 NMMIF=      0
                NMic=       0 NMicF=      0.
                    Isotopes and Nuclear Properties:
 (Nuclear quadrupole moments (NQMom) in fm**2, nuclear magnetic moments (NMagM)
  in nuclear magnetons)

  Atom         1           2           3           4           5           6           7           8           9
 IAtWgt=          12          12          16          12          12           1           1           1           1
 AtmWgt=  12.0000000  12.0000000  15.9949146  12.0000000  12.0000000   1.0078250   1.0078250   1.0078250   1.0078250
 NucSpn=           0           0           0           0           0           1           1           1           1
 AtZEff=   0.0000000   0.0000000   0.0000000   0.0000000   0.0000000   0.0000000   0.0000000   0.0000000   0.0000000
 NQMom=    0.0000000   0.0000000   0.0000000   0.0000000   0.0000000   0.0000000   0.0000000   0.0000000   0.0000000
 NMagM=    0.0000000   0.0000000   0.0000000   0.0000000   0.0000000   2.7928460   2.7928460   2.7928460   2.7928460
 AtZNuc=   6.0000000   6.0000000   8.0000000   6.0000000   6.0000000   1.0000000   1.0000000   1.0000000   1.0000000
 Leave Link  101 at Mon Nov 23 13:23:33 2015, MaxMem=    33554432 cpu:         0.0
 (Enter /home/Applications/g09/g09/l103.exe)

 GradGradGradGradGradGradGradGradGradGradGradGradGradGradGradGradGradGrad
 Berny optimization.
 Initialization pass.
                           ----------------------------
                           !    Initial Parameters    !
                           ! (Angstroms and Degrees)  !
 --------------------------                            --------------------------
 ! Name  Definition              Value          Derivative Info.                !
 --------------------------------------------------------------------------------
 ! R1    R(1,2)                  1.342          estimate D2E/DX2                !
 ! R2    R(1,5)                  1.4106         estimate D2E/DX2                !
 ! R3    R(1,9)                  1.0385         estimate D2E/DX2                !
 ! R4    R(2,3)                  1.3137         estimate D2E/DX2                !
 ! R5    R(2,8)                  1.066          estimate D2E/DX2                !
 ! R6    R(3,4)                  1.4035         estimate D2E/DX2                !
 ! R7    R(4,5)                  1.2848         estimate D2E/DX2                !
 ! R8    R(4,7)                  1.056          estimate D2E/DX2                !
 ! R9    R(5,6)                  1.1255         estimate D2E/DX2                !
 ! A1    A(2,1,5)              105.1944         estimate D2E/DX2                !
 ! A2    A(2,1,9)              126.5665         estimate D2E/DX2                !
 ! A3    A(5,1,9)              128.2391         estimate D2E/DX2                !
 ! A4    A(1,2,3)              110.9413         estimate D2E/DX2                !
 ! A5    A(1,2,8)              131.2326         estimate D2E/DX2                !
 ! A6    A(3,2,8)              116.9179         estimate D2E/DX2                !
 ! A7    A(2,3,4)              106.068          estimate D2E/DX2                !
 ! A8    A(3,4,5)              109.036          estimate D2E/DX2                !
 ! A9    A(3,4,7)              114.3828         estimate D2E/DX2                !
 ! A10   A(5,4,7)              136.0468         estimate D2E/DX2                !
 ! A11   A(1,5,4)              108.3776         estimate D2E/DX2                !
 ! A12   A(1,5,6)              124.374          estimate D2E/DX2                !
 ! A13   A(4,5,6)              127.0723         estimate D2E/DX2                !
 ! D1    D(5,1,2,3)              6.4258         estimate D2E/DX2                !
 ! D2    D(5,1,2,8)            174.936          estimate D2E/DX2                !
 ! D3    D(9,1,2,3)           -173.6716         estimate D2E/DX2                !
 ! D4    D(9,1,2,8)             -5.1613         estimate D2E/DX2                !
 ! D5    D(2,1,5,4)             -5.2004         estimate D2E/DX2                !
 ! D6    D(2,1,5,6)            179.3324         estimate D2E/DX2                !
 ! D7    D(9,1,5,4)            174.8991         estimate D2E/DX2                !
 ! D8    D(9,1,5,6)             -0.568          estimate D2E/DX2                !
 ! D9    D(1,2,3,4)             -5.1854         estimate D2E/DX2                !
 ! D10   D(8,2,3,4)           -175.5137         estimate D2E/DX2                !
 ! D11   D(2,3,4,5)              1.72           estimate D2E/DX2                !
 ! D12   D(2,3,4,7)           -171.2669         estimate D2E/DX2                !
 ! D13   D(3,4,5,1)              2.189          estimate D2E/DX2                !
 ! D14   D(3,4,5,6)            177.4996         estimate D2E/DX2                !
 ! D15   D(7,4,5,1)            172.9692         estimate D2E/DX2                !
 ! D16   D(7,4,5,6)            -11.7202         estimate D2E/DX2                !
 --------------------------------------------------------------------------------
 Trust Radius=3.00D-01 FncErr=1.00D-07 GrdErr=1.00D-07
 Number of steps in this run=     48 maximum allowed number of steps=    100.
 GradGradGradGradGradGradGradGradGradGradGradGradGradGradGradGradGradGrad

 Leave Link  103 at Mon Nov 23 13:23:33 2015, MaxMem=    33554432 cpu:         0.0
 (Enter /home/Applications/g09/g09/l202.exe)
                          Input orientation:                          
 ---------------------------------------------------------------------
 Center     Atomic      Atomic             Coordinates (Angstroms)
 Number     Number       Type             X           Y           Z
 ---------------------------------------------------------------------
      1          6           0        0.935571   -0.694370    0.002904
      2          6           0       -0.351439   -1.072349    0.044351
      3          8           0       -1.149316   -0.032839   -0.048482
      4          6           0       -0.317634    1.097616   -0.035307
      5          6           0        0.907643    0.715746    0.024837
      6          1           0        1.823575    1.369758    0.011882
      7          1           0       -0.832217    2.016562    0.041910
      8          1           0       -0.803460   -2.035283   -0.024218
      9          1           0        1.763332   -1.320371   -0.035224
 ---------------------------------------------------------------------
                    Distance matrix (angstroms):
                    1          2          3          4          5
     1  C    0.000000
     2  C    1.342006   0.000000
     3  O    2.187925   1.313700   0.000000
     4  C    2.187052   2.171690   1.403495   0.000000
     5  C    1.410563   2.186996   2.190168   1.284813   0.000000
     6  H    2.247055   3.270417   3.287705   2.158950   1.125536
     7  H    3.236626   3.126104   2.075757   1.056040   2.172447
     8  H    2.196136   1.065958   2.032237   3.170364   3.240130
     9  H    1.038518   2.130752   3.184562   3.190154   2.209431
                    6          7          8          9
     6  H    0.000000
     7  H    2.733585   0.000000
     8  H    4.300805   4.052487   0.000000
     9  H    2.691216   4.228232   2.664515   0.000000
 Stoichiometry    C4H4O
 Framework group  C1[X(C4H4O)]
 Deg. of freedom    21
 Full point group                 C1      NOp   1
 Largest Abelian subgroup         C1      NOp   1
 Largest concise Abelian subgroup C1      NOp   1
                         Standard orientation:                         
 ---------------------------------------------------------------------
 Center     Atomic      Atomic             Coordinates (Angstroms)
 Number     Number       Type             X           Y           Z
 ---------------------------------------------------------------------
      1          6           0        0.426621    1.089727   -0.013531
      2          6           0        1.126825   -0.053496    0.047607
      3          8           0        0.330769   -1.096073   -0.024048
      4          6           0       -0.977239   -0.587282   -0.017378
      5          6           0       -0.927509    0.696059    0.018791
      6          1           0       -1.797516    1.409733   -0.005476
      7          1           0       -1.730285   -1.321834    0.075220
      8          1           0        2.174093   -0.240429   -0.019865
      9          1           0        0.815360    2.051061   -0.070428
 ---------------------------------------------------------------------
 Rotational constants (GHZ):      9.8987330      9.5034372      4.8536988
 Leave Link  202 at Mon Nov 23 13:23:33 2015, MaxMem=    33554432 cpu:         0.0
 (Enter /home/Applications/g09/g09/l301.exe)

 Semi-emprical parameters in input format:
 Method=8 CoreType=1 PeptideFC=0.0166290000 RIJScale=0.6119410000
 ****
 H       
 PQN=1 NValence=1 F0ss=0.4150770000 ZetaOverlap=1.0810580000 U=-0.4286880000
 Beta=-0.2869890000 CoreKO=1.2114800000 KON=0,0,0,1.1025190000 KON=1,0,1,1.1074920000
 KON=0,1,1,1.0916540000 KON=2,1,1,1.0589200000 EISol=-0.4188110042 EHeat=0.0830298228
 Alpha=1.5030030000
 GCore=0.0071120000,1.1207970000,2.7005670000
 GCore=0.0003230000,1.4222460000,3.4015070000
 GCore=-0.0013380000,0.4405990000,4.4481290000
 ****
 C       
 PQN=2,2 NValence=4 F0ss=0.4202500000 F0sp=0.4263690000 F0pp=0.3424460000 F2pp=0.1977130000
 G1sp=0.2746580000
 ZetaOverlap=1.7498310000,1.3881390000
 U=-1.7944250000,-1.4545000000
 Beta=-0.5214990000,-0.3746580000 DDN=0,1,0.8234340000 DDN=1,1,0.7559950000
 CoreKO=1.2002200000 KON=0,0,0,1.1694410000 KON=1,0,1,0.9096420000 KON=0,1,1,0.9370920000
 KON=2,1,1,0.5201690000 EISol=-4.4398989268 EHeat=0.2723305520 Alpha=1.3947510000
 DipHyp=1.6467732542
 GCore=0.0008780000,1.2683970000,2.4090670000
 GCore=0.0034720000,1.4096270000,3.6574610000
 GCore=-0.0014060000,1.4542400000,3.3154880000
 GCore=-0.0001000000,1.4766960000,5.0661660000
 ****
 O       
 PQN=2,2 NValence=6 F0ss=0.5672460000 F0sp=0.5681160000 F0pp=0.4898210000 F2pp=0.2703590000
 G1sp=0.4169050000
 ZetaOverlap=2.7263600000,1.8505270000
 U=-3.5241930000,-3.0238760000
 Beta=-0.9772650000,-1.1886600000 DDN=0,1,0.5807610000 DDN=1,1,0.4521100000
 CoreKO=0.9925760000 KON=0,0,0,0.8355350000 KON=1,0,1,0.5454830000 KON=0,1,1,0.8378550000
 KON=2,1,1,0.5017630000 EISol=-11.6164441184 EHeat=0.0949133088 Alpha=2.2627970000
 DipHyp=1.1614551766
 GCore=0.0225710000,1.2849200000,1.7519400000
 GCore=0.0054870000,1.7991710000,2.8334770000
 ****
 
 Standard basis: VSTO-6G (5D, 7F)
 Ernie: Thresh=  0.10000D-02 Tol=  0.10000D-05 Strict=F.
  NNHCO=     0 NNPyr=     0 NCTC=     0               EPep=         0.000000000
    EC=        67.471154447  ECS=         1.923971947   EG=         0.441805537
   EHC=         0.000000000  EAt=       -31.051283842  AtH=         1.516354808
 EPDDG=         0.000000000  ECC=        69.836931931 EAtT=        32.567638650
 There are    24 symmetry adapted cartesian basis functions of A   symmetry.
 There are    24 symmetry adapted basis functions of A   symmetry.
    24 basis functions,   144 primitive gaussians,    24 cartesian basis functions
    13 alpha electrons       13 beta electrons
       nuclear repulsion energy       102.4045705810 Hartrees.
 IExCor=    0 DFT=F Ex=HF Corr=None ExCW=0 ScaHFX=  1.000000
 ScaDFX=  1.000000  1.000000  1.000000  1.000000 ScalE2=  1.000000  1.000000
 IRadAn=      0 IRanWt=     -1 IRanGd=            0 ICorTp=0 IEmpDi=  4
 Integral buffers will be    131072 words long.
 Regular integral format.
 Two-electron integral symmetry is turned off.
 Leave Link  301 at Mon Nov 23 13:23:33 2015, MaxMem=    33554432 cpu:         0.0
 (Enter /home/Applications/g09/g09/l302.exe)
 Do NDO integrals.
 NPDir=0 NMtPBC=     1 NCelOv=     1 NCel=       1 NClECP=     1 NCelD=      1
         NCelK=      1 NCelE2=     1 NClLst=     1 CellRange=     0.0.
 One-electron integrals computed using PRISM.
 NBasis=    24 RedAO= F EigKep=  0.00D+00  NBF=    24
 NBsUse=    24 1.00D-04 EigRej=  0.00D+00 NBFU=    24
 Leave Link  302 at Mon Nov 23 13:23:33 2015, MaxMem=    33554432 cpu:         0.0
 (Enter /home/Applications/g09/g09/l303.exe)
 DipDrv:  MaxL=1.
 Leave Link  303 at Mon Nov 23 13:23:33 2015, MaxMem=    33554432 cpu:         0.0
 (Enter /home/Applications/g09/g09/l401.exe)
 Simple Huckel Guess.
 JPrj=0 DoOrth=F DoCkMO=F.
 Leave Link  401 at Mon Nov 23 13:23:33 2015, MaxMem=    33554432 cpu:         0.0
 (Enter /home/Applications/g09/g09/l502.exe)
 Closed shell SCF:
 Using DIIS extrapolation, IDIIS=  1040.
 Overlap will be assumed to be unity.
 Two-electron integral symmetry not used.
 Keep J ints in memory in canonical form, NReq=888082.
 IVT=       79475 IEndB=       79475 NGot=    33554432 MDV=    33473473
 LenX=    33473473 LenY=    33472456
 Requested convergence on RMS density matrix=1.00D-08 within 128 cycles.
 Requested convergence on MAX density matrix=1.00D-06.
 Requested convergence on             energy=1.00D-06.
 No special actions if energy rises.
 FoFCou: FMM=F IPFlag=           0 FMFlag=           0 FMFlg1=           0
         NFxFlg=           0 DoJE=F BraDBF=F KetDBF=F FulRan=T
         wScrn=  0.000000 ICntrl=     600 IOpCl=  2 I1Cent=           0 NGrid=           0
         NMat0=    1 NMatS0=     54 NMatT0=    0 NMatD0=    1 NMtDS0=    0 NMtDT0=    0
 Symmetry not used in FoFCou.

 Cycle   1  Pass 1  IDiag  1:
 E= -2.03371234609915    
 DIIS: error= 2.88D-02 at cycle   1 NSaved=   1.
 NSaved= 1 IEnMin= 1 EnMin= -2.03371234609915     IErMin= 1 ErrMin= 2.88D-02
 ErrMax= 2.88D-02  0.00D+00 EMaxC= 1.00D-01 BMatC= 5.93D-02 BMatP= 5.93D-02
 IDIUse=3 WtCom= 7.12D-01 WtEn= 2.88D-01
 Coeff-Com:  0.100D+01
 Coeff-En:   0.100D+01
 Coeff:      0.100D+01
 GapD=    2.000 DampG=2.000 DampE=0.500 DampFc=1.0000 IDamp=-1.
 RMSDP=1.42D-02 MaxDP=7.13D-02              OVMax= 0.00D+00

 Cycle   2  Pass 1  IDiag  1:
 E= -2.17790011091827     Delta-E=       -0.144187764819 Rises=F Damp=F
 DIIS: error= 1.33D-02 at cycle   2 NSaved=   2.
 NSaved= 2 IEnMin= 2 EnMin= -2.17790011091827     IErMin= 2 ErrMin= 1.33D-02
 ErrMax= 1.33D-02  0.00D+00 EMaxC= 1.00D-01 BMatC= 5.32D-03 BMatP= 5.93D-02
 IDIUse=3 WtCom= 8.67D-01 WtEn= 1.33D-01
 Coeff-Com: -0.308D+00 0.131D+01
 Coeff-En:   0.000D+00 0.100D+01
 Coeff:     -0.267D+00 0.127D+01
 RMSDP=6.18D-03 MaxDP=4.28D-02 DE=-1.44D-01 OVMax= 0.00D+00

 Cycle   3  Pass 1  IDiag  3:
 E= -2.19656418906864     Delta-E=       -0.018664078150 Rises=F Damp=F
 DIIS: error= 3.83D-03 at cycle   3 NSaved=   3.
 NSaved= 3 IEnMin= 3 EnMin= -2.19656418906864     IErMin= 3 ErrMin= 3.83D-03
 ErrMax= 3.83D-03  0.00D+00 EMaxC= 1.00D-01 BMatC= 4.29D-04 BMatP= 5.32D-03
 IDIUse=3 WtCom= 9.62D-01 WtEn= 3.83D-02
 Coeff-Com:  0.805D-01-0.544D+00 0.146D+01
 Coeff-En:   0.000D+00 0.000D+00 0.100D+01
 Coeff:      0.774D-01-0.523D+00 0.145D+01
 Gap=     0.524 Goal=   None    Shift=    0.000
 RMSDP=2.49D-03 MaxDP=1.97D-02 DE=-1.87D-02 OVMax= 1.69D-02

 Cycle   4  Pass 1  IDiag  3:
 E= -2.19866212198517     Delta-E=       -0.002097932917 Rises=F Damp=F
 DIIS: error= 8.50D-04 at cycle   4 NSaved=   4.
 NSaved= 4 IEnMin= 4 EnMin= -2.19866212198517     IErMin= 4 ErrMin= 8.50D-04
 ErrMax= 8.50D-04  0.00D+00 EMaxC= 1.00D-01 BMatC= 3.13D-05 BMatP= 4.29D-04
 IDIUse=3 WtCom= 9.91D-01 WtEn= 8.50D-03
 Coeff-Com: -0.112D-01 0.110D+00-0.534D+00 0.144D+01
 Coeff-En:   0.000D+00 0.000D+00 0.000D+00 0.100D+01
 Coeff:     -0.111D-01 0.109D+00-0.529D+00 0.143D+01
 Gap=     0.523 Goal=   None    Shift=    0.000
 RMSDP=7.82D-04 MaxDP=5.14D-03 DE=-2.10D-03 OVMax= 5.79D-03

 Cycle   5  Pass 1  IDiag  3:
 E= -2.19883811081803     Delta-E=       -0.000175988833 Rises=F Damp=F
 DIIS: error= 3.68D-04 at cycle   5 NSaved=   5.
 NSaved= 5 IEnMin= 5 EnMin= -2.19883811081803     IErMin= 5 ErrMin= 3.68D-04
 ErrMax= 3.68D-04  0.00D+00 EMaxC= 1.00D-01 BMatC= 3.81D-06 BMatP= 3.13D-05
 IDIUse=3 WtCom= 9.96D-01 WtEn= 3.68D-03
 Coeff-Com: -0.105D-02-0.242D-01 0.247D+00-0.101D+01 0.179D+01
 Coeff-En:   0.000D+00 0.000D+00 0.000D+00 0.000D+00 0.100D+01
 Coeff:     -0.105D-02-0.241D-01 0.246D+00-0.101D+01 0.179D+01
 Gap=     0.523 Goal=   None    Shift=    0.000
 RMSDP=3.04D-04 MaxDP=2.10D-03 DE=-1.76D-04 OVMax= 2.25D-03

 Cycle   6  Pass 1  IDiag  3:
 E= -2.19886158879744     Delta-E=       -0.000023477979 Rises=F Damp=F
 DIIS: error= 1.06D-04 at cycle   6 NSaved=   6.
 NSaved= 6 IEnMin= 6 EnMin= -2.19886158879744     IErMin= 6 ErrMin= 1.06D-04
 ErrMax= 1.06D-04  0.00D+00 EMaxC= 1.00D-01 BMatC= 3.05D-07 BMatP= 3.81D-06
 IDIUse=3 WtCom= 9.99D-01 WtEn= 1.06D-03
 Coeff-Com:  0.157D-02 0.731D-03-0.630D-01 0.343D+00-0.905D+00 0.162D+01
 Coeff-En:   0.000D+00 0.000D+00 0.000D+00 0.000D+00 0.000D+00 0.100D+01
 Coeff:      0.156D-02 0.730D-03-0.630D-01 0.342D+00-0.904D+00 0.162D+01
 Gap=     0.523 Goal=   None    Shift=    0.000
 RMSDP=9.51D-05 MaxDP=7.35D-04 DE=-2.35D-05 OVMax= 5.21D-04

 Cycle   7  Pass 1  IDiag  3:
 E= -2.19886344841356     Delta-E=       -0.000001859616 Rises=F Damp=F
 DIIS: error= 1.86D-05 at cycle   7 NSaved=   7.
 NSaved= 7 IEnMin= 7 EnMin= -2.19886344841356     IErMin= 7 ErrMin= 1.86D-05
 ErrMax= 1.86D-05  0.00D+00 EMaxC= 1.00D-01 BMatC= 1.59D-08 BMatP= 3.05D-07
 IDIUse=1 WtCom= 1.00D+00 WtEn= 0.00D+00
 Coeff-Com: -0.878D-03-0.247D-03 0.339D-01-0.190D+00 0.527D+00-0.104D+01
 Coeff-Com:  0.167D+01
 Coeff:     -0.878D-03-0.247D-03 0.339D-01-0.190D+00 0.527D+00-0.104D+01
 Coeff:      0.167D+01
 Gap=     0.523 Goal=   None    Shift=    0.000
 RMSDP=1.82D-05 MaxDP=1.36D-04 DE=-1.86D-06 OVMax= 1.45D-04

 Cycle   8  Pass 1  IDiag  3:
 E= -2.19886355449762     Delta-E=       -0.000000106084 Rises=F Damp=F
 DIIS: error= 9.92D-06 at cycle   8 NSaved=   8.
 NSaved= 8 IEnMin= 8 EnMin= -2.19886355449762     IErMin= 8 ErrMin= 9.92D-06
 ErrMax= 9.92D-06  0.00D+00 EMaxC= 1.00D-01 BMatC= 3.57D-09 BMatP= 1.59D-08
 IDIUse=1 WtCom= 1.00D+00 WtEn= 0.00D+00
 Coeff-Com:  0.546D-03-0.323D-03-0.169D-01 0.103D+00-0.305D+00 0.651D+00
 Coeff-Com: -0.160D+01 0.217D+01
 Coeff:      0.546D-03-0.323D-03-0.169D-01 0.103D+00-0.305D+00 0.651D+00
 Coeff:     -0.160D+01 0.217D+01
 Gap=     0.523 Goal=   None    Shift=    0.000
 RMSDP=1.39D-05 MaxDP=1.15D-04 DE=-1.06D-07 OVMax= 1.13D-04

 Cycle   9  Pass 1  IDiag  3:
 E= -2.19886358557994     Delta-E=       -0.000000031082 Rises=F Damp=F
 DIIS: error= 2.75D-06 at cycle   9 NSaved=   9.
 NSaved= 9 IEnMin= 9 EnMin= -2.19886358557994     IErMin= 9 ErrMin= 2.75D-06
 ErrMax= 2.75D-06  0.00D+00 EMaxC= 1.00D-01 BMatC= 1.66D-10 BMatP= 3.57D-09
 IDIUse=1 WtCom= 1.00D+00 WtEn= 0.00D+00
 Coeff-Com: -0.141D-03 0.138D-03 0.392D-02-0.253D-01 0.812D-01-0.184D+00
 Coeff-Com:  0.546D+00-0.969D+00 0.155D+01
 Coeff:     -0.141D-03 0.138D-03 0.392D-02-0.253D-01 0.812D-01-0.184D+00
 Coeff:      0.546D+00-0.969D+00 0.155D+01
 Gap=     0.523 Goal=   None    Shift=    0.000
 RMSDP=2.72D-06 MaxDP=2.20D-05 DE=-3.11D-08 OVMax= 1.82D-05

 Cycle  10  Pass 1  IDiag  3:
 E= -2.19886358673897     Delta-E=       -0.000000001159 Rises=F Damp=F
 DIIS: error= 2.92D-07 at cycle  10 NSaved=  10.
 NSaved=10 IEnMin=10 EnMin= -2.19886358673897     IErMin=10 ErrMin= 2.92D-07
 ErrMax= 2.92D-07  0.00D+00 EMaxC= 1.00D-01 BMatC= 3.63D-12 BMatP= 1.66D-10
 IDIUse=1 WtCom= 1.00D+00 WtEn= 0.00D+00
 Coeff-Com:  0.102D-04 0.433D-05-0.416D-03 0.269D-02-0.998D-02 0.248D-01
 Coeff-Com: -0.922D-01 0.193D+00-0.433D+00 0.131D+01
 Coeff:      0.102D-04 0.433D-05-0.416D-03 0.269D-02-0.998D-02 0.248D-01
 Coeff:     -0.922D-01 0.193D+00-0.433D+00 0.131D+01
 Gap=     0.523 Goal=   None    Shift=    0.000
 RMSDP=2.45D-07 MaxDP=1.66D-06 DE=-1.16D-09 OVMax= 1.61D-06

 Cycle  11  Pass 1  IDiag  3:
 E= -2.19886358675417     Delta-E=       -0.000000000015 Rises=F Damp=F
 DIIS: error= 4.95D-08 at cycle  11 NSaved=  11.
 NSaved=11 IEnMin=11 EnMin= -2.19886358675417     IErMin=11 ErrMin= 4.95D-08
 ErrMax= 4.95D-08  0.00D+00 EMaxC= 1.00D-01 BMatC= 1.11D-13 BMatP= 3.63D-12
 IDIUse=1 WtCom= 1.00D+00 WtEn= 0.00D+00
 Coeff-Com:  0.260D-06-0.574D-05 0.435D-04-0.287D-03 0.145D-02-0.410D-02
 Coeff-Com:  0.189D-01-0.440D-01 0.114D+00-0.466D+00 0.138D+01
 Coeff:      0.260D-06-0.574D-05 0.435D-04-0.287D-03 0.145D-02-0.410D-02
 Coeff:      0.189D-01-0.440D-01 0.114D+00-0.466D+00 0.138D+01
 Gap=     0.523 Goal=   None    Shift=    0.000
 RMSDP=4.02D-08 MaxDP=2.11D-07 DE=-1.52D-11 OVMax= 3.49D-07

 Cycle  12  Pass 1  IDiag  3:
 E= -2.19886358675507     Delta-E=       -0.000000000001 Rises=F Damp=F
 DIIS: error= 1.05D-08 at cycle  12 NSaved=  12.
 NSaved=12 IEnMin=12 EnMin= -2.19886358675507     IErMin=12 ErrMin= 1.05D-08
 ErrMax= 1.05D-08  0.00D+00 EMaxC= 1.00D-01 BMatC= 4.65D-15 BMatP= 1.11D-13
 IDIUse=1 WtCom= 1.00D+00 WtEn= 0.00D+00
 Coeff-Com: -0.280D-06 0.248D-05-0.125D-04 0.890D-04-0.533D-03 0.159D-02
 Coeff-Com: -0.774D-02 0.185D-01-0.493D-01 0.210D+00-0.729D+00 0.156D+01
 Coeff:     -0.280D-06 0.248D-05-0.125D-04 0.890D-04-0.533D-03 0.159D-02
 Coeff:     -0.774D-02 0.185D-01-0.493D-01 0.210D+00-0.729D+00 0.156D+01
 Gap=     0.523 Goal=   None    Shift=    0.000
 RMSDP=9.32D-09 MaxDP=4.75D-08 DE=-8.95D-13 OVMax= 7.23D-08

 Cycle  13  Pass 2  IDiag  1:
 SCF Done:  E(RAM1) =  -2.19886358676     A.U. after   13 cycles
            NFock= 12  Conv=0.93D-08     -V/T= 0.8800
 KE=-1.832353921533D+01 PE=-1.717075571783D+02 EE= 8.542766222581D+01
 Leave Link  502 at Mon Nov 23 13:23:33 2015, MaxMem=    33554432 cpu:         0.0
 (Enter /home/Applications/g09/g09/l601.exe)
 Copying SCF densities to generalized density rwf, IOpCl= 0 IROHF=0.

 **********************************************************************

            Population analysis using the SCF density.

 **********************************************************************

 Orbital symmetries:
       Occupied  (A) (A) (A) (A) (A) (A) (A) (A) (A) (A) (A) (A)
                 (A)
       Virtual   (A) (A) (A) (A) (A) (A) (A) (A) (A) (A) (A)
 The electronic state is 1-A.
 Alpha  occ. eigenvalues --   -1.59108  -1.16222  -1.10401  -0.87423  -0.85155
 Alpha  occ. eigenvalues --   -0.78899  -0.73894  -0.47853  -0.43817  -0.42762
 Alpha  occ. eigenvalues --   -0.40899  -0.39065  -0.33291
 Alpha virt. eigenvalues --    0.19028   0.20127   0.27626   0.29912   0.30203
 Alpha virt. eigenvalues --    0.33682   0.34994   0.36730   0.41416   0.42337
 Alpha virt. eigenvalues --    0.45949
          Condensed to atoms (all electrons):
               1          2          3          4          5          6
     1  C    4.412279   0.000000   0.000000   0.000000   0.000000   0.000000
     2  C    0.000000   3.956957   0.000000   0.000000   0.000000   0.000000
     3  O    0.000000   0.000000   5.893395   0.000000   0.000000   0.000000
     4  C    0.000000   0.000000   0.000000   4.099234   0.000000   0.000000
     5  C    0.000000   0.000000   0.000000   0.000000   4.207165   0.000000
     6  H    0.000000   0.000000   0.000000   0.000000   0.000000   0.865931
     7  H    0.000000   0.000000   0.000000   0.000000   0.000000   0.000000
     8  H    0.000000   0.000000   0.000000   0.000000   0.000000   0.000000
     9  H    0.000000   0.000000   0.000000   0.000000   0.000000   0.000000
               7          8          9
     1  C    0.000000   0.000000   0.000000
     2  C    0.000000   0.000000   0.000000
     3  O    0.000000   0.000000   0.000000
     4  C    0.000000   0.000000   0.000000
     5  C    0.000000   0.000000   0.000000
     6  H    0.000000   0.000000   0.000000
     7  H    0.854808   0.000000   0.000000
     8  H    0.000000   0.873388   0.000000
     9  H    0.000000   0.000000   0.836844
 Mulliken charges:
               1
     1  C   -0.412279
     2  C    0.043043
     3  O    0.106605
     4  C   -0.099234
     5  C   -0.207165
     6  H    0.134069
     7  H    0.145192
     8  H    0.126612
     9  H    0.163156
 Sum of Mulliken charges =   0.00000
 Mulliken charges with hydrogens summed into heavy atoms:
               1
     1  C   -0.249123
     2  C    0.169655
     3  O    0.106605
     4  C    0.045958
     5  C   -0.073095
 Charge=              0.0000 electrons
 Dipole moment (field-independent basis, Debye):
    X=              0.4335    Y=             -1.0864    Z=             -0.0027  Tot=              1.1697
 N-N= 1.024045705810D+02 E-N=-1.717075572067D+02  KE=-1.832353921533D+01
 Leave Link  601 at Mon Nov 23 13:23:33 2015, MaxMem=    33554432 cpu:         0.0
 (Enter /home/Applications/g09/g09/l701.exe)
 Compute integral first derivatives.
 ... and contract with generalized density number  0.
 Leave Link  701 at Mon Nov 23 13:23:33 2015, MaxMem=    33554432 cpu:         0.0
 (Enter /home/Applications/g09/g09/l702.exe)
 L702 exits ... SP integral derivatives will be done elsewhere.
 Leave Link  702 at Mon Nov 23 13:23:33 2015, MaxMem=    33554432 cpu:         0.0
 (Enter /home/Applications/g09/g09/l703.exe)
 Compute integral first derivatives, UseDBF=F ICtDFT=           0.
 Integral derivatives from FoFJK, PRISM(SPDF).
 Calling FoFJK, ICntrl=      2127 FMM=F ISym2X=0 I1Cent= 0 IOpClX= 0 NMat=1 NMatS=1 NMatT=0.
 FoFJK:  IHMeth= 8 ICntrl=    2127 DoSepK=F KAlg= 0 I1Cent=   0 FoldK=F
 IRaf=         0 NMat=   1 IRICut=       1 DoRegI=T DoRafI=F ISym2E= 0.
 FoFCou: FMM=F IPFlag=           0 FMFlag=      100000 FMFlg1=         800
         NFxFlg=           0 DoJE=F BraDBF=F KetDBF=F FulRan=T
         wScrn=  0.000000 ICntrl=    2127 IOpCl=  0 I1Cent=           0 NGrid=           0
         NMat0=    1 NMatS0=      1 NMatT0=    0 NMatD0=    1 NMtDS0=    0 NMtDT0=    0
 Symmetry not used in FoFCou.
 Leave Link  703 at Mon Nov 23 13:23:33 2015, MaxMem=    33554432 cpu:         0.0
 (Enter /home/Applications/g09/g09/l716.exe)
 Dipole        = 1.70568934D-01-4.27407023D-01-1.06916876D-03
 ***** Axes restored to original set *****
 -------------------------------------------------------------------
 Center     Atomic                   Forces (Hartrees/Bohr)
 Number     Number              X              Y              Z
 -------------------------------------------------------------------
      1        6           0.020544479    0.006434456    0.015581648
      2        6           0.014334509   -0.062453529   -0.025614240
      3        8          -0.074753579    0.065459240    0.007978310
      4        6          -0.089235639    0.014415243    0.009261985
      5        6           0.127378331    0.009352534   -0.012216472
      6        1          -0.022227711   -0.019677092    0.002727209
      7        1          -0.005007728    0.025232318   -0.005595566
      8        1          -0.002909010   -0.022564168    0.005762933
      9        1           0.031876349   -0.016199002    0.002114193
 -------------------------------------------------------------------
 Cartesian Forces:  Max     0.127378331 RMS     0.040156648
 Leave Link  716 at Mon Nov 23 13:23:33 2015, MaxMem=    33554432 cpu:         0.0
 (Enter /home/Applications/g09/g09/l103.exe)

 GradGradGradGradGradGradGradGradGradGradGradGradGradGradGradGradGradGrad
 Berny optimization.
 FormGI is forming the generalized inverse of G from B-inverse, IUseBI=4.
 Internal  Forces:  Max     0.108663199 RMS     0.027591113
 Search for a local minimum.
 Step number   1 out of a maximum of   48
 All quantities printed in internal units (Hartrees-Bohrs-Radians)
 RMS Force = .27591D-01 SwitMx=.10000D-02 MixMth= 1
 Mixed Optimization -- RFO/linear search
 Second derivative matrix not updated -- first step.
 ITU=  0
     Eigenvalues ---    0.02316   0.02391   0.02689   0.02888   0.02934
     Eigenvalues ---    0.03300   0.15754   0.15837   0.15934   0.16000
     Eigenvalues ---    0.21991   0.22830   0.31009   0.37746   0.39052
     Eigenvalues ---    0.40623   0.41510   0.43684   0.52567   0.59805
     Eigenvalues ---    0.68790
 RFO step:  Lambda=-5.07255105D-02 EMin= 2.31584258D-02
 Linear search not attempted -- first point.
 Iteration  1 RMS(Cart)=  0.06255559 RMS(Int)=  0.00312323
 Iteration  2 RMS(Cart)=  0.00194520 RMS(Int)=  0.00153507
 Iteration  3 RMS(Cart)=  0.00000845 RMS(Int)=  0.00153505
 Iteration  4 RMS(Cart)=  0.00000002 RMS(Int)=  0.00153505
 ITry= 1 IFail=0 DXMaxC= 1.57D-01 DCOld= 1.00D+10 DXMaxT= 3.00D-01 DXLimC= 3.00D+00 Rises=F
 Variable       Old X    -DE/DX   Delta X   Delta X   Delta X     New X
                                 (Linear)    (Quad)   (Total)
    R1        2.53602   0.05206   0.00000   0.08246   0.08221   2.61824
    R2        2.66558   0.01809   0.00000   0.03440   0.03394   2.69952
    R3        1.96251   0.03509   0.00000   0.07534   0.07534   2.03785
    R4        2.48253   0.09885   0.00000   0.14483   0.14514   2.62767
    R5        2.01437   0.02125   0.00000   0.04962   0.04962   2.06399
    R6        2.65222   0.01554   0.00000   0.03393   0.03436   2.68658
    R7        2.42795   0.10866   0.00000   0.14222   0.14218   2.57012
    R8        1.99563   0.02399   0.00000   0.05436   0.05436   2.04999
    R9        2.12695  -0.02955   0.00000  -0.08191  -0.08191   2.04505
    A1        1.83599   0.00153   0.00000  -0.00225  -0.00431   1.83168
    A2        2.20900   0.00540   0.00000   0.03038   0.03086   2.23986
    A3        2.23819  -0.00692   0.00000  -0.02806  -0.02758   2.21061
    A4        1.93629   0.00514   0.00000   0.02170   0.01710   1.95340
    A5        2.29044  -0.00801   0.00000  -0.02883  -0.03212   2.25832
    A6        2.04060   0.00491   0.00000   0.03358   0.03045   2.07105
    A7        1.85124  -0.01026   0.00000  -0.02550  -0.02589   1.82535
    A8        1.90304   0.00171   0.00000   0.01302   0.01207   1.91511
    A9        1.99636   0.00669   0.00000   0.03123   0.03128   2.02764
   A10        2.37447  -0.00794   0.00000  -0.03809  -0.03821   2.33626
   A11        1.89155   0.00315   0.00000   0.00941   0.00737   1.89891
   A12        2.17074  -0.00503   0.00000  -0.01980  -0.01969   2.15104
   A13        2.21783   0.00228   0.00000   0.01508   0.01522   2.23305
    D1        0.11215  -0.01030   0.00000  -0.13671  -0.13749  -0.02534
    D2        3.05321   0.00335   0.00000   0.03392   0.03105   3.08426
    D3       -3.03114  -0.00693   0.00000  -0.09003  -0.08896  -3.12010
    D4       -0.09008   0.00672   0.00000   0.08060   0.07957  -0.01051
    D5       -0.09076   0.00866   0.00000   0.11129   0.11047   0.01970
    D6        3.12994   0.00339   0.00000   0.05010   0.05034  -3.10290
    D7        3.05256   0.00520   0.00000   0.06347   0.06294   3.11551
    D8       -0.00991  -0.00007   0.00000   0.00228   0.00282  -0.00709
    D9       -0.09050   0.00866   0.00000   0.11116   0.11140   0.02090
   D10       -3.06329  -0.00116   0.00000  -0.02469  -0.02922  -3.09251
   D11        0.03002  -0.00283   0.00000  -0.03748  -0.03768  -0.00766
   D12       -2.98917  -0.00511   0.00000  -0.07417  -0.07559  -3.06477
   D13        0.03820  -0.00381   0.00000  -0.04640  -0.04578  -0.00757
   D14        3.09795   0.00122   0.00000   0.01485   0.01593   3.11388
   D15        3.01888   0.00102   0.00000   0.01071   0.00992   3.02880
   D16       -0.20456   0.00605   0.00000   0.07197   0.07163  -0.13293
         Item               Value     Threshold  Converged?
 Maximum Force            0.108663     0.000450     NO 
 RMS     Force            0.027591     0.000300     NO 
 Maximum Displacement     0.157483     0.001800     NO 
 RMS     Displacement     0.061974     0.001200     NO 
 Predicted change in Energy=-2.934084D-02
 Lowest energy point so far.  Saving SCF results.
 GradGradGradGradGradGradGradGradGradGradGradGradGradGradGradGradGradGrad

 Leave Link  103 at Mon Nov 23 13:23:33 2015, MaxMem=    33554432 cpu:         0.0
 (Enter /home/Applications/g09/g09/l202.exe)
                          Input orientation:                          
 ---------------------------------------------------------------------
 Center     Atomic      Atomic             Coordinates (Angstroms)
 Number     Number       Type             X           Y           Z
 ---------------------------------------------------------------------
      1          6           0        0.964185   -0.708914    0.022363
      2          6           0       -0.366295   -1.094484   -0.005921
      3          8           0       -1.223923    0.000015   -0.012922
      4          6           0       -0.361733    1.130408   -0.015984
      5          6           0        0.934550    0.719107   -0.001225
      6          1           0        1.827041    1.330770   -0.022919
      7          1           0       -0.843512    2.099898    0.053200
      8          1           0       -0.796527   -2.097450   -0.049425
      9          1           0        1.842269   -1.334881    0.015487
 ---------------------------------------------------------------------
                    Distance matrix (angstroms):
                    1          2          3          4          5
     1  C    0.000000
     2  C    1.385511   0.000000
     3  O    2.300358   1.390505   0.000000
     4  C    2.267738   2.224919   1.421679   0.000000
     5  C    1.428524   2.231890   2.275135   1.360051   0.000000
     6  H    2.215148   3.269994   3.328572   2.197936   1.082192
     7  H    3.340381   3.230373   2.135087   1.084808   2.251900
     8  H    2.243501   1.092216   2.140879   3.257182   3.306350
     9  H    1.078385   2.221712   3.344293   3.307003   2.245685
                    6          7          8          9
     6  H    0.000000
     7  H    2.780145   0.000000
     8  H    4.317002   4.198866   0.000000
     9  H    2.665971   4.360339   2.747539   0.000000
 Stoichiometry    C4H4O
 Framework group  C1[X(C4H4O)]
 Deg. of freedom    21
 Full point group                 C1      NOp   1
 RotChk:  IX=0 Diff= 7.20D-01
 Largest Abelian subgroup         C1      NOp   1
 Largest concise Abelian subgroup C1      NOp   1
                         Standard orientation:                         
 ---------------------------------------------------------------------
 Center     Atomic      Atomic             Coordinates (Angstroms)
 Number     Number       Type             X           Y           Z
 ---------------------------------------------------------------------
      1          6           0        0.938649    0.776111    0.017039
      2          6           0        0.981756   -0.608625    0.000023
      3          8           0       -0.291415   -1.167676    0.000399
      4          6           0       -1.172357   -0.051878   -0.009889
      5          6           0       -0.452065    1.101770   -0.006175
      6          1           0       -0.823037    2.117972   -0.035396
      7          1           0       -2.230952   -0.277275    0.063468
      8          1           0        1.846404   -1.274751   -0.039911
      9          1           0        1.763008    1.471193    0.002653
 ---------------------------------------------------------------------
 Rotational constants (GHZ):      9.2963437      8.8968460      4.5470399
 Leave Link  202 at Mon Nov 23 13:23:33 2015, MaxMem=    33554432 cpu:         0.0
 (Enter /home/Applications/g09/g09/l301.exe)

 Semi-emprical parameters in input format:
 Method=8 CoreType=1 PeptideFC=0.0166290000 RIJScale=0.6119410000
 ****
 H       
 PQN=1 NValence=1 F0ss=0.4150770000 ZetaOverlap=1.0810580000 U=-0.4286880000
 Beta=-0.2869890000 CoreKO=1.2114800000 KON=0,0,0,1.1025190000 KON=1,0,1,1.1074920000
 KON=0,1,1,1.0916540000 KON=2,1,1,1.0589200000 EISol=-0.4188110042 EHeat=0.0830298228
 Alpha=1.5030030000
 GCore=0.0071120000,1.1207970000,2.7005670000
 GCore=0.0003230000,1.4222460000,3.4015070000
 GCore=-0.0013380000,0.4405990000,4.4481290000
 ****
 C       
 PQN=2,2 NValence=4 F0ss=0.4202500000 F0sp=0.4263690000 F0pp=0.3424460000 F2pp=0.1977130000
 G1sp=0.2746580000
 ZetaOverlap=1.7498310000,1.3881390000
 U=-1.7944250000,-1.4545000000
 Beta=-0.5214990000,-0.3746580000 DDN=0,1,0.8234340000 DDN=1,1,0.7559950000
 CoreKO=1.2002200000 KON=0,0,0,1.1694410000 KON=1,0,1,0.9096420000 KON=0,1,1,0.9370920000
 KON=2,1,1,0.5201690000 EISol=-4.4398989268 EHeat=0.2723305520 Alpha=1.3947510000
 DipHyp=1.6467732542
 GCore=0.0008780000,1.2683970000,2.4090670000
 GCore=0.0034720000,1.4096270000,3.6574610000
 GCore=-0.0014060000,1.4542400000,3.3154880000
 GCore=-0.0001000000,1.4766960000,5.0661660000
 ****
 O       
 PQN=2,2 NValence=6 F0ss=0.5672460000 F0sp=0.5681160000 F0pp=0.4898210000 F2pp=0.2703590000
 G1sp=0.4169050000
 ZetaOverlap=2.7263600000,1.8505270000
 U=-3.5241930000,-3.0238760000
 Beta=-0.9772650000,-1.1886600000 DDN=0,1,0.5807610000 DDN=1,1,0.4521100000
 CoreKO=0.9925760000 KON=0,0,0,0.8355350000 KON=1,0,1,0.5454830000 KON=0,1,1,0.8378550000
 KON=2,1,1,0.5017630000 EISol=-11.6164441184 EHeat=0.0949133088 Alpha=2.2627970000
 DipHyp=1.1614551766
 GCore=0.0225710000,1.2849200000,1.7519400000
 GCore=0.0054870000,1.7991710000,2.8334770000
 ****
 
 Standard basis: VSTO-6G (5D, 7F)
 Ernie: Thresh=  0.10000D-02 Tol=  0.10000D-05 Strict=F.
  NNHCO=     0 NNPyr=     0 NCTC=     0               EPep=         0.000000000
    EC=        66.066355574  ECS=         1.699904651   EG=         0.386424867
   EHC=         0.000000000  EAt=       -31.051283842  AtH=         1.516354808
 EPDDG=         0.000000000  ECC=        68.152685092 EAtT=        32.567638650
 There are    24 symmetry adapted cartesian basis functions of A   symmetry.
 There are    24 symmetry adapted basis functions of A   symmetry.
    24 basis functions,   144 primitive gaussians,    24 cartesian basis functions
    13 alpha electrons       13 beta electrons
       nuclear repulsion energy       100.7203237421 Hartrees.
 IExCor=    0 DFT=F Ex=HF Corr=None ExCW=0 ScaHFX=  1.000000
 ScaDFX=  1.000000  1.000000  1.000000  1.000000 ScalE2=  1.000000  1.000000
 IRadAn=      0 IRanWt=     -1 IRanGd=            0 ICorTp=0 IEmpDi=  4
 Integral buffers will be    131072 words long.
 Regular integral format.
 Two-electron integral symmetry is turned off.
 Leave Link  301 at Mon Nov 23 13:23:33 2015, MaxMem=    33554432 cpu:         0.0
 (Enter /home/Applications/g09/g09/l302.exe)
 Do NDO integrals.
 NPDir=0 NMtPBC=     1 NCelOv=     1 NCel=       1 NClECP=     1 NCelD=      1
         NCelK=      1 NCelE2=     1 NClLst=     1 CellRange=     0.0.
 One-electron integrals computed using PRISM.
 NBasis=    24 RedAO= F EigKep=  0.00D+00  NBF=    24
 NBsUse=    24 1.00D-04 EigRej=  0.00D+00 NBFU=    24
 Leave Link  302 at Mon Nov 23 13:23:33 2015, MaxMem=    33554432 cpu:         0.0
 (Enter /home/Applications/g09/g09/l303.exe)
 DipDrv:  MaxL=1.
 Leave Link  303 at Mon Nov 23 13:23:33 2015, MaxMem=    33554432 cpu:         0.0
 (Enter /home/Applications/g09/g09/l401.exe)
 Initial guess from the checkpoint file:  "/home/Applications/g09/scratch/Gau-4885.chk"
 B after Tr=     0.000000    0.000000    0.000000
         Rot=    0.966748    0.000188    0.000003    0.255730 Ang=  29.63 deg.
 Guess basis will be translated and rotated to current coordinates.
 JPrj=0 DoOrth=T DoCkMO=T.
 Leave Link  401 at Mon Nov 23 13:23:33 2015, MaxMem=    33554432 cpu:         0.0
 (Enter /home/Applications/g09/g09/l502.exe)
 Closed shell SCF:
 Using DIIS extrapolation, IDIIS=  1040.
 Overlap will be assumed to be unity.
 Two-electron integral symmetry not used.
 Keep J ints in memory in canonical form, NReq=888082.
 IVT=       79475 IEndB=       79475 NGot=    33554432 MDV=    33473473
 LenX=    33473473 LenY=    33472456
 Requested convergence on RMS density matrix=1.00D-08 within 128 cycles.
 Requested convergence on MAX density matrix=1.00D-06.
 Requested convergence on             energy=1.00D-06.
 No special actions if energy rises.
 FoFCou: FMM=F IPFlag=           0 FMFlag=           0 FMFlg1=           0
         NFxFlg=           0 DoJE=F BraDBF=F KetDBF=F FulRan=T
         wScrn=  0.000000 ICntrl=     600 IOpCl=  2 I1Cent=           0 NGrid=           0
         NMat0=    1 NMatS0=     54 NMatT0=    0 NMatD0=    1 NMtDS0=    0 NMtDT0=    0
 Symmetry not used in FoFCou.

 Cycle   1  Pass 1  IDiag  1:
 E= -2.20438155916995    
 DIIS: error= 1.25D-02 at cycle   1 NSaved=   1.
 NSaved= 1 IEnMin= 1 EnMin= -2.20438155916995     IErMin= 1 ErrMin= 1.25D-02
 ErrMax= 1.25D-02  0.00D+00 EMaxC= 1.00D-01 BMatC= 5.74D-03 BMatP= 5.74D-03
 IDIUse=3 WtCom= 8.75D-01 WtEn= 1.25D-01
 Coeff-Com:  0.100D+01
 Coeff-En:   0.100D+01
 Coeff:      0.100D+01
 GapD=    2.000 DampG=2.000 DampE=0.500 DampFc=1.0000 IDamp=-1.
 RMSDP=4.24D-03 MaxDP=1.67D-02              OVMax= 0.00D+00

 Cycle   2  Pass 1  IDiag  3:
 E= -2.21768566705990     Delta-E=       -0.013304107890 Rises=F Damp=F
 DIIS: error= 3.64D-03 at cycle   2 NSaved=   2.
 NSaved= 2 IEnMin= 2 EnMin= -2.21768566705990     IErMin= 2 ErrMin= 3.64D-03
 ErrMax= 3.64D-03  0.00D+00 EMaxC= 1.00D-01 BMatC= 4.74D-04 BMatP= 5.74D-03
 IDIUse=3 WtCom= 9.64D-01 WtEn= 3.64D-02
 Coeff-Com: -0.345D+00 0.135D+01
 Coeff-En:   0.000D+00 0.100D+01
 Coeff:     -0.333D+00 0.133D+01
 Gap=     0.499 Goal=   None    Shift=    0.000
 RMSDP=1.90D-03 MaxDP=8.02D-03 DE=-1.33D-02 OVMax= 8.88D-03

 Cycle   3  Pass 1  IDiag  3:
 E= -2.21921146475904     Delta-E=       -0.001525797699 Rises=F Damp=F
 DIIS: error= 4.42D-04 at cycle   3 NSaved=   3.
 NSaved= 3 IEnMin= 3 EnMin= -2.21921146475904     IErMin= 3 ErrMin= 4.42D-04
 ErrMax= 4.42D-04  0.00D+00 EMaxC= 1.00D-01 BMatC= 1.41D-05 BMatP= 4.74D-04
 IDIUse=3 WtCom= 9.96D-01 WtEn= 4.42D-03
 Coeff-Com:  0.765D-01-0.378D+00 0.130D+01
 Coeff-En:   0.000D+00 0.000D+00 0.100D+01
 Coeff:      0.762D-01-0.377D+00 0.130D+01
 Gap=     0.498 Goal=   None    Shift=    0.000
 RMSDP=4.44D-04 MaxDP=2.97D-03 DE=-1.53D-03 OVMax= 2.94D-03

 Cycle   4  Pass 1  IDiag  3:
 E= -2.21928390113449     Delta-E=       -0.000072436375 Rises=F Damp=F
 DIIS: error= 2.36D-04 at cycle   4 NSaved=   4.
 NSaved= 4 IEnMin= 4 EnMin= -2.21928390113449     IErMin= 4 ErrMin= 2.36D-04
 ErrMax= 2.36D-04  0.00D+00 EMaxC= 1.00D-01 BMatC= 2.29D-06 BMatP= 1.41D-05
 IDIUse=3 WtCom= 9.98D-01 WtEn= 2.36D-03
 Coeff-Com: -0.393D-02 0.454D-01-0.468D+00 0.143D+01
 Coeff-En:   0.000D+00 0.000D+00 0.000D+00 0.100D+01
 Coeff:     -0.392D-02 0.453D-01-0.467D+00 0.143D+01
 Gap=     0.498 Goal=   None    Shift=    0.000
 RMSDP=2.06D-04 MaxDP=1.65D-03 DE=-7.24D-05 OVMax= 1.80D-03

 Cycle   5  Pass 1  IDiag  3:
 E= -2.21929875360706     Delta-E=       -0.000014852473 Rises=F Damp=F
 DIIS: error= 1.43D-04 at cycle   5 NSaved=   5.
 NSaved= 5 IEnMin= 5 EnMin= -2.21929875360706     IErMin= 5 ErrMin= 1.43D-04
 ErrMax= 1.43D-04  0.00D+00 EMaxC= 1.00D-01 BMatC= 6.45D-07 BMatP= 2.29D-06
 IDIUse=3 WtCom= 9.99D-01 WtEn= 1.43D-03
 Coeff-Com: -0.957D-02 0.234D-01 0.254D+00-0.161D+01 0.234D+01
 Coeff-En:   0.000D+00 0.000D+00 0.000D+00 0.000D+00 0.100D+01
 Coeff:     -0.956D-02 0.234D-01 0.254D+00-0.161D+01 0.234D+01
 Gap=     0.498 Goal=   None    Shift=    0.000
 RMSDP=1.93D-04 MaxDP=1.54D-03 DE=-1.49D-05 OVMax= 1.67D-03

 Cycle   6  Pass 1  IDiag  3:
 E= -2.21930445191499     Delta-E=       -0.000005698308 Rises=F Damp=F
 DIIS: error= 2.57D-05 at cycle   6 NSaved=   6.
 NSaved= 6 IEnMin= 6 EnMin= -2.21930445191499     IErMin= 6 ErrMin= 2.57D-05
 ErrMax= 2.57D-05  0.00D+00 EMaxC= 1.00D-01 BMatC= 2.73D-08 BMatP= 6.45D-07
 IDIUse=1 WtCom= 1.00D+00 WtEn= 0.00D+00
 Coeff-Com:  0.517D-02-0.149D-01-0.103D+00 0.760D+00-0.128D+01 0.163D+01
 Coeff:      0.517D-02-0.149D-01-0.103D+00 0.760D+00-0.128D+01 0.163D+01
 Gap=     0.498 Goal=   None    Shift=    0.000
 RMSDP=3.37D-05 MaxDP=2.35D-04 DE=-5.70D-06 OVMax= 2.26D-04

 Cycle   7  Pass 1  IDiag  3:
 E= -2.21930463404090     Delta-E=       -0.000000182126 Rises=F Damp=F
 DIIS: error= 3.84D-06 at cycle   7 NSaved=   7.
 NSaved= 7 IEnMin= 7 EnMin= -2.21930463404090     IErMin= 7 ErrMin= 3.84D-06
 ErrMax= 3.84D-06  0.00D+00 EMaxC= 1.00D-01 BMatC= 6.65D-10 BMatP= 2.73D-08
 IDIUse=1 WtCom= 1.00D+00 WtEn= 0.00D+00
 Coeff-Com: -0.200D-02 0.595D-02 0.358D-01-0.276D+00 0.475D+00-0.687D+00
 Coeff-Com:  0.145D+01
 Coeff:     -0.200D-02 0.595D-02 0.358D-01-0.276D+00 0.475D+00-0.687D+00
 Coeff:      0.145D+01
 Gap=     0.498 Goal=   None    Shift=    0.000
 RMSDP=3.38D-06 MaxDP=1.91D-05 DE=-1.82D-07 OVMax= 1.98D-05

 Cycle   8  Pass 1  IDiag  3:
 E= -2.21930463736685     Delta-E=       -0.000000003326 Rises=F Damp=F
 DIIS: error= 1.23D-06 at cycle   8 NSaved=   8.
 NSaved= 8 IEnMin= 8 EnMin= -2.21930463736685     IErMin= 8 ErrMin= 1.23D-06
 ErrMax= 1.23D-06  0.00D+00 EMaxC= 1.00D-01 BMatC= 5.61D-11 BMatP= 6.65D-10
 IDIUse=1 WtCom= 1.00D+00 WtEn= 0.00D+00
 Coeff-Com:  0.836D-03-0.239D-02-0.168D-01 0.124D+00-0.212D+00 0.311D+00
 Coeff-Com: -0.818D+00 0.161D+01
 Coeff:      0.836D-03-0.239D-02-0.168D-01 0.124D+00-0.212D+00 0.311D+00
 Coeff:     -0.818D+00 0.161D+01
 Gap=     0.498 Goal=   None    Shift=    0.000
 RMSDP=1.05D-06 MaxDP=6.05D-06 DE=-3.33D-09 OVMax= 8.59D-06

 Cycle   9  Pass 1  IDiag  3:
 E= -2.21930463768392     Delta-E=       -0.000000000317 Rises=F Damp=F
 DIIS: error= 3.44D-07 at cycle   9 NSaved=   9.
 NSaved= 9 IEnMin= 9 EnMin= -2.21930463768392     IErMin= 9 ErrMin= 3.44D-07
 ErrMax= 3.44D-07  0.00D+00 EMaxC= 1.00D-01 BMatC= 5.09D-12 BMatP= 5.61D-11
 IDIUse=1 WtCom= 1.00D+00 WtEn= 0.00D+00
 Coeff-Com: -0.250D-03 0.698D-03 0.522D-02-0.378D-01 0.642D-01-0.949D-01
 Coeff-Com:  0.283D+00-0.848D+00 0.163D+01
 Coeff:     -0.250D-03 0.698D-03 0.522D-02-0.378D-01 0.642D-01-0.949D-01
 Coeff:      0.283D+00-0.848D+00 0.163D+01
 Gap=     0.498 Goal=   None    Shift=    0.000
 RMSDP=3.77D-07 MaxDP=2.51D-06 DE=-3.17D-10 OVMax= 3.25D-06

 Cycle  10  Pass 1  IDiag  3:
 E= -2.21930463771476     Delta-E=       -0.000000000031 Rises=F Damp=F
 DIIS: error= 4.97D-08 at cycle  10 NSaved=  10.
 NSaved=10 IEnMin=10 EnMin= -2.21930463771476     IErMin=10 ErrMin= 4.97D-08
 ErrMax= 4.97D-08  0.00D+00 EMaxC= 1.00D-01 BMatC= 1.54D-13 BMatP= 5.09D-12
 IDIUse=1 WtCom= 1.00D+00 WtEn= 0.00D+00
 Coeff-Com:  0.594D-04-0.159D-03-0.136D-02 0.948D-02-0.159D-01 0.234D-01
 Coeff-Com: -0.729D-01 0.246D+00-0.611D+00 0.142D+01
 Coeff:      0.594D-04-0.159D-03-0.136D-02 0.948D-02-0.159D-01 0.234D-01
 Coeff:     -0.729D-01 0.246D+00-0.611D+00 0.142D+01
 Gap=     0.498 Goal=   None    Shift=    0.000
 RMSDP=5.91D-08 MaxDP=2.96D-07 DE=-3.08D-11 OVMax= 4.00D-07

 Cycle  11  Pass 1  IDiag  3:
 E= -2.21930463771560     Delta-E=       -0.000000000001 Rises=F Damp=F
 DIIS: error= 5.51D-09 at cycle  11 NSaved=  11.
 NSaved=11 IEnMin=11 EnMin= -2.21930463771560     IErMin=11 ErrMin= 5.51D-09
 ErrMax= 5.51D-09  0.00D+00 EMaxC= 1.00D-01 BMatC= 3.38D-15 BMatP= 1.54D-13
 IDIUse=1 WtCom= 1.00D+00 WtEn= 0.00D+00
 Coeff-Com: -0.949D-05 0.240D-04 0.241D-03-0.161D-02 0.267D-02-0.387D-02
 Coeff-Com:  0.121D-01-0.429D-01 0.121D+00-0.398D+00 0.131D+01
 Coeff:     -0.949D-05 0.240D-04 0.241D-03-0.161D-02 0.267D-02-0.387D-02
 Coeff:      0.121D-01-0.429D-01 0.121D+00-0.398D+00 0.131D+01
 Gap=     0.498 Goal=   None    Shift=    0.000
 RMSDP=7.45D-09 MaxDP=2.66D-08 DE=-8.38D-13 OVMax= 3.84D-08

 Cycle  12  Pass 2  IDiag  1:
 SCF Done:  E(RAM1) =  -2.21930463772     A.U. after   12 cycles
            NFock= 11  Conv=0.75D-08     -V/T= 0.8774
 KE=-1.810173184249D+01 PE=-1.688844559955D+02 EE= 8.404655945824D+01
 Leave Link  502 at Mon Nov 23 13:23:33 2015, MaxMem=    33554432 cpu:         0.0
 (Enter /home/Applications/g09/g09/l701.exe)
 Compute integral first derivatives.
 ... and contract with generalized density number  0.
 Leave Link  701 at Mon Nov 23 13:23:33 2015, MaxMem=    33554432 cpu:         0.0
 (Enter /home/Applications/g09/g09/l702.exe)
 L702 exits ... SP integral derivatives will be done elsewhere.
 Leave Link  702 at Mon Nov 23 13:23:33 2015, MaxMem=    33554432 cpu:         0.0
 (Enter /home/Applications/g09/g09/l703.exe)
 Compute integral first derivatives, UseDBF=F ICtDFT=           0.
 Integral derivatives from FoFJK, PRISM(SPDF).
 Calling FoFJK, ICntrl=      2127 FMM=F ISym2X=0 I1Cent= 0 IOpClX= 0 NMat=1 NMatS=1 NMatT=0.
 FoFJK:  IHMeth= 8 ICntrl=    2127 DoSepK=F KAlg= 0 I1Cent=   0 FoldK=F
 IRaf=         0 NMat=   1 IRICut=       1 DoRegI=T DoRafI=F ISym2E= 0.
 FoFCou: FMM=F IPFlag=           0 FMFlag=      100000 FMFlg1=         800
         NFxFlg=           0 DoJE=F BraDBF=F KetDBF=F FulRan=T
         wScrn=  0.000000 ICntrl=    2127 IOpCl=  0 I1Cent=           0 NGrid=           0
         NMat0=    1 NMatS0=      1 NMatT0=    0 NMatD0=    1 NMtDS0=    0 NMtDT0=    0
 Symmetry not used in FoFCou.
 Leave Link  703 at Mon Nov 23 13:23:33 2015, MaxMem=    33554432 cpu:         0.0
 (Enter /home/Applications/g09/g09/l716.exe)
 Dipole        =-6.19214445D-02-3.27587551D-01-7.64347029D-03
 ***** Axes restored to original set *****
 -------------------------------------------------------------------
 Center     Atomic                   Forces (Hartrees/Bohr)
 Number     Number              X              Y              Z
 -------------------------------------------------------------------
      1        6          -0.029323551    0.012621851   -0.008138827
      2        6           0.004582625    0.007132335    0.000026981
      3        8           0.037928721    0.011939317   -0.001975376
      4        6          -0.027663208   -0.030016684    0.009106369
      5        6           0.008671837   -0.010025986    0.000231584
      6        1          -0.001929902   -0.000113157    0.001641720
      7        1           0.006112003   -0.002600062   -0.005087629
      8        1           0.003019311    0.008436234    0.002669936
      9        1          -0.001397838    0.002626153    0.001525242
 -------------------------------------------------------------------
 Cartesian Forces:  Max     0.037928721 RMS     0.013391970
 Leave Link  716 at Mon Nov 23 13:23:33 2015, MaxMem=    33554432 cpu:         0.0
 (Enter /home/Applications/g09/g09/l103.exe)

 GradGradGradGradGradGradGradGradGradGradGradGradGradGradGradGradGradGrad
 Berny optimization.
 Using GEDIIS/GDIIS optimizer.
 FormGI is forming the generalized inverse of G from B-inverse, IUseBI=4.
 Internal  Forces:  Max     0.033962281 RMS     0.008496651
 Search for a local minimum.
 Step number   2 out of a maximum of   48
 All quantities printed in internal units (Hartrees-Bohrs-Radians)
 RMS Force = .84967D-02 SwitMx=.10000D-02 MixMth= 1
 Mixed Optimization -- RFO/linear search
 Update second derivatives using D2CorX and points    1    2
 DE= -2.04D-02 DEPred=-2.93D-02 R= 6.97D-01
 TightC=F SS=  1.41D+00  RLast= 3.96D-01 DXNew= 5.0454D-01 1.1882D+00
 Trust test= 6.97D-01 RLast= 3.96D-01 DXMaxT set to 5.05D-01
 ITU=  1  0
 Use linear search instead of GDIIS.
     Eigenvalues ---    0.02340   0.02464   0.02785   0.02861   0.03094
     Eigenvalues ---    0.03232   0.15730   0.15970   0.15996   0.16058
     Eigenvalues ---    0.21980   0.22961   0.30654   0.37988   0.39075
     Eigenvalues ---    0.40626   0.41183   0.44702   0.54881   0.61212
     Eigenvalues ---    0.78555
 RFO step:  Lambda=-4.22696627D-03 EMin= 2.34043972D-02
 Quartic linear search produced a step of -0.14737.
 Iteration  1 RMS(Cart)=  0.02144899 RMS(Int)=  0.00062751
 Iteration  2 RMS(Cart)=  0.00050320 RMS(Int)=  0.00042342
 Iteration  3 RMS(Cart)=  0.00000024 RMS(Int)=  0.00042342
 ITry= 1 IFail=0 DXMaxC= 5.19D-02 DCOld= 1.00D+10 DXMaxT= 5.05D-01 DXLimC= 3.00D+00 Rises=F
 Variable       Old X    -DE/DX   Delta X   Delta X   Delta X     New X
                                 (Linear)    (Quad)   (Total)
    R1        2.61824  -0.02230  -0.01212  -0.01557  -0.02766   2.59058
    R2        2.69952  -0.01785  -0.00500  -0.02498  -0.02984   2.66968
    R3        2.03785  -0.00267  -0.01110   0.01157   0.00047   2.03832
    R4        2.62767  -0.01957  -0.02139   0.00488  -0.01663   2.61104
    R5        2.06399  -0.00904  -0.00731  -0.00894  -0.01625   2.04773
    R6        2.68658  -0.03396  -0.00506  -0.05614  -0.06131   2.62527
    R7        2.57012  -0.00370  -0.02095   0.02860   0.00770   2.57782
    R8        2.04999  -0.00536  -0.00801   0.00072  -0.00729   2.04270
    R9        2.04505  -0.00169   0.01207  -0.02319  -0.01111   2.03393
    A1        1.83168   0.00463   0.00064   0.01831   0.01891   1.85058
    A2        2.23986  -0.00094  -0.00455   0.00576   0.00051   2.24037
    A3        2.21061  -0.00359   0.00406  -0.02181  -0.01844   2.19217
    A4        1.95340  -0.00296  -0.00252  -0.01314  -0.01505   1.93835
    A5        2.25832   0.00203   0.00473   0.00292   0.00797   2.26628
    A6        2.07105   0.00094  -0.00449   0.01167   0.00750   2.07855
    A7        1.82535   0.00552   0.00381   0.00679   0.01071   1.83606
    A8        1.91511   0.00096  -0.00178   0.01073   0.00867   1.92377
    A9        2.02764   0.00374  -0.00461   0.02698   0.02174   2.04937
   A10        2.33626  -0.00450   0.00563  -0.03166  -0.02671   2.30955
   A11        1.89891  -0.00810  -0.00109  -0.02239  -0.02293   1.87599
   A12        2.15104   0.00501   0.00290   0.01216   0.01492   2.16596
   A13        2.23305   0.00308  -0.00224   0.01027   0.00786   2.24091
    D1       -0.02534   0.00190   0.02026   0.01135   0.03194   0.00661
    D2        3.08426   0.00214  -0.00458   0.06687   0.06296  -3.13597
    D3       -3.12010  -0.00034   0.01311  -0.03906  -0.02649   3.13660
    D4       -0.01051  -0.00009  -0.01173   0.01645   0.00453  -0.00598
    D5        0.01970  -0.00147  -0.01628  -0.00782  -0.02406  -0.00436
    D6       -3.10290  -0.00095  -0.00742  -0.00990  -0.01756  -3.12046
    D7        3.11551   0.00080  -0.00928   0.04243   0.03291  -3.13476
    D8       -0.00709   0.00132  -0.00042   0.04035   0.03941   0.03232
    D9        0.02090  -0.00159  -0.01642  -0.01047  -0.02707  -0.00617
   D10       -3.09251  -0.00183   0.00431  -0.05925  -0.05439   3.13628
   D11       -0.00766   0.00060   0.00555   0.00500   0.01093   0.00327
   D12       -3.06477  -0.00115   0.01114  -0.05393  -0.04400  -3.10877
   D13       -0.00757   0.00057   0.00675   0.00185   0.00823   0.00066
   D14        3.11388   0.00003  -0.00235   0.00406   0.00144   3.11532
   D15        3.02880   0.00341  -0.00146   0.07997   0.07796   3.10676
   D16       -0.13293   0.00287  -0.01056   0.08217   0.07117  -0.06176
         Item               Value     Threshold  Converged?
 Maximum Force            0.033962     0.000450     NO 
 RMS     Force            0.008497     0.000300     NO 
 Maximum Displacement     0.051936     0.001800     NO 
 RMS     Displacement     0.021561     0.001200     NO 
 Predicted change in Energy=-2.836262D-03
 Lowest energy point so far.  Saving SCF results.
 GradGradGradGradGradGradGradGradGradGradGradGradGradGradGradGradGradGrad

 Leave Link  103 at Mon Nov 23 13:23:33 2015, MaxMem=    33554432 cpu:         0.0
 (Enter /home/Applications/g09/g09/l202.exe)
                          Input orientation:                          
 ---------------------------------------------------------------------
 Center     Atomic      Atomic             Coordinates (Angstroms)
 Number     Number       Type             X           Y           Z
 ---------------------------------------------------------------------
      1          6           0        0.949757   -0.699552   -0.005121
      2          6           0       -0.364185   -1.090384   -0.015323
      3          8           0       -1.207687    0.003966   -0.017725
      4          6           0       -0.368311    1.110816   -0.000288
      5          6           0        0.936507    0.713056    0.008119
      6          1           0        1.821936    1.324926   -0.000553
      7          1           0       -0.831983    2.086720    0.032449
      8          1           0       -0.792483   -2.085741   -0.022143
      9          1           0        1.832504   -1.319337    0.003238
 ---------------------------------------------------------------------
                    Distance matrix (angstroms):
                    1          2          3          4          5
     1  C    0.000000
     2  C    1.370874   0.000000
     3  O    2.269286   1.381703   0.000000
     4  C    2.239366   2.201256   1.389235   0.000000
     5  C    1.412732   2.223679   2.258549   1.364124   0.000000
     6  H    2.204367   3.257771   3.305124   2.200687   1.076311
     7  H    3.307464   3.211714   2.116963   1.080949   2.239443
     8  H    2.226478   1.083614   2.130561   3.224651   3.289922
     9  H    1.078631   2.208666   3.315770   3.278604   2.221138
                    6          7          8          9
     6  H    0.000000
     7  H    2.761287   0.000000
     8  H    4.297476   4.173004   0.000000
     9  H    2.644287   4.324531   2.734698   0.000000
 Stoichiometry    C4H4O
 Framework group  C1[X(C4H4O)]
 Deg. of freedom    21
 Full point group                 C1      NOp   1
 RotChk:  IX=0 Diff= 6.69D-02
 Largest Abelian subgroup         C1      NOp   1
 Largest concise Abelian subgroup C1      NOp   1
                         Standard orientation:                         
 ---------------------------------------------------------------------
 Center     Atomic      Atomic             Coordinates (Angstroms)
 Number     Number       Type             X           Y           Z
 ---------------------------------------------------------------------
      1          6           0        0.888313    0.805948   -0.000228
      2          6           0        1.004391   -0.560002    0.001571
      3          8           0       -0.238340   -1.163900   -0.004037
      4          6           0       -1.151884   -0.117284   -0.001220
      5          6           0       -0.497640    1.079708    0.001642
      6          1           0       -0.916998    2.070768   -0.017943
      7          1           0       -2.201776   -0.373011    0.026716
      8          1           0        1.892126   -1.181394    0.005704
      9          1           0        1.674291    1.544614    0.007224
 ---------------------------------------------------------------------
 Rotational constants (GHZ):      9.4777792      9.0548651      4.6308693
 Leave Link  202 at Mon Nov 23 13:23:33 2015, MaxMem=    33554432 cpu:         0.0
 (Enter /home/Applications/g09/g09/l301.exe)

 Semi-emprical parameters in input format:
 Method=8 CoreType=1 PeptideFC=0.0166290000 RIJScale=0.6119410000
 ****
 H       
 PQN=1 NValence=1 F0ss=0.4150770000 ZetaOverlap=1.0810580000 U=-0.4286880000
 Beta=-0.2869890000 CoreKO=1.2114800000 KON=0,0,0,1.1025190000 KON=1,0,1,1.1074920000
 KON=0,1,1,1.0916540000 KON=2,1,1,1.0589200000 EISol=-0.4188110042 EHeat=0.0830298228
 Alpha=1.5030030000
 GCore=0.0071120000,1.1207970000,2.7005670000
 GCore=0.0003230000,1.4222460000,3.4015070000
 GCore=-0.0013380000,0.4405990000,4.4481290000
 ****
 C       
 PQN=2,2 NValence=4 F0ss=0.4202500000 F0sp=0.4263690000 F0pp=0.3424460000 F2pp=0.1977130000
 G1sp=0.2746580000
 ZetaOverlap=1.7498310000,1.3881390000
 U=-1.7944250000,-1.4545000000
 Beta=-0.5214990000,-0.3746580000 DDN=0,1,0.8234340000 DDN=1,1,0.7559950000
 CoreKO=1.2002200000 KON=0,0,0,1.1694410000 KON=1,0,1,0.9096420000 KON=0,1,1,0.9370920000
 KON=2,1,1,0.5201690000 EISol=-4.4398989268 EHeat=0.2723305520 Alpha=1.3947510000
 DipHyp=1.6467732542
 GCore=0.0008780000,1.2683970000,2.4090670000
 GCore=0.0034720000,1.4096270000,3.6574610000
 GCore=-0.0014060000,1.4542400000,3.3154880000
 GCore=-0.0001000000,1.4766960000,5.0661660000
 ****
 O       
 PQN=2,2 NValence=6 F0ss=0.5672460000 F0sp=0.5681160000 F0pp=0.4898210000 F2pp=0.2703590000
 G1sp=0.4169050000
 ZetaOverlap=2.7263600000,1.8505270000
 U=-3.5241930000,-3.0238760000
 Beta=-0.9772650000,-1.1886600000 DDN=0,1,0.5807610000 DDN=1,1,0.4521100000
 CoreKO=0.9925760000 KON=0,0,0,0.8355350000 KON=1,0,1,0.5454830000 KON=0,1,1,0.8378550000
 KON=2,1,1,0.5017630000 EISol=-11.6164441184 EHeat=0.0949133088 Alpha=2.2627970000
 DipHyp=1.1614551766
 GCore=0.0225710000,1.2849200000,1.7519400000
 GCore=0.0054870000,1.7991710000,2.8334770000
 ****
 
 Standard basis: VSTO-6G (5D, 7F)
 Ernie: Thresh=  0.10000D-02 Tol=  0.10000D-05 Strict=F.
  NNHCO=     0 NNPyr=     0 NCTC=     0               EPep=         0.000000000
    EC=        66.467117709  ECS=         1.756506526   EG=         0.405561570
   EHC=         0.000000000  EAt=       -31.051283842  AtH=         1.516354808
 EPDDG=         0.000000000  ECC=        68.629185805 EAtT=        32.567638650
 There are    24 symmetry adapted cartesian basis functions of A   symmetry.
 There are    24 symmetry adapted basis functions of A   symmetry.
    24 basis functions,   144 primitive gaussians,    24 cartesian basis functions
    13 alpha electrons       13 beta electrons
       nuclear repulsion energy       101.1968244551 Hartrees.
 IExCor=    0 DFT=F Ex=HF Corr=None ExCW=0 ScaHFX=  1.000000
 ScaDFX=  1.000000  1.000000  1.000000  1.000000 ScalE2=  1.000000  1.000000
 IRadAn=      0 IRanWt=     -1 IRanGd=            0 ICorTp=0 IEmpDi=  4
 Integral buffers will be    131072 words long.
 Regular integral format.
 Two-electron integral symmetry is turned off.
 Leave Link  301 at Mon Nov 23 13:23:33 2015, MaxMem=    33554432 cpu:         0.0
 (Enter /home/Applications/g09/g09/l302.exe)
 Do NDO integrals.
 NPDir=0 NMtPBC=     1 NCelOv=     1 NCel=       1 NClECP=     1 NCelD=      1
         NCelK=      1 NCelE2=     1 NClLst=     1 CellRange=     0.0.
 One-electron integrals computed using PRISM.
 NBasis=    24 RedAO= F EigKep=  0.00D+00  NBF=    24
 NBsUse=    24 1.00D-04 EigRej=  0.00D+00 NBFU=    24
 Leave Link  302 at Mon Nov 23 13:23:33 2015, MaxMem=    33554432 cpu:         0.0
 (Enter /home/Applications/g09/g09/l303.exe)
 DipDrv:  MaxL=1.
 Leave Link  303 at Mon Nov 23 13:23:33 2015, MaxMem=    33554432 cpu:         0.0
 (Enter /home/Applications/g09/g09/l401.exe)
 Initial guess from the checkpoint file:  "/home/Applications/g09/scratch/Gau-4885.chk"
 B after Tr=     0.000000    0.000000    0.000000
         Rot=    0.999729   -0.000004    0.000020   -0.023282 Ang=  -2.67 deg.
 Guess basis will be translated and rotated to current coordinates.
 JPrj=0 DoOrth=T DoCkMO=T.
 Leave Link  401 at Mon Nov 23 13:23:33 2015, MaxMem=    33554432 cpu:         0.0
 (Enter /home/Applications/g09/g09/l502.exe)
 Closed shell SCF:
 Using DIIS extrapolation, IDIIS=  1040.
 Overlap will be assumed to be unity.
 Two-electron integral symmetry not used.
 Keep J ints in memory in canonical form, NReq=888082.
 IVT=       79475 IEndB=       79475 NGot=    33554432 MDV=    33473473
 LenX=    33473473 LenY=    33472456
 Requested convergence on RMS density matrix=1.00D-08 within 128 cycles.
 Requested convergence on MAX density matrix=1.00D-06.
 Requested convergence on             energy=1.00D-06.
 No special actions if energy rises.
 FoFCou: FMM=F IPFlag=           0 FMFlag=           0 FMFlg1=           0
         NFxFlg=           0 DoJE=F BraDBF=F KetDBF=F FulRan=T
         wScrn=  0.000000 ICntrl=     600 IOpCl=  2 I1Cent=           0 NGrid=           0
         NMat0=    1 NMatS0=     54 NMatT0=    0 NMatD0=    1 NMtDS0=    0 NMtDT0=    0
 Symmetry not used in FoFCou.

 Cycle   1  Pass 1  IDiag  1:
 E= -2.22036405265175    
 DIIS: error= 3.49D-03 at cycle   1 NSaved=   1.
 NSaved= 1 IEnMin= 1 EnMin= -2.22036405265175     IErMin= 1 ErrMin= 3.49D-03
 ErrMax= 3.49D-03  0.00D+00 EMaxC= 1.00D-01 BMatC= 7.40D-04 BMatP= 7.40D-04
 IDIUse=3 WtCom= 9.65D-01 WtEn= 3.49D-02
 Coeff-Com:  0.100D+01
 Coeff-En:   0.100D+01
 Coeff:      0.100D+01
 GapD=    2.000 DampG=2.000 DampE=1.000 DampFc=2.0000 IDamp=-1.
 RMSDP=1.64D-03 MaxDP=6.88D-03              OVMax= 0.00D+00

 Cycle   2  Pass 1  IDiag  3:
 E= -2.22219459096354     Delta-E=       -0.001830538312 Rises=F Damp=F
 DIIS: error= 1.09D-03 at cycle   2 NSaved=   2.
 NSaved= 2 IEnMin= 2 EnMin= -2.22219459096354     IErMin= 2 ErrMin= 1.09D-03
 ErrMax= 1.09D-03  0.00D+00 EMaxC= 1.00D-01 BMatC= 6.34D-05 BMatP= 7.40D-04
 IDIUse=3 WtCom= 9.89D-01 WtEn= 1.09D-02
 Coeff-Com: -0.346D+00 0.135D+01
 Coeff-En:   0.000D+00 0.100D+01
 Coeff:     -0.342D+00 0.134D+01
 Gap=     0.504 Goal=   None    Shift=    0.000
 RMSDP=7.67D-04 MaxDP=3.63D-03 DE=-1.83D-03 OVMax= 5.28D-03

 Cycle   3  Pass 1  IDiag  3:
 E= -2.22242202303862     Delta-E=       -0.000227432075 Rises=F Damp=F
 DIIS: error= 2.25D-04 at cycle   3 NSaved=   3.
 NSaved= 3 IEnMin= 3 EnMin= -2.22242202303862     IErMin= 3 ErrMin= 2.25D-04
 ErrMax= 2.25D-04  0.00D+00 EMaxC= 1.00D-01 BMatC= 2.59D-06 BMatP= 6.34D-05
 IDIUse=3 WtCom= 9.98D-01 WtEn= 2.25D-03
 Coeff-Com:  0.789D-01-0.387D+00 0.131D+01
 Coeff-En:   0.000D+00 0.000D+00 0.100D+01
 Coeff:      0.787D-01-0.387D+00 0.131D+01
 Gap=     0.504 Goal=   None    Shift=    0.000
 RMSDP=2.04D-04 MaxDP=1.58D-03 DE=-2.27D-04 OVMax= 1.49D-03

 Cycle   4  Pass 1  IDiag  3:
 E= -2.22243674309591     Delta-E=       -0.000014720057 Rises=F Damp=F
 DIIS: error= 1.22D-04 at cycle   4 NSaved=   4.
 NSaved= 4 IEnMin= 4 EnMin= -2.22243674309591     IErMin= 4 ErrMin= 1.22D-04
 ErrMax= 1.22D-04  0.00D+00 EMaxC= 1.00D-01 BMatC= 5.17D-07 BMatP= 2.59D-06
 IDIUse=3 WtCom= 9.99D-01 WtEn= 1.22D-03
 Coeff-Com: -0.732D-02 0.695D-01-0.649D+00 0.159D+01
 Coeff-En:   0.000D+00 0.000D+00 0.000D+00 0.100D+01
 Coeff:     -0.731D-02 0.694D-01-0.649D+00 0.159D+01
 Gap=     0.504 Goal=   None    Shift=    0.000
 RMSDP=1.14D-04 MaxDP=9.83D-04 DE=-1.47D-05 OVMax= 9.58D-04

 Cycle   5  Pass 1  IDiag  3:
 E= -2.22244039095000     Delta-E=       -0.000003647854 Rises=F Damp=F
 DIIS: error= 6.16D-05 at cycle   5 NSaved=   5.
 NSaved= 5 IEnMin= 5 EnMin= -2.22244039095000     IErMin= 5 ErrMin= 6.16D-05
 ErrMax= 6.16D-05  0.00D+00 EMaxC= 1.00D-01 BMatC= 1.15D-07 BMatP= 5.17D-07
 IDIUse=1 WtCom= 1.00D+00 WtEn= 0.00D+00
 Coeff-Com: -0.759D-02 0.926D-02 0.381D+00-0.157D+01 0.218D+01
 Coeff:     -0.759D-02 0.926D-02 0.381D+00-0.157D+01 0.218D+01
 Gap=     0.504 Goal=   None    Shift=    0.000
 RMSDP=7.79D-05 MaxDP=6.31D-04 DE=-3.65D-06 OVMax= 6.34D-04

 Cycle   6  Pass 1  IDiag  3:
 E= -2.22244137504852     Delta-E=       -0.000000984099 Rises=F Damp=F
 DIIS: error= 1.22D-05 at cycle   6 NSaved=   6.
 NSaved= 6 IEnMin= 6 EnMin= -2.22244137504852     IErMin= 6 ErrMin= 1.22D-05
 ErrMax= 1.22D-05  0.00D+00 EMaxC= 1.00D-01 BMatC= 6.41D-09 BMatP= 1.15D-07
 IDIUse=1 WtCom= 1.00D+00 WtEn= 0.00D+00
 Coeff-Com:  0.519D-02-0.115D-01-0.168D+00 0.792D+00-0.131D+01 0.170D+01
 Coeff:      0.519D-02-0.115D-01-0.168D+00 0.792D+00-0.131D+01 0.170D+01
 Gap=     0.504 Goal=   None    Shift=    0.000
 RMSDP=1.66D-05 MaxDP=1.19D-04 DE=-9.84D-07 OVMax= 1.10D-04

 Cycle   7  Pass 1  IDiag  3:
 E= -2.22244142054069     Delta-E=       -0.000000045492 Rises=F Damp=F
 DIIS: error= 2.21D-06 at cycle   7 NSaved=   7.
 NSaved= 7 IEnMin= 7 EnMin= -2.22244142054069     IErMin= 7 ErrMin= 2.21D-06
 ErrMax= 2.21D-06  0.00D+00 EMaxC= 1.00D-01 BMatC= 2.43D-10 BMatP= 6.41D-09
 IDIUse=1 WtCom= 1.00D+00 WtEn= 0.00D+00
 Coeff-Com: -0.249D-02 0.554D-02 0.829D-01-0.393D+00 0.664D+00-0.952D+00
 Coeff-Com:  0.159D+01
 Coeff:     -0.249D-02 0.554D-02 0.829D-01-0.393D+00 0.664D+00-0.952D+00
 Coeff:      0.159D+01
 Gap=     0.504 Goal=   None    Shift=    0.000
 RMSDP=2.45D-06 MaxDP=1.89D-05 DE=-4.55D-08 OVMax= 2.37D-05

 Cycle   8  Pass 1  IDiag  3:
 E= -2.22244142204507     Delta-E=       -0.000000001504 Rises=F Damp=F
 DIIS: error= 7.41D-07 at cycle   8 NSaved=   8.
 NSaved= 8 IEnMin= 8 EnMin= -2.22244142204507     IErMin= 8 ErrMin= 7.41D-07
 ErrMax= 7.41D-07  0.00D+00 EMaxC= 1.00D-01 BMatC= 2.50D-11 BMatP= 2.43D-10
 IDIUse=1 WtCom= 1.00D+00 WtEn= 0.00D+00
 Coeff-Com:  0.181D-02-0.426D-02-0.548D-01 0.265D+00-0.452D+00 0.662D+00
 Coeff-Com: -0.131D+01 0.190D+01
 Coeff:      0.181D-02-0.426D-02-0.548D-01 0.265D+00-0.452D+00 0.662D+00
 Coeff:     -0.131D+01 0.190D+01
 Gap=     0.504 Goal=   None    Shift=    0.000
 RMSDP=8.83D-07 MaxDP=6.58D-06 DE=-1.50D-09 OVMax= 7.64D-06

 Cycle   9  Pass 1  IDiag  3:
 E= -2.22244142220129     Delta-E=       -0.000000000156 Rises=F Damp=F
 DIIS: error= 1.49D-07 at cycle   9 NSaved=   9.
 NSaved= 9 IEnMin= 9 EnMin= -2.22244142220129     IErMin= 9 ErrMin= 1.49D-07
 ErrMax= 1.49D-07  0.00D+00 EMaxC= 1.00D-01 BMatC= 8.87D-13 BMatP= 2.50D-11
 IDIUse=1 WtCom= 1.00D+00 WtEn= 0.00D+00
 Coeff-Com: -0.677D-03 0.158D-02 0.207D-01-0.100D+00 0.171D+00-0.251D+00
 Coeff-Com:  0.515D+00-0.879D+00 0.152D+01
 Coeff:     -0.677D-03 0.158D-02 0.207D-01-0.100D+00 0.171D+00-0.251D+00
 Coeff:      0.515D+00-0.879D+00 0.152D+01
 Gap=     0.504 Goal=   None    Shift=    0.000
 RMSDP=1.40D-07 MaxDP=8.95D-07 DE=-1.56D-10 OVMax= 7.27D-07

 Cycle  10  Pass 1  IDiag  3:
 E= -2.22244142220610     Delta-E=       -0.000000000005 Rises=F Damp=F
 DIIS: error= 2.29D-08 at cycle  10 NSaved=  10.
 NSaved=10 IEnMin=10 EnMin= -2.22244142220610     IErMin=10 ErrMin= 2.29D-08
 ErrMax= 2.29D-08  0.00D+00 EMaxC= 1.00D-01 BMatC= 2.19D-14 BMatP= 8.87D-13
 IDIUse=1 WtCom= 1.00D+00 WtEn= 0.00D+00
 Coeff-Com:  0.100D-03-0.238D-03-0.300D-02 0.146D-01-0.250D-01 0.369D-01
 Coeff-Com: -0.775D-01 0.146D+00-0.377D+00 0.128D+01
 Coeff:      0.100D-03-0.238D-03-0.300D-02 0.146D-01-0.250D-01 0.369D-01
 Coeff:     -0.775D-01 0.146D+00-0.377D+00 0.128D+01
 Gap=     0.504 Goal=   None    Shift=    0.000
 RMSDP=1.85D-08 MaxDP=1.02D-07 DE=-4.82D-12 OVMax= 1.13D-07

 Cycle  11  Pass 1  IDiag  3:
 E= -2.22244142220626     Delta-E=        0.000000000000 Rises=F Damp=F
 DIIS: error= 4.02D-09 at cycle  11 NSaved=  11.
 NSaved=11 IEnMin=11 EnMin= -2.22244142220626     IErMin=11 ErrMin= 4.02D-09
 ErrMax= 4.02D-09  0.00D+00 EMaxC= 1.00D-01 BMatC= 8.70D-16 BMatP= 2.19D-14
 IDIUse=1 WtCom= 1.00D+00 WtEn= 0.00D+00
 Coeff-Com: -0.252D-06 0.148D-05-0.136D-04 0.300D-04-0.230D-04-0.516D-04
 Coeff-Com:  0.602D-03-0.470D-02 0.432D-01-0.365D+00 0.133D+01
 Coeff:     -0.252D-06 0.148D-05-0.136D-04 0.300D-04-0.230D-04-0.516D-04
 Coeff:      0.602D-03-0.470D-02 0.432D-01-0.365D+00 0.133D+01
 Gap=     0.504 Goal=   None    Shift=    0.000
 RMSDP=3.87D-09 MaxDP=1.63D-08 DE=-1.56D-13 OVMax= 2.47D-08

 Cycle  12  Pass 2  IDiag  1:
 SCF Done:  E(RAM1) =  -2.22244142221     A.U. after   12 cycles
            NFock= 11  Conv=0.39D-08     -V/T= 0.8777
 KE=-1.817271552646D+01 PE=-1.696807306334D+02 EE= 8.443418028256D+01
 Leave Link  502 at Mon Nov 23 13:23:33 2015, MaxMem=    33554432 cpu:         0.0
 (Enter /home/Applications/g09/g09/l701.exe)
 Compute integral first derivatives.
 ... and contract with generalized density number  0.
 Leave Link  701 at Mon Nov 23 13:23:33 2015, MaxMem=    33554432 cpu:         0.0
 (Enter /home/Applications/g09/g09/l702.exe)
 L702 exits ... SP integral derivatives will be done elsewhere.
 Leave Link  702 at Mon Nov 23 13:23:33 2015, MaxMem=    33554432 cpu:         0.0
 (Enter /home/Applications/g09/g09/l703.exe)
 Compute integral first derivatives, UseDBF=F ICtDFT=           0.
 Integral derivatives from FoFJK, PRISM(SPDF).
 Calling FoFJK, ICntrl=      2127 FMM=F ISym2X=0 I1Cent= 0 IOpClX= 0 NMat=1 NMatS=1 NMatT=0.
 FoFJK:  IHMeth= 8 ICntrl=    2127 DoSepK=F KAlg= 0 I1Cent=   0 FoldK=F
 IRaf=         0 NMat=   1 IRICut=       1 DoRegI=T DoRafI=F ISym2E= 0.
 FoFCou: FMM=F IPFlag=           0 FMFlag=      100000 FMFlg1=         800
         NFxFlg=           0 DoJE=F BraDBF=F KetDBF=F FulRan=T
         wScrn=  0.000000 ICntrl=    2127 IOpCl=  0 I1Cent=           0 NGrid=           0
         NMat0=    1 NMatS0=      1 NMatT0=    0 NMatD0=    1 NMtDS0=    0 NMtDT0=    0
 Symmetry not used in FoFCou.
 Leave Link  703 at Mon Nov 23 13:23:33 2015, MaxMem=    33554432 cpu:         0.0
 (Enter /home/Applications/g09/g09/l716.exe)
 Dipole        =-6.61431963D-02-3.62122411D-01 4.69317611D-03
 ***** Axes restored to original set *****
 -------------------------------------------------------------------
 Center     Atomic                   Forces (Hartrees/Bohr)
 Number     Number              X              Y              Z
 -------------------------------------------------------------------
      1        6          -0.004000363    0.002217790    0.001583498
      2        6          -0.000719027   -0.004208333   -0.001252644
      3        8           0.003754594    0.001087945    0.001265047
      4        6          -0.010230623   -0.003945557    0.002406182
      5        6           0.006675022   -0.001426582   -0.002976378
      6        1           0.001579242    0.002348772    0.001405340
      7        1           0.003034072    0.001319090   -0.001766484
      8        1           0.000320576    0.001945913   -0.000205789
      9        1          -0.000413493    0.000660961   -0.000458773
 -------------------------------------------------------------------
 Cartesian Forces:  Max     0.010230623 RMS     0.003164505
 Leave Link  716 at Mon Nov 23 13:23:33 2015, MaxMem=    33554432 cpu:         0.0
 (Enter /home/Applications/g09/g09/l103.exe)

 GradGradGradGradGradGradGradGradGradGradGradGradGradGradGradGradGradGrad
 Berny optimization.
 Using GEDIIS/GDIIS optimizer.
 FormGI is forming the generalized inverse of G from B-inverse, IUseBI=4.
 Internal  Forces:  Max     0.004023603 RMS     0.001539709
 Search for a local minimum.
 Step number   3 out of a maximum of   48
 All quantities printed in internal units (Hartrees-Bohrs-Radians)
 RMS Force = .15397D-02 SwitMx=.10000D-02 MixMth= 1
 Mixed Optimization -- RFO/linear search
 Update second derivatives using D2CorX and points    1    2    3
 DE= -3.14D-03 DEPred=-2.84D-03 R= 1.11D+00
 TightC=F SS=  1.41D+00  RLast= 1.89D-01 DXNew= 8.4853D-01 5.6613D-01
 Trust test= 1.11D+00 RLast= 1.89D-01 DXMaxT set to 5.66D-01
 ITU=  1  1  0
 Use linear search instead of GDIIS.
     Eigenvalues ---    0.02420   0.02451   0.02791   0.02948   0.03089
     Eigenvalues ---    0.03108   0.14200   0.15995   0.16005   0.16145
     Eigenvalues ---    0.20761   0.22914   0.31614   0.37755   0.39158
     Eigenvalues ---    0.40639   0.41477   0.44309   0.53475   0.60287
     Eigenvalues ---    0.79244
 RFO step:  Lambda=-5.45770160D-04 EMin= 2.41980741D-02
 Quartic linear search produced a step of  0.13770.
 Iteration  1 RMS(Cart)=  0.01192851 RMS(Int)=  0.00036039
 Iteration  2 RMS(Cart)=  0.00023168 RMS(Int)=  0.00020886
 Iteration  3 RMS(Cart)=  0.00000016 RMS(Int)=  0.00020886
 ITry= 1 IFail=0 DXMaxC= 3.27D-02 DCOld= 1.00D+10 DXMaxT= 5.66D-01 DXLimC= 3.00D+00 Rises=F
 Variable       Old X    -DE/DX   Delta X   Delta X   Delta X     New X
                                 (Linear)    (Quad)   (Total)
    R1        2.59058  -0.00021  -0.00381   0.00118  -0.00266   2.58792
    R2        2.66968  -0.00075  -0.00411  -0.00012  -0.00419   2.66548
    R3        2.03832  -0.00072   0.00006  -0.00116  -0.00109   2.03723
    R4        2.61104  -0.00070  -0.00229   0.00068  -0.00166   2.60938
    R5        2.04773  -0.00191  -0.00224  -0.00476  -0.00699   2.04074
    R6        2.62527  -0.00230  -0.00844  -0.00323  -0.01168   2.61360
    R7        2.57782   0.00402   0.00106   0.00864   0.00975   2.58757
    R8        2.04270  -0.00016  -0.00100   0.00041  -0.00059   2.04211
    R9        2.03393   0.00262  -0.00153   0.00943   0.00789   2.04183
    A1        1.85058   0.00251   0.00260   0.01245   0.01494   1.86552
    A2        2.24037  -0.00095   0.00007  -0.00402  -0.00412   2.23625
    A3        2.19217  -0.00155  -0.00254  -0.00811  -0.01081   2.18136
    A4        1.93835  -0.00140  -0.00207  -0.00864  -0.01079   1.92756
[...]

 Cycle   9  Pass 1  IDiag  3:
 E= -2.22276995943477     Delta-E=        0.000000000000 Rises=F Damp=F
 DIIS: error= 3.64D-09 at cycle   9 NSaved=   9.
 NSaved= 9 IEnMin= 8 EnMin= -2.22276995943481     IErMin= 9 ErrMin= 3.64D-09
 ErrMax= 3.64D-09  0.00D+00 EMaxC= 1.00D-01 BMatC= 5.11D-16 BMatP= 4.55D-15
 IDIUse=1 WtCom= 1.00D+00 WtEn= 0.00D+00
 Coeff-Com: -0.458D-03 0.186D-02-0.482D-02 0.104D-01 0.128D-02-0.946D-01
 Coeff-Com:  0.323D+00-0.978D+00 0.174D+01
 Coeff:     -0.458D-03 0.186D-02-0.482D-02 0.104D-01 0.128D-02-0.946D-01
 Coeff:      0.323D+00-0.978D+00 0.174D+01
 Gap=     0.503 Goal=   None    Shift=    0.000
 RMSDP=3.77D-09 MaxDP=2.70D-08 DE= 4.26D-14 OVMax= 2.86D-08

 Cycle  10  Pass 2  IDiag  1:
 SCF Done:  E(RAM1) =  -2.22276995943     A.U. after   10 cycles
            NFock=  9  Conv=0.38D-08     -V/T= 0.8777
 KE=-1.817546306409D+01 PE=-1.696855738142D+02 EE= 8.443536491480D+01
 Leave Link  502 at Mon Nov 23 13:23:34 2015, MaxMem=    33554432 cpu:         0.0
 (Enter /home/Applications/g09/g09/l701.exe)
 Compute integral first derivatives.
 ... and contract with generalized density number  0.
 Leave Link  701 at Mon Nov 23 13:23:34 2015, MaxMem=    33554432 cpu:         0.0
 (Enter /home/Applications/g09/g09/l702.exe)
 L702 exits ... SP integral derivatives will be done elsewhere.
 Leave Link  702 at Mon Nov 23 13:23:34 2015, MaxMem=    33554432 cpu:         0.0
 (Enter /home/Applications/g09/g09/l703.exe)
 Compute integral first derivatives, UseDBF=F ICtDFT=           0.
 Integral derivatives from FoFJK, PRISM(SPDF).
 Calling FoFJK, ICntrl=      2127 FMM=F ISym2X=0 I1Cent= 0 IOpClX= 0 NMat=1 NMatS=1 NMatT=0.
 FoFJK:  IHMeth= 8 ICntrl=    2127 DoSepK=F KAlg= 0 I1Cent=   0 FoldK=F
 IRaf=         0 NMat=   1 IRICut=       1 DoRegI=T DoRafI=F ISym2E= 0.
 FoFCou: FMM=F IPFlag=           0 FMFlag=      100000 FMFlg1=         800
         NFxFlg=           0 DoJE=F BraDBF=F KetDBF=F FulRan=T
         wScrn=  0.000000 ICntrl=    2127 IOpCl=  0 I1Cent=           0 NGrid=           0
         NMat0=    1 NMatS0=      1 NMatT0=    0 NMatD0=    1 NMtDS0=    0 NMtDT0=    0
 Symmetry not used in FoFCou.
 Leave Link  703 at Mon Nov 23 13:23:34 2015, MaxMem=    33554432 cpu:         0.0
 (Enter /home/Applications/g09/g09/l716.exe)
 Dipole        =-7.67053629D-04-3.71352714D-01-3.99891967D-04
 ***** Axes restored to original set *****
 -------------------------------------------------------------------
 Center     Atomic                   Forces (Hartrees/Bohr)
 Number     Number              X              Y              Z
 -------------------------------------------------------------------
      1        6          -0.000031130    0.000074399   -0.000025039
      2        6          -0.000091076    0.000023262    0.000040450
      3        8           0.000051866   -0.000036456   -0.000048518
      4        6          -0.000020478   -0.000038300    0.000010171
      5        6           0.000084251   -0.000017586   -0.000046468
      6        1          -0.000017363   -0.000015885    0.000018903
      7        1          -0.000008913   -0.000030665    0.000027862
      8        1           0.000026756    0.000046439    0.000009680
      9        1           0.000006087   -0.000005208    0.000012959
 -------------------------------------------------------------------
 Cartesian Forces:  Max     0.000091076 RMS     0.000039176
 Leave Link  716 at Mon Nov 23 13:23:34 2015, MaxMem=    33554432 cpu:         0.0
 (Enter /home/Applications/g09/g09/l103.exe)

 GradGradGradGradGradGradGradGradGradGradGradGradGradGradGradGradGradGrad
 Berny optimization.
 Using GEDIIS/GDIIS optimizer.
 FormGI is forming the generalized inverse of G from B-inverse, IUseBI=4.
 Internal  Forces:  Max     0.000094881 RMS     0.000027094
 Search for a local minimum.
 Step number   8 out of a maximum of   48
 All quantities printed in internal units (Hartrees-Bohrs-Radians)
 RMS Force = .27094D-04 SwitMx=.10000D-02 MixMth= 2
 Mixed Optimization -- En-DIIS/RFO-DIIS
 Swapping is turned off.
 Update second derivatives using D2CorX and points    1    2    3    4    5
                                                      6    7    8
 DE= -1.12D-06 DEPred=-1.24D-06 R= 9.03D-01
 TightC=F SS=  1.41D+00  RLast= 5.80D-03 DXNew= 2.3803D-01 1.7400D-02
 Trust test= 9.03D-01 RLast= 5.80D-03 DXMaxT set to 1.42D-01
 ITU=  1 -1  1 -1  1  1  1  0
     Eigenvalues ---    0.02098   0.02743   0.02969   0.03264   0.08493
     Eigenvalues ---    0.08634   0.12899   0.13171   0.16009   0.16042
     Eigenvalues ---    0.21656   0.23479   0.33903   0.37747   0.39282
     Eigenvalues ---    0.40142   0.41842   0.45806   0.53395   0.60450
     Eigenvalues ---    0.81977
 En-DIIS/RFO-DIIS IScMMF=        0 using points:     8    7    6    5    4
 RFO step:  Lambda=-5.03187168D-08.
 NNeg= 0 NP= 5 Switch=  2.50D-03 Rises=F DC= -4.19D-05 SmlDif=  1.00D-05
 RMS Error=  0.5700906147D-04 NUsed= 5 EDIIS=F
 DidBck=F Rises=F RFO-DIIS coefs:    0.77202    0.11330    0.12381   -0.00039   -0.00874
 Iteration  1 RMS(Cart)=  0.00019534 RMS(Int)=  0.00000015
 Iteration  2 RMS(Cart)=  0.00000005 RMS(Int)=  0.00000015
 ITry= 1 IFail=0 DXMaxC= 6.22D-04 DCOld= 1.00D+10 DXMaxT= 1.42D-01 DXLimC= 3.00D+00 Rises=F
 Variable       Old X    -DE/DX   Delta X   Delta X   Delta X     New X
                                 (Linear)    (Quad)   (Total)
    R1        2.59104   0.00001  -0.00001   0.00004   0.00003   2.59107
    R2        2.66458  -0.00006   0.00004  -0.00013  -0.00009   2.66449
    R3        2.03826   0.00001   0.00003  -0.00001   0.00002   2.03828
    R4        2.61334  -0.00009   0.00003  -0.00015  -0.00012   2.61323
    R5        2.04208  -0.00005  -0.00006  -0.00005  -0.00011   2.04197
    R6        2.61325  -0.00003  -0.00006   0.00003  -0.00003   2.61321
    R7        2.59103   0.00002  -0.00001   0.00006   0.00005   2.59109
    R8        2.04200  -0.00002   0.00000  -0.00003  -0.00004   2.04196
    R9        2.03836  -0.00002  -0.00010   0.00007  -0.00003   2.03832
    A1        1.86286   0.00002   0.00004   0.00006   0.00010   1.86296
    A2        2.23546  -0.00001   0.00016  -0.00021  -0.00005   2.23542
    A3        2.18486  -0.00001  -0.00020   0.00014  -0.00005   2.18481
    A4        1.92979   0.00001  -0.00002   0.00000  -0.00001   1.92978
    A5        2.27524  -0.00001  -0.00001  -0.00002  -0.00003   2.27520
    A6        2.07816   0.00000   0.00002   0.00002   0.00004   2.07820
    A7        1.83936  -0.00001  -0.00003  -0.00002  -0.00005   1.83931
    A8        1.92966   0.00003   0.00009   0.00003   0.00011   1.92977
    A9        2.07849  -0.00003  -0.00003  -0.00011  -0.00015   2.07834
   A10        2.27504   0.00001  -0.00005   0.00008   0.00003   2.27507
   A11        1.86311  -0.00005  -0.00008  -0.00007  -0.00015   1.86296
   A12        2.18477   0.00002  -0.00011   0.00017   0.00006   2.18483
   A13        2.23530   0.00003   0.00019  -0.00010   0.00009   2.23540
    D1       -0.00015   0.00001   0.00012   0.00001   0.00013  -0.00002
    D2        3.14143   0.00001  -0.00003   0.00026   0.00023  -3.14153
    D3       -3.14143   0.00000  -0.00013  -0.00010  -0.00024   3.14152
    D4        0.00015  -0.00001  -0.00029   0.00015  -0.00013   0.00001
    D5       -0.00003   0.00000   0.00003   0.00000   0.00004   0.00001
    D6       -3.14118  -0.00002  -0.00014  -0.00035  -0.00049   3.14152
    D7        3.14127   0.00002   0.00028   0.00011   0.00039  -3.14153
    D8        0.00012   0.00000   0.00010  -0.00024  -0.00014  -0.00002
    D9        0.00026  -0.00002  -0.00022  -0.00002  -0.00024   0.00002
   D10       -3.14132  -0.00002  -0.00009  -0.00024  -0.00033   3.14154
   D11       -0.00028   0.00002   0.00025   0.00002   0.00027  -0.00001
   D12        3.14098   0.00003   0.00049   0.00012   0.00061   3.14159
   D13        0.00019  -0.00002  -0.00018  -0.00002  -0.00019   0.00000
   D14        3.14133   0.00001   0.00000   0.00035   0.00035  -3.14150
   D15       -3.14101  -0.00002  -0.00046  -0.00013  -0.00059   3.14158
   D16        0.00012   0.00000  -0.00028   0.00024  -0.00004   0.00008
         Item               Value     Threshold  Converged?
 Maximum Force            0.000095     0.000450     YES
 RMS     Force            0.000027     0.000300     YES
 Maximum Displacement     0.000622     0.001800     YES
 RMS     Displacement     0.000195     0.001200     YES
 Predicted change in Energy=-6.170196D-08
 Optimization completed.
    -- Stationary point found.
                           ----------------------------
                           !   Optimized Parameters   !
                           ! (Angstroms and Degrees)  !
 --------------------------                            --------------------------
 ! Name  Definition              Value          Derivative Info.                !
 --------------------------------------------------------------------------------
 ! R1    R(1,2)                  1.3711         -DE/DX =    0.0                 !
 ! R2    R(1,5)                  1.41           -DE/DX =   -0.0001              !
 ! R3    R(1,9)                  1.0786         -DE/DX =    0.0                 !
 ! R4    R(2,3)                  1.3829         -DE/DX =   -0.0001              !
 ! R5    R(2,8)                  1.0806         -DE/DX =   -0.0001              !
 ! R6    R(3,4)                  1.3829         -DE/DX =    0.0                 !
 ! R7    R(4,5)                  1.3711         -DE/DX =    0.0                 !
 ! R8    R(4,7)                  1.0806         -DE/DX =    0.0                 !
 ! R9    R(5,6)                  1.0787         -DE/DX =    0.0                 !
 ! A1    A(2,1,5)              106.7338         -DE/DX =    0.0                 !
 ! A2    A(2,1,9)              128.0827         -DE/DX =    0.0                 !
 ! A3    A(5,1,9)              125.1835         -DE/DX =    0.0                 !
 ! A4    A(1,2,3)              110.5688         -DE/DX =    0.0                 !
 ! A5    A(1,2,8)              130.3614         -DE/DX =    0.0                 !
 ! A6    A(3,2,8)              119.0698         -DE/DX =    0.0                 !
 ! A7    A(2,3,4)              105.3875         -DE/DX =    0.0                 !
 ! A8    A(3,4,5)              110.5613         -DE/DX =    0.0                 !
 ! A9    A(3,4,7)              119.0885         -DE/DX =    0.0                 !
 ! A10   A(5,4,7)              130.3503         -DE/DX =    0.0                 !
 ! A11   A(1,5,4)              106.7485         -DE/DX =    0.0                 !
 ! A12   A(1,5,6)              125.1781         -DE/DX =    0.0                 !
 ! A13   A(4,5,6)              128.0734         -DE/DX =    0.0                 !
 ! D1    D(5,1,2,3)             -0.0085         -DE/DX =    0.0                 !
 ! D2    D(5,1,2,8)           -180.0094         -DE/DX =    0.0                 !
 ! D3    D(9,1,2,3)            180.0092         -DE/DX =    0.0                 !
 ! D4    D(9,1,2,8)              0.0083         -DE/DX =    0.0                 !
 ! D5    D(2,1,5,4)             -0.0016         -DE/DX =    0.0                 !
 ! D6    D(2,1,5,6)            180.0238         -DE/DX =    0.0                 !
 ! D7    D(9,1,5,4)           -180.0186         -DE/DX =    0.0                 !
 ! D8    D(9,1,5,6)              0.0067         -DE/DX =    0.0                 !
 ! D9    D(1,2,3,4)              0.015          -DE/DX =    0.0                 !
 ! D10   D(8,2,3,4)            180.0158         -DE/DX =    0.0                 !
 ! D11   D(2,3,4,5)             -0.016          -DE/DX =    0.0                 !
 ! D12   D(2,3,4,7)            179.9646         -DE/DX =    0.0                 !
 ! D13   D(3,4,5,1)              0.0111         -DE/DX =    0.0                 !
 ! D14   D(3,4,5,6)           -180.0152         -DE/DX =    0.0                 !
 ! D15   D(7,4,5,1)            180.0333         -DE/DX =    0.0                 !
 ! D16   D(7,4,5,6)              0.007          -DE/DX =    0.0                 !
 --------------------------------------------------------------------------------
 Lowest energy point so far.  Saving SCF results.
 GradGradGradGradGradGradGradGradGradGradGradGradGradGradGradGradGradGrad

 Largest change from initial coordinates is atom    7       0.559 Angstoms.
 Leave Link  103 at Mon Nov 23 13:23:34 2015, MaxMem=    33554432 cpu:         0.0
 (Enter /home/Applications/g09/g09/l202.exe)
                          Input orientation:                          
 ---------------------------------------------------------------------
 Center     Atomic      Atomic             Coordinates (Angstroms)
 Number     Number       Type             X           Y           Z
 ---------------------------------------------------------------------
      1          6           0        0.945399   -0.697107   -0.005892
      2          6           0       -0.365966   -1.097409   -0.013035
      3          8           0       -1.208709   -0.000959   -0.005643
      4          6           0       -0.375195    1.102421    0.006063
      5          6           0        0.939416    0.712861    0.006371
      6          1           0        1.818422    1.337988    0.013901
      7          1           0       -0.812028    2.090742    0.012962
      8          1           0       -0.794862   -2.089225   -0.023005
      9          1           0        1.829577   -1.314842   -0.009069
 ---------------------------------------------------------------------
                    Distance matrix (angstroms):
                    1          2          3          4          5
     1  C    0.000000
     2  C    1.371120   0.000000
     3  O    2.263803   1.382923   0.000000
     4  C    2.232132   2.199932   1.382870   0.000000
     5  C    1.410034   2.231922   2.263653   1.371116   0.000000
     6  H    2.214536   3.271611   3.310088   2.206243   1.078653
     7  H    3.295604   3.219310   2.129064   1.080579   2.228487
     8  H    2.228630   1.080624   2.128950   3.219249   3.295492
     9  H    1.078599   2.206286   3.310209   3.271759   2.214544
                    6          7          8          9
     6  H    0.000000
     7  H    2.736039   0.000000
     8  H    4.310035   4.180157   0.000000
     9  H    2.652953   4.310054   2.736337   0.000000
 Stoichiometry    C4H4O
 Framework group  C1[X(C4H4O)]
 Deg. of freedom    21
 Full point group                 C1      NOp   1
 RotChk:  IX=2 Diff= 1.86D-15
 Largest Abelian subgroup         C1      NOp   1
 Largest concise Abelian subgroup C1      NOp   1
                         Standard orientation:                         
 ---------------------------------------------------------------------
 Center     Atomic      Atomic             Coordinates (Angstroms)
 Number     Number       Type             X           Y           Z
 ---------------------------------------------------------------------
      1          6           0        0.706847    0.962463    0.000046
      2          6           0        1.099299   -0.351292   -0.000067
      3          8           0       -0.002225   -1.187426    0.000103
      4          6           0       -1.100630   -0.347285   -0.000023
      5          6           0       -0.703185    0.964963    0.000097
      6          1           0       -1.323054    1.847718   -0.000180
      7          1           0       -2.091584   -0.778167   -0.000510
      8          1           0        2.088565   -0.786150   -0.000271
      9          1           0        1.329895    1.842910   -0.000173
 ---------------------------------------------------------------------
 Rotational constants (GHZ):      9.4783637      9.0565934      4.6313400
 Leave Link  202 at Mon Nov 23 13:23:34 2015, MaxMem=    33554432 cpu:         0.0
 (Enter /home/Applications/g09/g09/l601.exe)
 Copying SCF densities to generalized density rwf, IOpCl= 0 IROHF=0.

 **********************************************************************

            Population analysis using the SCF density.

 **********************************************************************

 Orbital symmetries:
       Occupied  (A) (A) (A) (A) (A) (A) (A) (A) (A) (A) (A) (A)
                 (A)
       Virtual   (A) (A) (A) (A) (A) (A) (A) (A) (A) (A) (A)
 The electronic state is 1-A.
 Alpha  occ. eigenvalues --   -1.54121  -1.12514  -1.09741  -0.86225  -0.82766
 Alpha  occ. eigenvalues --   -0.79442  -0.73517  -0.49101  -0.44004  -0.42804
 Alpha  occ. eigenvalues --   -0.42641  -0.39758  -0.32880
 Alpha virt. eigenvalues --    0.17407   0.19058   0.26818   0.29316   0.30758
 Alpha virt. eigenvalues --    0.32543   0.34395   0.36014   0.40430   0.41778
 Alpha virt. eigenvalues --    0.44845
          Condensed to atoms (all electrons):
               1          2          3          4          5          6
     1  C    4.292578   0.000000   0.000000   0.000000   0.000000   0.000000
     2  C    0.000000   4.051925   0.000000   0.000000   0.000000   0.000000
     3  O    0.000000   0.000000   5.890935   0.000000   0.000000   0.000000
     4  C    0.000000   0.000000   0.000000   4.051996   0.000000   0.000000
     5  C    0.000000   0.000000   0.000000   0.000000   4.292524   0.000000
     6  H    0.000000   0.000000   0.000000   0.000000   0.000000   0.849120
     7  H    0.000000   0.000000   0.000000   0.000000   0.000000   0.000000
     8  H    0.000000   0.000000   0.000000   0.000000   0.000000   0.000000
     9  H    0.000000   0.000000   0.000000   0.000000   0.000000   0.000000
               7          8          9
     1  C    0.000000   0.000000   0.000000
     2  C    0.000000   0.000000   0.000000
     3  O    0.000000   0.000000   0.000000
     4  C    0.000000   0.000000   0.000000
     5  C    0.000000   0.000000   0.000000
     6  H    0.000000   0.000000   0.000000
     7  H    0.860906   0.000000   0.000000
     8  H    0.000000   0.860937   0.000000
     9  H    0.000000   0.000000   0.849080
 Mulliken charges:
               1
     1  C   -0.292578
     2  C   -0.051925
     3  O    0.109065
     4  C   -0.051996
     5  C   -0.292524
     6  H    0.150880
     7  H    0.139094
     8  H    0.139063
     9  H    0.150920
 Sum of Mulliken charges =   0.00000
 Mulliken charges with hydrogens summed into heavy atoms:
               1
     1  C   -0.141657
     2  C    0.087138
     3  O    0.109065
     4  C    0.087098
     5  C   -0.141644
 Charge=              0.0000 electrons
 Dipole moment (field-independent basis, Debye):
    X=             -0.0019    Y=             -0.9439    Z=             -0.0010  Tot=              0.9439
 N-N= 1.012029020041D+02 E-N=-1.696855738126D+02  KE=-1.817546306409D+01
 Leave Link  601 at Mon Nov 23 13:23:34 2015, MaxMem=    33554432 cpu:         0.0
 (Enter /home/Applications/g09/g09/l9999.exe)
 1\1\GINC-DUSTIN-DESKTOP\FOpt\RAM1\ZDO\C4H4O1\DUSTIN\23-Nov-2015\0\\#P 
 AM1(Input,print) Opt\\AM1-Reparam Input\\0,1\C,0.9453990901,-0.6971069
 857,-0.0058921034\C,-0.3659658533,-1.0974092821,-0.0130352753\O,-1.208
 7089204,-0.0009585264,-0.0056428783\C,-0.3751947177,1.1024207788,0.006
 0625352\C,0.9394161027,0.7128610931,0.0063713231\H,1.818422299,1.33798
 76655,0.0139010959\H,-0.8120278046,2.090742194,0.01296215\H,-0.7948618
 036,-2.0892247848,-0.0230046311\H,1.8295766078,-1.3148421524,-0.009069
 2162\\Version=ES64L-G09RevD.01\State=1-A\HF=-2.22277\RMSD=3.772e-09\RM
 SF=3.918e-05\Dipole=-0.3713482,-0.0014549,-0.0014202\PG=C01 [X(C4H4O1)
 ]\\@


 ALL OUR THINKING ABOUT NATURE MUST NECESSARILY MOVE IN CIRCLES OR SPIRALS;
 FOR WE CAN ONLY UNDERSTAND NATURE IF WE THINK ABOUT HER, AND WE CAN ONLY
 THINK BECAUSE OUR BRAIN IS BUILT IN ACCORDANCE WITH NATURE'S LAWS.

                                             -- TIMOTHY FERRIS, "GALAXIES"
 Job cpu time:       0 days  0 hours  0 minutes  1.3 seconds.
 File lengths (MBytes):  RWF=      5 Int=      0 D2E=      0 Chk=      2 Scr=      1
 Normal termination of Gaussian 09 at Mon Nov 23 13:23:34 2015.
