 Entering Gaussian System, Link 0=g09
 Input=FuranAM1Best5.com
 Output=FuranAM1Best5.log
 Initial command:
 /home/Applications/g09/g09/l1.exe "/home/Applications/g09/scratch/Gau-4877.inp" -scrdir="/home/Applications/g09/scratch/"
 Entering Link 1 = /home/Applications/g09/g09/l1.exe PID=      4879.
  
 Copyright (c) 1988,1990,1992,1993,1995,1998,2003,2009,2013,
            Gaussian, Inc.  All Rights Reserved.
  
 This is part of the Gaussian(R) 09 program.  It is based on
 the Gaussian(R) 03 system (copyright 2003, Gaussian, Inc.),
 the Gaussian(R) 98 system (copyright 1998, Gaussian, Inc.),
 the Gaussian(R) 94 system (copyright 1995, Gaussian, Inc.),
 the Gaussian 92(TM) system (copyright 1992, Gaussian, Inc.),
 the Gaussian 90(TM) system (copyright 1990, Gaussian, Inc.),
 the Gaussian 88(TM) system (copyright 1988, Gaussian, Inc.),
 the Gaussian 86(TM) system (copyright 1986, Carnegie Mellon
 University), and the Gaussian 82(TM) system (copyright 1983,
 Carnegie Mellon University). Gaussian is a federally registered
 trademark of Gaussian, Inc.
  
 This software contains proprietary and confidential information,
 including trade secrets, belonging to Gaussian, Inc.
  
 This software is provided under written license and may be
 used, copied, transmitted, or stored only in accord with that
 written license.
  
 The following legend is applicable only to US Government
 contracts under FAR:
  
                    RESTRICTED RIGHTS LEGEND
  
 Use, reproduction and disclosure by the US Government is
 subject to restrictions as set forth in subparagraphs (a)
 and (c) of the Commercial Computer Software - Restricted
 Rights clause in FAR 52.227-19.
  
 Gaussian, Inc.
 340 Quinnipiac St., Bldg. 40, Wallingford CT 06492
  
  
 ---------------------------------------------------------------
 Warning -- This program may not be used in any manner that
 competes with the business of Gaussian, Inc. or will provide
 assistance to any competitor of Gaussian, Inc.  The licensee
 of this program is prohibited from giving any competitor of
 Gaussian, Inc. access to this program.  By using this program,
 the user acknowledges that Gaussian, Inc. is engaged in the
 business of creating and licensing software in the field of
 computational chemistry and represents and warrants to the
 licensee that it is not a competitor of Gaussian, Inc. and that
 it will not use this program in any manner prohibited above.
 ---------------------------------------------------------------
  

 Cite this work as:
 Gaussian 09, Revision D.01,
 M. J. Frisch, G. W. Trucks, H. B. Schlegel, G. E. Scuseria, 
 M. A. Robb, J. R. Cheeseman, G. Scalmani, V. Barone, B. Mennucci, 
 G. A. Petersson, H. Nakatsuji, M. Caricato, X. Li, H. P. Hratchian, 
 A. F. Izmaylov, J. Bloino, G. Zheng, J. L. Sonnenberg, M. Hada, 
 M. Ehara, K. Toyota, R. Fukuda, J. Hasegawa, M. Ishida, T. Nakajima, 
 Y. Honda, O. Kitao, H. Nakai, T. Vreven, J. A. Montgomery, Jr., 
 J. E. Peralta, F. Ogliaro, M. Bearpark, J. J. Heyd, E. Brothers, 
 K. N. Kudin, V. N. Staroverov, T. Keith, R. Kobayashi, J. Normand, 
 K. Raghavachari, A. Rendell, J. C. Burant, S. S. Iyengar, J. Tomasi, 
 M. Cossi, N. Rega, J. M. Millam, M. Klene, J. E. Knox, J. B. Cross, 
 V. Bakken, C. Adamo, J. Jaramillo, R. Gomperts, R. E. Stratmann, 
 O. Yazyev, A. J. Austin, R. Cammi, C. Pomelli, J. W. Ochterski, 
 R. L. Martin, K. Morokuma, V. G. Zakrzewski, G. A. Voth, 
 P. Salvador, J. J. Dannenberg, S. Dapprich, A. D. Daniels, 
 O. Farkas, J. B. Foresman, J. V. Ortiz, J. Cioslowski, 
 and D. J. Fox, Gaussian, Inc., Wallingford CT, 2013.
 
 ******************************************
 Gaussian 09:  ES64L-G09RevD.01 24-Apr-2013
                23-Nov-2015 
 ******************************************
 -----------------------
 #P AM1(Input,print) Opt
 -----------------------
 1/14=-1,18=20,19=15,26=1,38=1/1,3;
 2/9=110,12=2,17=6,18=5,40=1/2;
 3/5=2,16=1,25=1,41=700000,71=1,135=100,136=1/1,2,3;
 4/35=1/1;
 5/5=2,35=1,38=5/2;
 6/7=2,8=2,9=2,10=2,28=1/1;
 7//1,2,3,16;
 1/14=-1,18=20,19=15,26=1/3(2);
 2/9=110/2;
 99//99;
 2/9=110/2;
 3/5=2,16=1,25=1,41=700000,71=1,135=20,136=1/1,2,3;
 4/5=5,16=3,35=1/1;
 5/5=2,35=1,38=5/2;
 7//1,2,3,16;
 1/14=-1,18=20,19=15,26=1/3(-5);
 2/9=110/2;
 6/7=2,8=2,9=2,10=2,19=2,28=1/1;
 99/9=1/99;
 Leave Link    1 at Mon Nov 23 13:23:30 2015, MaxMem=           0 cpu:         0.0
 (Enter /home/Applications/g09/g09/l101.exe)
 -----------------
 AM1-Reparam Input
 -----------------
 Symbolic Z-matrix:
 Charge =  0 Multiplicity = 1
 6                     1.00403  -0.70725   0.03145 
 6                    -0.3951   -1.12594  -0.03549 
 8                    -1.11852   0.0317    0.00027 
 6                    -0.37571   1.12216  -0.03914 
 6                     0.99121   0.68702  -0.00444 
 1                     1.80977   1.35004   0.00023 
 1                    -0.85568   2.07336   0.04965 
 1                    -0.81257  -2.01616   0.04594 
 1                     1.7678   -1.39197  -0.0344 
 
 NAtoms=      9 NQM=        9 NQMF=       0 NMMI=      0 NMMIF=      0
                NMic=       0 NMicF=      0.
                    Isotopes and Nuclear Properties:
 (Nuclear quadrupole moments (NQMom) in fm**2, nuclear magnetic moments (NMagM)
  in nuclear magnetons)

  Atom         1           2           3           4           5           6           7           8           9
 IAtWgt=          12          12          16          12          12           1           1           1           1
 AtmWgt=  12.0000000  12.0000000  15.9949146  12.0000000  12.0000000   1.0078250   1.0078250   1.0078250   1.0078250
 NucSpn=           0           0           0           0           0           1           1           1           1
 AtZEff=   0.0000000   0.0000000   0.0000000   0.0000000   0.0000000   0.0000000   0.0000000   0.0000000   0.0000000
 NQMom=    0.0000000   0.0000000   0.0000000   0.0000000   0.0000000   0.0000000   0.0000000   0.0000000   0.0000000
 NMagM=    0.0000000   0.0000000   0.0000000   0.0000000   0.0000000   2.7928460   2.7928460   2.7928460   2.7928460
 AtZNuc=   6.0000000   6.0000000   8.0000000   6.0000000   6.0000000   1.0000000   1.0000000   1.0000000   1.0000000
 Leave Link  101 at Mon Nov 23 13:23:30 2015, MaxMem=    33554432 cpu:         0.0
 (Enter /home/Applications/g09/g09/l103.exe)

 GradGradGradGradGradGradGradGradGradGradGradGradGradGradGradGradGradGrad
 Berny optimization.
 Initialization pass.
                           ----------------------------
                           !    Initial Parameters    !
                           ! (Angstroms and Degrees)  !
 --------------------------                            --------------------------
 ! Name  Definition              Value          Derivative Info.                !
 --------------------------------------------------------------------------------
 ! R1    R(1,2)                  1.462          estimate D2E/DX2                !
 ! R2    R(1,5)                  1.3948         estimate D2E/DX2                !
 ! R3    R(1,9)                  1.0279         estimate D2E/DX2                !
 ! R4    R(2,3)                  1.3656         estimate D2E/DX2                !
 ! R5    R(2,8)                  0.9866         estimate D2E/DX2                !
 ! R6    R(3,4)                  1.32           estimate D2E/DX2                !
 ! R7    R(4,5)                  1.4349         estimate D2E/DX2                !
 ! R8    R(4,7)                  1.0691         estimate D2E/DX2                !
 ! R9    R(5,6)                  1.0534         estimate D2E/DX2                !
 ! A1    A(2,1,5)              106.0398         estimate D2E/DX2                !
 ! A2    A(2,1,9)              121.1585         estimate D2E/DX2                !
 ! A3    A(5,1,9)              132.1511         estimate D2E/DX2                !
 ! A4    A(1,2,3)              105.2489         estimate D2E/DX2                !
 ! A5    A(1,2,8)              131.2672         estimate D2E/DX2                !
 ! A6    A(3,2,8)              122.5882         estimate D2E/DX2                !
 ! A7    A(2,3,4)              113.6668         estimate D2E/DX2                !
 ! A8    A(3,4,5)              106.5487         estimate D2E/DX2                !
 ! A9    A(3,4,7)              118.6762         estimate D2E/DX2                !
 ! A10   A(5,4,7)              134.0633         estimate D2E/DX2                !
 ! A11   A(1,5,4)              108.2108         estimate D2E/DX2                !
 ! A12   A(1,5,6)              128.456          estimate D2E/DX2                !
 ! A13   A(4,5,6)              123.3311         estimate D2E/DX2                !
 ! D1    D(5,1,2,3)             -4.5648         estimate D2E/DX2                !
 ! D2    D(5,1,2,8)           -173.6557         estimate D2E/DX2                !
 ! D3    D(9,1,2,3)           -176.381          estimate D2E/DX2                !
 ! D4    D(9,1,2,8)             14.5281         estimate D2E/DX2                !
 ! D5    D(2,1,5,4)              2.1823         estimate D2E/DX2                !
 ! D6    D(2,1,5,6)           -178.3394         estimate D2E/DX2                !
 ! D7    D(9,1,5,4)            172.7254         estimate D2E/DX2                !
 ! D8    D(9,1,5,6)             -7.7964         estimate D2E/DX2                !
 ! D9    D(1,2,3,4)              5.658          estimate D2E/DX2                !
 ! D10   D(8,2,3,4)            175.9383         estimate D2E/DX2                !
 ! D11   D(2,3,4,5)             -4.3448         estimate D2E/DX2                !
 ! D12   D(2,3,4,7)           -176.0148         estimate D2E/DX2                !
 ! D13   D(3,4,5,1)              1.1009         estimate D2E/DX2                !
 ! D14   D(3,4,5,6)           -178.4101         estimate D2E/DX2                !
 ! D15   D(7,4,5,1)            170.9124         estimate D2E/DX2                !
 ! D16   D(7,4,5,6)             -8.5985         estimate D2E/DX2                !
 --------------------------------------------------------------------------------
 Trust Radius=3.00D-01 FncErr=1.00D-07 GrdErr=1.00D-07
 Number of steps in this run=     48 maximum allowed number of steps=    100.
 GradGradGradGradGradGradGradGradGradGradGradGradGradGradGradGradGradGrad

 Leave Link  103 at Mon Nov 23 13:23:30 2015, MaxMem=    33554432 cpu:         0.0
 (Enter /home/Applications/g09/g09/l202.exe)
                          Input orientation:                          
 ---------------------------------------------------------------------
 Center     Atomic      Atomic             Coordinates (Angstroms)
 Number     Number       Type             X           Y           Z
 ---------------------------------------------------------------------
      1          6           0        1.004031   -0.707245    0.031451
      2          6           0       -0.395103   -1.125935   -0.035491
      3          8           0       -1.118525    0.031704    0.000272
      4          6           0       -0.375706    1.122162   -0.039139
      5          6           0        0.991210    0.687022   -0.004439
      6          1           0        1.809768    1.350035    0.000228
      7          1           0       -0.855683    2.073365    0.049649
      8          1           0       -0.812568   -2.016156    0.045943
      9          1           0        1.767798   -1.391968   -0.034403
 ---------------------------------------------------------------------
                    Distance matrix (angstroms):
                    1          2          3          4          5
     1  C    0.000000
     2  C    1.461971   0.000000
     3  O    2.247724   1.365557   0.000000
     4  C    2.292463   2.248184   1.320012   0.000000
     5  C    1.394788   2.282464   2.209173   1.434925   0.000000
     6  H    2.209658   3.315593   3.211370   2.197674   1.053397
     7  H    3.345244   3.233404   2.059103   1.069134   2.309954
     8  H    2.239082   0.986611   2.071093   3.169720   3.250127
     9  H    1.027873   2.179201   3.218525   3.303859   2.219501
                    6          7          8          9
     6  H    0.000000
     7  H    2.762296   0.000000
     8  H    4.267315   4.089750   0.000000
     9  H    2.742543   4.347212   2.656004   0.000000
 Stoichiometry    C4H4O
 Framework group  C1[X(C4H4O)]
 Deg. of freedom    21
 Full point group                 C1      NOp   1
 Largest Abelian subgroup         C1      NOp   1
 Largest concise Abelian subgroup C1      NOp   1
                         Standard orientation:                         
 ---------------------------------------------------------------------
 Center     Atomic      Atomic             Coordinates (Angstroms)
 Number     Number       Type             X           Y           Z
 ---------------------------------------------------------------------
      1          6           0        0.948690    0.772438    0.029087
      2          6           0        0.982432   -0.687919   -0.030711
      3          8           0       -0.325034   -1.079492    0.013446
      4          6           0       -1.180614   -0.075104   -0.026785
      5          6           0       -0.399562    1.128370   -0.001952
      6          1           0       -0.822666    2.093058   -0.000033
      7          1           0       -2.224393   -0.286182    0.068197
      8          1           0        1.731080   -1.325396    0.050233
      9          1           0        1.810570    1.327752   -0.043789
 ---------------------------------------------------------------------
 Rotational constants (GHZ):      9.3851875      9.0635037      4.6142543
 Leave Link  202 at Mon Nov 23 13:23:30 2015, MaxMem=    33554432 cpu:         0.0
 (Enter /home/Applications/g09/g09/l301.exe)

 Semi-emprical parameters in input format:
 Method=8 CoreType=1 PeptideFC=0.0166290000 RIJScale=0.6119410000
 ****
 H       
 PQN=1 NValence=1 F0ss=0.4150770000 ZetaOverlap=1.0810580000 U=-0.4286880000
 Beta=-0.2869890000 CoreKO=1.2114800000 KON=0,0,0,1.1025190000 KON=1,0,1,1.1074920000
 KON=0,1,1,1.0916540000 KON=2,1,1,1.0589200000 EISol=-0.4188110042 EHeat=0.0830298228
 Alpha=1.5030030000
 GCore=0.0071120000,1.1207970000,2.7005670000
 GCore=0.0003230000,1.4222460000,3.4015070000
 GCore=-0.0013380000,0.4405990000,4.4481290000
 ****
 C       
 PQN=2,2 NValence=4 F0ss=0.4202500000 F0sp=0.4263690000 F0pp=0.3424460000 F2pp=0.1977130000
 G1sp=0.2746580000
 ZetaOverlap=1.7498310000,1.3881390000
 U=-1.7944250000,-1.4545000000
 Beta=-0.5214990000,-0.3746580000 DDN=0,1,0.8234340000 DDN=1,1,0.7559950000
 CoreKO=1.2002200000 KON=0,0,0,1.1694410000 KON=1,0,1,0.9096420000 KON=0,1,1,0.9370920000
 KON=2,1,1,0.5201690000 EISol=-4.4398989268 EHeat=0.2723305520 Alpha=1.3947510000
 DipHyp=1.6467732542
 GCore=0.0008780000,1.2683970000,2.4090670000
 GCore=0.0034720000,1.4096270000,3.6574610000
 GCore=-0.0014060000,1.4542400000,3.3154880000
 GCore=-0.0001000000,1.4766960000,5.0661660000
 ****
 O       
 PQN=2,2 NValence=6 F0ss=0.5672460000 F0sp=0.5681160000 F0pp=0.4898210000 F2pp=0.2703590000
 G1sp=0.4169050000
 ZetaOverlap=2.7263600000,1.8505270000
 U=-3.5241930000,-3.0238760000
 Beta=-0.9772650000,-1.1886600000 DDN=0,1,0.5807610000 DDN=1,1,0.4521100000
 CoreKO=0.9925760000 KON=0,0,0,0.8355350000 KON=1,0,1,0.5454830000 KON=0,1,1,0.8378550000
 KON=2,1,1,0.5017630000 EISol=-11.6164441184 EHeat=0.0949133088 Alpha=2.2627970000
 DipHyp=1.1614551766
 GCore=0.0225710000,1.2849200000,1.7519400000
 GCore=0.0054870000,1.7991710000,2.8334770000
 ****
 
 Standard basis: VSTO-6G (5D, 7F)
 Ernie: Thresh=  0.10000D-02 Tol=  0.10000D-05 Strict=F.
  NNHCO=     0 NNPyr=     0 NCTC=     0               EPep=         0.000000000
    EC=        66.597934280  ECS=         1.801546192   EG=         0.432637614
   EHC=         0.000000000  EAt=       -31.051283842  AtH=         1.516354808
 EPDDG=         0.000000000  ECC=        68.832118086 EAtT=        32.567638650
 There are    24 symmetry adapted cartesian basis functions of A   symmetry.
 There are    24 symmetry adapted basis functions of A   symmetry.
    24 basis functions,   144 primitive gaussians,    24 cartesian basis functions
    13 alpha electrons       13 beta electrons
       nuclear repulsion energy       101.3997567361 Hartrees.
 IExCor=    0 DFT=F Ex=HF Corr=None ExCW=0 ScaHFX=  1.000000
 ScaDFX=  1.000000  1.000000  1.000000  1.000000 ScalE2=  1.000000  1.000000
 IRadAn=      0 IRanWt=     -1 IRanGd=            0 ICorTp=0 IEmpDi=  4
 Integral buffers will be    131072 words long.
 Regular integral format.
 Two-electron integral symmetry is turned off.
 Leave Link  301 at Mon Nov 23 13:23:30 2015, MaxMem=    33554432 cpu:         0.0
 (Enter /home/Applications/g09/g09/l302.exe)
 Do NDO integrals.
 NPDir=0 NMtPBC=     1 NCelOv=     1 NCel=       1 NClECP=     1 NCelD=      1
         NCelK=      1 NCelE2=     1 NClLst=     1 CellRange=     0.0.
 One-electron integrals computed using PRISM.
 NBasis=    24 RedAO= F EigKep=  0.00D+00  NBF=    24
 NBsUse=    24 1.00D-04 EigRej=  0.00D+00 NBFU=    24
 Leave Link  302 at Mon Nov 23 13:23:30 2015, MaxMem=    33554432 cpu:         0.0
 (Enter /home/Applications/g09/g09/l303.exe)
 DipDrv:  MaxL=1.
 Leave Link  303 at Mon Nov 23 13:23:30 2015, MaxMem=    33554432 cpu:         0.0
 (Enter /home/Applications/g09/g09/l401.exe)
 Simple Huckel Guess.
 JPrj=0 DoOrth=F DoCkMO=F.
 Leave Link  401 at Mon Nov 23 13:23:30 2015, MaxMem=    33554432 cpu:         0.0
 (Enter /home/Applications/g09/g09/l502.exe)
 Closed shell SCF:
 Using DIIS extrapolation, IDIIS=  1040.
 Overlap will be assumed to be unity.
 Two-electron integral symmetry not used.
 Keep J ints in memory in canonical form, NReq=888082.
 IVT=       79475 IEndB=       79475 NGot=    33554432 MDV=    33473473
 LenX=    33473473 LenY=    33472456
 Requested convergence on RMS density matrix=1.00D-08 within 128 cycles.
 Requested convergence on MAX density matrix=1.00D-06.
 Requested convergence on             energy=1.00D-06.
 No special actions if energy rises.
 FoFCou: FMM=F IPFlag=           0 FMFlag=           0 FMFlg1=           0
         NFxFlg=           0 DoJE=F BraDBF=F KetDBF=F FulRan=T
         wScrn=  0.000000 ICntrl=     600 IOpCl=  2 I1Cent=           0 NGrid=           0
         NMat0=    1 NMatS0=     54 NMatT0=    0 NMatD0=    1 NMtDS0=    0 NMtDT0=    0
 Symmetry not used in FoFCou.

 Cycle   1  Pass 1  IDiag  1:
 E= -2.04109837406801    
 DIIS: error= 2.73D-02 at cycle   1 NSaved=   1.
 NSaved= 1 IEnMin= 1 EnMin= -2.04109837406801     IErMin= 1 ErrMin= 2.73D-02
 ErrMax= 2.73D-02  0.00D+00 EMaxC= 1.00D-01 BMatC= 5.48D-02 BMatP= 5.48D-02
 IDIUse=3 WtCom= 7.27D-01 WtEn= 2.73D-01
 Coeff-Com:  0.100D+01
 Coeff-En:   0.100D+01
 Coeff:      0.100D+01
 GapD=    2.000 DampG=2.000 DampE=0.500 DampFc=1.0000 IDamp=-1.
 RMSDP=1.33D-02 MaxDP=6.42D-02              OVMax= 0.00D+00

 Cycle   2  Pass 1  IDiag  1:
 E= -2.17149387236064     Delta-E=       -0.130395498293 Rises=F Damp=F
 DIIS: error= 1.25D-02 at cycle   2 NSaved=   2.
 NSaved= 2 IEnMin= 2 EnMin= -2.17149387236064     IErMin= 2 ErrMin= 1.25D-02
 ErrMax= 1.25D-02  0.00D+00 EMaxC= 1.00D-01 BMatC= 5.00D-03 BMatP= 5.48D-02
 IDIUse=3 WtCom= 8.75D-01 WtEn= 1.25D-01
 Coeff-Com: -0.313D+00 0.131D+01
 Coeff-En:   0.000D+00 0.100D+01
 Coeff:     -0.274D+00 0.127D+01
 RMSDP=6.13D-03 MaxDP=4.08D-02 DE=-1.30D-01 OVMax= 0.00D+00

 Cycle   3  Pass 1  IDiag  3:
 E= -2.18968411738406     Delta-E=       -0.018190245023 Rises=F Damp=F
 DIIS: error= 3.80D-03 at cycle   3 NSaved=   3.
 NSaved= 3 IEnMin= 3 EnMin= -2.18968411738406     IErMin= 3 ErrMin= 3.80D-03
 ErrMax= 3.80D-03  0.00D+00 EMaxC= 1.00D-01 BMatC= 4.71D-04 BMatP= 5.00D-03
 IDIUse=3 WtCom= 9.62D-01 WtEn= 3.80D-02
 Coeff-Com:  0.111D+00-0.683D+00 0.157D+01
 Coeff-En:   0.000D+00 0.000D+00 0.100D+01
 Coeff:      0.107D+00-0.657D+00 0.155D+01
 Gap=     0.489 Goal=   None    Shift=    0.000
 RMSDP=2.87D-03 MaxDP=2.09D-02 DE=-1.82D-02 OVMax= 2.11D-02

 Cycle   4  Pass 1  IDiag  3:
 E= -2.19219551903056     Delta-E=       -0.002511401647 Rises=F Damp=F
 DIIS: error= 8.50D-04 at cycle   4 NSaved=   4.
 NSaved= 4 IEnMin= 4 EnMin= -2.19219551903056     IErMin= 4 ErrMin= 8.50D-04
 ErrMax= 8.50D-04  0.00D+00 EMaxC= 1.00D-01 BMatC= 3.31D-05 BMatP= 4.71D-04
 IDIUse=3 WtCom= 9.92D-01 WtEn= 8.50D-03
 Coeff-Com: -0.225D-01 0.163D+00-0.601D+00 0.146D+01
 Coeff-En:   0.000D+00 0.000D+00 0.000D+00 0.100D+01
 Coeff:     -0.223D-01 0.162D+00-0.596D+00 0.146D+01
 Gap=     0.490 Goal=   None    Shift=    0.000
 RMSDP=8.71D-04 MaxDP=5.31D-03 DE=-2.51D-03 OVMax= 6.52D-03

 Cycle   5  Pass 1  IDiag  3:
 E= -2.19239157321835     Delta-E=       -0.000196054188 Rises=F Damp=F
 DIIS: error= 3.10D-04 at cycle   5 NSaved=   5.
 NSaved= 5 IEnMin= 5 EnMin= -2.19239157321835     IErMin= 5 ErrMin= 3.10D-04
 ErrMax= 3.10D-04  0.00D+00 EMaxC= 1.00D-01 BMatC= 3.14D-06 BMatP= 3.31D-05
 IDIUse=3 WtCom= 9.97D-01 WtEn= 3.10D-03
 Coeff-Com:  0.675D-03-0.229D-01 0.181D+00-0.788D+00 0.163D+01
 Coeff-En:   0.000D+00 0.000D+00 0.000D+00 0.000D+00 0.100D+01
 Coeff:      0.673D-03-0.228D-01 0.180D+00-0.786D+00 0.163D+01
 Gap=     0.490 Goal=   None    Shift=    0.000
 RMSDP=2.70D-04 MaxDP=1.71D-03 DE=-1.96D-04 OVMax= 1.95D-03

 Cycle   6  Pass 1  IDiag  3:
 E= -2.19240941854042     Delta-E=       -0.000017845322 Rises=F Damp=F
 DIIS: error= 7.50D-05 at cycle   6 NSaved=   6.
 NSaved= 6 IEnMin= 6 EnMin= -2.19240941854042     IErMin= 6 ErrMin= 7.50D-05
 ErrMax= 7.50D-05  0.00D+00 EMaxC= 1.00D-01 BMatC= 1.83D-07 BMatP= 3.14D-06
 IDIUse=1 WtCom= 1.00D+00 WtEn= 0.00D+00
 Coeff-Com:  0.121D-02-0.108D-02-0.369D-01 0.252D+00-0.777D+00 0.156D+01
 Coeff:      0.121D-02-0.108D-02-0.369D-01 0.252D+00-0.777D+00 0.156D+01
 Gap=     0.490 Goal=   None    Shift=    0.000
 RMSDP=6.44D-05 MaxDP=4.60D-04 DE=-1.78D-05 OVMax= 4.54D-04

 Cycle   7  Pass 1  IDiag  3:
 E= -2.19241034245918     Delta-E=       -0.000000923919 Rises=F Damp=F
 DIIS: error= 7.03D-06 at cycle   7 NSaved=   7.
 NSaved= 7 IEnMin= 7 EnMin= -2.19241034245918     IErMin= 7 ErrMin= 7.03D-06
 ErrMax= 7.03D-06  0.00D+00 EMaxC= 1.00D-01 BMatC= 1.60D-09 BMatP= 1.83D-07
 IDIUse=1 WtCom= 1.00D+00 WtEn= 0.00D+00
 Coeff-Com: -0.390D-03 0.573D-03 0.976D-02-0.720D-01 0.231D+00-0.511D+00
 Coeff-Com:  0.134D+01
 Coeff:     -0.390D-03 0.573D-03 0.976D-02-0.720D-01 0.231D+00-0.511D+00
 Coeff:      0.134D+01
 Gap=     0.490 Goal=   None    Shift=    0.000
 RMSDP=4.43D-06 MaxDP=3.69D-05 DE=-9.24D-07 OVMax= 3.37D-05

 Cycle   8  Pass 1  IDiag  3:
 E= -2.19241034920601     Delta-E=       -0.000000006747 Rises=F Damp=F
 DIIS: error= 2.08D-06 at cycle   8 NSaved=   8.
 NSaved= 8 IEnMin= 8 EnMin= -2.19241034920601     IErMin= 8 ErrMin= 2.08D-06
 ErrMax= 2.08D-06  0.00D+00 EMaxC= 1.00D-01 BMatC= 1.23D-10 BMatP= 1.60D-09
 IDIUse=1 WtCom= 1.00D+00 WtEn= 0.00D+00
 Coeff-Com:  0.146D-03-0.282D-03-0.311D-02 0.245D-01-0.817D-01 0.186D+00
 Coeff-Com: -0.608D+00 0.148D+01
 Coeff:      0.146D-03-0.282D-03-0.311D-02 0.245D-01-0.817D-01 0.186D+00
 Coeff:     -0.608D+00 0.148D+01
 Gap=     0.490 Goal=   None    Shift=    0.000
 RMSDP=1.41D-06 MaxDP=1.19D-05 DE=-6.75D-09 OVMax= 8.55D-06

 Cycle   9  Pass 1  IDiag  3:
 E= -2.19241034991882     Delta-E=       -0.000000000713 Rises=F Damp=F
 DIIS: error= 8.63D-07 at cycle   9 NSaved=   9.
 NSaved= 9 IEnMin= 9 EnMin= -2.19241034991882     IErMin= 9 ErrMin= 8.63D-07
 ErrMax= 8.63D-07  0.00D+00 EMaxC= 1.00D-01 BMatC= 2.91D-11 BMatP= 1.23D-10
 IDIUse=1 WtCom= 1.00D+00 WtEn= 0.00D+00
 Coeff-Com: -0.859D-04 0.160D-03 0.195D-02-0.153D-01 0.521D-01-0.121D+00
 Coeff-Com:  0.439D+00-0.150D+01 0.214D+01
 Coeff:     -0.859D-04 0.160D-03 0.195D-02-0.153D-01 0.521D-01-0.121D+00
 Coeff:      0.439D+00-0.150D+01 0.214D+01
 Gap=     0.490 Goal=   None    Shift=    0.000
 RMSDP=1.09D-06 MaxDP=9.36D-06 DE=-7.13D-10 OVMax= 6.43D-06

 Cycle  10  Pass 1  IDiag  3:
 E= -2.19241035016161     Delta-E=       -0.000000000243 Rises=F Damp=F
 DIIS: error= 2.77D-07 at cycle  10 NSaved=  10.
 NSaved=10 IEnMin=10 EnMin= -2.19241035016161     IErMin=10 ErrMin= 2.77D-07
 ErrMax= 2.77D-07  0.00D+00 EMaxC= 1.00D-01 BMatC= 2.66D-12 BMatP= 2.91D-11
 IDIUse=1 WtCom= 1.00D+00 WtEn= 0.00D+00
 Coeff-Com:  0.759D-05 0.817D-05-0.407D-03 0.269D-02-0.932D-02 0.219D-01
 Coeff-Com: -0.917D-01 0.400D+00-0.936D+00 0.161D+01
 Coeff:      0.759D-05 0.817D-05-0.407D-03 0.269D-02-0.932D-02 0.219D-01
 Coeff:     -0.917D-01 0.400D+00-0.936D+00 0.161D+01
 Gap=     0.490 Goal=   None    Shift=    0.000
 RMSDP=3.94D-07 MaxDP=3.33D-06 DE=-2.43D-10 OVMax= 2.63D-06

 Cycle  11  Pass 1  IDiag  3:
 E= -2.19241035018318     Delta-E=       -0.000000000022 Rises=F Damp=F
 DIIS: error= 2.74D-08 at cycle  11 NSaved=  11.
 NSaved=11 IEnMin=11 EnMin= -2.19241035018318     IErMin=11 ErrMin= 2.74D-08
 ErrMax= 2.74D-08  0.00D+00 EMaxC= 1.00D-01 BMatC= 3.56D-14 BMatP= 2.66D-12
 IDIUse=1 WtCom= 1.00D+00 WtEn= 0.00D+00
 Coeff-Com: -0.225D-06-0.517D-05 0.645D-04-0.383D-03 0.139D-02-0.335D-02
 Coeff-Com:  0.160D-01-0.781D-01 0.215D+00-0.476D+00 0.133D+01
 Coeff:     -0.225D-06-0.517D-05 0.645D-04-0.383D-03 0.139D-02-0.335D-02
 Coeff:      0.160D-01-0.781D-01 0.215D+00-0.476D+00 0.133D+01
 Gap=     0.490 Goal=   None    Shift=    0.000
 RMSDP=2.86D-08 MaxDP=2.13D-07 DE=-2.16D-11 OVMax= 1.61D-07

 Cycle  12  Pass 1  IDiag  3:
 E= -2.19241035018342     Delta-E=        0.000000000000 Rises=F Damp=F
 DIIS: error= 3.28D-09 at cycle  12 NSaved=  12.
 NSaved=12 IEnMin=12 EnMin= -2.19241035018342     IErMin=12 ErrMin= 3.28D-09
 ErrMax= 3.28D-09  0.00D+00 EMaxC= 1.00D-01 BMatC= 8.28D-16 BMatP= 3.56D-14
 IDIUse=1 WtCom= 1.00D+00 WtEn= 0.00D+00
 Coeff-Com: -0.349D-07 0.208D-05-0.205D-04 0.117D-03-0.427D-03 0.103D-02
 Coeff-Com: -0.512D-02 0.253D-01-0.710D-01 0.163D+00-0.522D+00 0.141D+01
 Coeff:     -0.349D-07 0.208D-05-0.205D-04 0.117D-03-0.427D-03 0.103D-02
 Coeff:     -0.512D-02 0.253D-01-0.710D-01 0.163D+00-0.522D+00 0.141D+01
 Gap=     0.490 Goal=   None    Shift=    0.000
 RMSDP=3.34D-09 MaxDP=1.77D-08 DE=-2.42D-13 OVMax= 1.71D-08

 Cycle  13  Pass 2  IDiag  1:
 SCF Done:  E(RAM1) =  -2.19241035018     A.U. after   13 cycles
            NFock= 12  Conv=0.33D-08     -V/T= 0.8797
 KE=-1.823132779566D+01 PE=-1.698368901724D+02 EE= 8.447605088178D+01
 Leave Link  502 at Mon Nov 23 13:23:30 2015, MaxMem=    33554432 cpu:         0.0
 (Enter /home/Applications/g09/g09/l601.exe)
 Copying SCF densities to generalized density rwf, IOpCl= 0 IROHF=0.

 **********************************************************************

            Population analysis using the SCF density.

 **********************************************************************

 Orbital symmetries:
       Occupied  (A) (A) (A) (A) (A) (A) (A) (A) (A) (A) (A) (A)
                 (A)
       Virtual   (A) (A) (A) (A) (A) (A) (A) (A) (A) (A) (A)
 The electronic state is 1-A.
 Alpha  occ. eigenvalues --   -1.55086  -1.16680  -1.09787  -0.85450  -0.84594
 Alpha  occ. eigenvalues --   -0.78987  -0.74663  -0.51516  -0.46698  -0.41724
 Alpha  occ. eigenvalues --   -0.40019  -0.38828  -0.31773
 Alpha virt. eigenvalues --    0.17211   0.18209   0.26838   0.29278   0.31316
 Alpha virt. eigenvalues --    0.33589   0.34616   0.36235   0.40353   0.41370
 Alpha virt. eigenvalues --    0.46561
          Condensed to atoms (all electrons):
               1          2          3          4          5          6
     1  C    4.257617   0.000000   0.000000   0.000000   0.000000   0.000000
     2  C    0.000000   4.173764   0.000000   0.000000   0.000000   0.000000
     3  O    0.000000   0.000000   5.796415   0.000000   0.000000   0.000000
     4  C    0.000000   0.000000   0.000000   4.089025   0.000000   0.000000
     5  C    0.000000   0.000000   0.000000   0.000000   4.301721   0.000000
     6  H    0.000000   0.000000   0.000000   0.000000   0.000000   0.849597
     7  H    0.000000   0.000000   0.000000   0.000000   0.000000   0.000000
     8  H    0.000000   0.000000   0.000000   0.000000   0.000000   0.000000
     9  H    0.000000   0.000000   0.000000   0.000000   0.000000   0.000000
               7          8          9
     1  C    0.000000   0.000000   0.000000
     2  C    0.000000   0.000000   0.000000
     3  O    0.000000   0.000000   0.000000
     4  C    0.000000   0.000000   0.000000
     5  C    0.000000   0.000000   0.000000
     6  H    0.000000   0.000000   0.000000
     7  H    0.848633   0.000000   0.000000
     8  H    0.000000   0.835802   0.000000
     9  H    0.000000   0.000000   0.847427
 Mulliken charges:
               1
     1  C   -0.257617
     2  C   -0.173764
     3  O    0.203585
     4  C   -0.089025
     5  C   -0.301721
     6  H    0.150403
     7  H    0.151367
     8  H    0.164198
     9  H    0.152573
 Sum of Mulliken charges =   0.00000
 Mulliken charges with hydrogens summed into heavy atoms:
               1
     1  C   -0.105044
     2  C   -0.009566
     3  O    0.203585
     4  C    0.062342
     5  C   -0.151318
 Charge=              0.0000 electrons
 Dipole moment (field-independent basis, Debye):
    X=             -0.5891    Y=             -1.2520    Z=              0.1172  Tot=              1.3886
 N-N= 1.013997567361D+02 E-N=-1.698368901993D+02  KE=-1.823132779566D+01
 Leave Link  601 at Mon Nov 23 13:23:30 2015, MaxMem=    33554432 cpu:         0.0
 (Enter /home/Applications/g09/g09/l701.exe)
 Compute integral first derivatives.
 ... and contract with generalized density number  0.
 Leave Link  701 at Mon Nov 23 13:23:30 2015, MaxMem=    33554432 cpu:         0.0
 (Enter /home/Applications/g09/g09/l702.exe)
 L702 exits ... SP integral derivatives will be done elsewhere.
 Leave Link  702 at Mon Nov 23 13:23:30 2015, MaxMem=    33554432 cpu:         0.0
 (Enter /home/Applications/g09/g09/l703.exe)
 Compute integral first derivatives, UseDBF=F ICtDFT=           0.
 Integral derivatives from FoFJK, PRISM(SPDF).
 Calling FoFJK, ICntrl=      2127 FMM=F ISym2X=0 I1Cent= 0 IOpClX= 0 NMat=1 NMatS=1 NMatT=0.
 FoFJK:  IHMeth= 8 ICntrl=    2127 DoSepK=F KAlg= 0 I1Cent=   0 FoldK=F
 IRaf=         0 NMat=   1 IRICut=       1 DoRegI=T DoRafI=F ISym2E= 0.
 FoFCou: FMM=F IPFlag=           0 FMFlag=      100000 FMFlg1=         800
         NFxFlg=           0 DoJE=F BraDBF=F KetDBF=F FulRan=T
         wScrn=  0.000000 ICntrl=    2127 IOpCl=  0 I1Cent=           0 NGrid=           0
         NMat0=    1 NMatS0=      1 NMatT0=    0 NMatD0=    1 NMtDS0=    0 NMtDT0=    0
 Symmetry not used in FoFCou.
 Leave Link  703 at Mon Nov 23 13:23:30 2015, MaxMem=    33554432 cpu:         0.0
 (Enter /home/Applications/g09/g09/l716.exe)
 Dipole        =-2.31779034D-01-4.92573545D-01 4.60932770D-02
 ***** Axes restored to original set *****
 -------------------------------------------------------------------
 Center     Atomic                   Forces (Hartrees/Bohr)
 Number     Number              X              Y              Z
 -------------------------------------------------------------------
      1        6          -0.092513545    0.016981333   -0.024146079
      2        6           0.105910323    0.106858680    0.021413936
      3        8          -0.081770114   -0.043418312   -0.014520281
      4        6           0.077886250   -0.003000098    0.017981731
      5        6          -0.038031513   -0.000577397    0.000228283
      6        1           0.020312647    0.008524949   -0.000025850
      7        1           0.003532601    0.011760861   -0.005476164
      8        1          -0.034278124   -0.076304057    0.000769461
      9        1           0.038951474   -0.020825958    0.003774962
 -------------------------------------------------------------------
 Cartesian Forces:  Max     0.106858680 RMS     0.046659270
 Leave Link  716 at Mon Nov 23 13:23:30 2015, MaxMem=    33554432 cpu:         0.0
 (Enter /home/Applications/g09/g09/l103.exe)

 GradGradGradGradGradGradGradGradGradGradGradGradGradGradGradGradGradGrad
 Berny optimization.
 FormGI is forming the generalized inverse of G from B-inverse, IUseBI=4.
 Internal  Forces:  Max     0.083416891 RMS     0.023265061
 Search for a local minimum.
 Step number   1 out of a maximum of   48
 All quantities printed in internal units (Hartrees-Bohrs-Radians)
 RMS Force = .23265D-01 SwitMx=.10000D-02 MixMth= 1
 Mixed Optimization -- RFO/linear search
 Second derivative matrix not updated -- first step.
 ITU=  0
     Eigenvalues ---    0.01540   0.01765   0.01791   0.01910   0.02048
     Eigenvalues ---    0.02268   0.15614   0.15765   0.15789   0.15999
     Eigenvalues ---    0.21989   0.22958   0.34716   0.37340   0.38771
     Eigenvalues ---    0.39410   0.43105   0.43880   0.50107   0.50122
     Eigenvalues ---    0.59109
 RFO step:  Lambda=-4.95347250D-02 EMin= 1.54043379D-02
 Linear search not attempted -- first point.
 Maximum step size (   0.300) exceeded in Quadratic search.
    -- Step size scaled by   0.916
 Iteration  1 RMS(Cart)=  0.04645328 RMS(Int)=  0.00370933
 Iteration  2 RMS(Cart)=  0.00263522 RMS(Int)=  0.00246701
 Iteration  3 RMS(Cart)=  0.00001085 RMS(Int)=  0.00246699
 Iteration  4 RMS(Cart)=  0.00000003 RMS(Int)=  0.00246699
 ITry= 1 IFail=0 DXMaxC= 1.37D-01 DCOld= 1.00D+10 DXMaxT= 3.00D-01 DXLimC= 3.00D+00 Rises=F
 Variable       Old X    -DE/DX   Delta X   Delta X   Delta X     New X
                                 (Linear)    (Quad)   (Total)
    R1        2.76272  -0.04703   0.00000  -0.10987  -0.10960   2.65312
    R2        2.63577  -0.01720   0.00000  -0.03727  -0.03802   2.59775
    R3        1.94240   0.04257   0.00000   0.08112   0.08112   2.02352
    R4        2.58053   0.00700   0.00000   0.01476   0.01565   2.59618
    R5        1.86443   0.08342   0.00000   0.13869   0.13869   2.00312
    R6        2.49446   0.05712   0.00000   0.08398   0.08427   2.57873
    R7        2.71162  -0.03532   0.00000  -0.06998  -0.07069   2.64093
    R8        2.02037   0.00842   0.00000   0.01824   0.01824   2.03861
    R9        1.99063   0.02115   0.00000   0.04366   0.04366   2.03429
    A1        1.85074   0.01420   0.00000   0.02432   0.02268   1.87342
    A2        2.11461   0.00329   0.00000   0.03668   0.03662   2.15123
    A3        2.30647  -0.01684   0.00000  -0.05147  -0.05153   2.25494
    A4        1.83694   0.02141   0.00000   0.06983   0.06776   1.90470
    A5        2.29105  -0.01009   0.00000  -0.02573  -0.02875   2.26229
    A6        2.13957  -0.00968   0.00000  -0.02195  -0.02468   2.11489
    A7        1.98386  -0.04662   0.00000  -0.12347  -0.12246   1.86140
    A8        1.85963   0.01459   0.00000   0.06405   0.06198   1.92160
    A9        2.07129   0.00061   0.00000   0.00845   0.00793   2.07922
   A10        2.33985  -0.01426   0.00000  -0.05852  -0.05970   2.28014
   A11        1.88864  -0.00275   0.00000  -0.02320  -0.02515   1.86349
   A12        2.24198  -0.00472   0.00000  -0.01501  -0.01412   2.22786
   A13        2.15253   0.00749   0.00000   0.03841   0.03923   2.19176
    D1       -0.07967   0.00520   0.00000   0.09005   0.09598   0.01631
    D2       -3.03086  -0.00448   0.00000  -0.04352  -0.03909  -3.06995
    D3       -3.07843   0.00264   0.00000   0.03580   0.03657  -3.04186
    D4        0.25356  -0.00704   0.00000  -0.09777  -0.09850   0.15506
    D5        0.03809  -0.00380   0.00000  -0.04811  -0.04713  -0.00904
    D6       -3.11261  -0.00132   0.00000  -0.02305  -0.02545  -3.13806
    D7        3.01463   0.00203   0.00000   0.02618   0.02789   3.04252
    D8       -0.13607   0.00452   0.00000   0.05124   0.04957  -0.08650
    D9        0.09875  -0.00950   0.00000  -0.11731  -0.11565  -0.01689
   D10        3.07070  -0.00134   0.00000  -0.00007   0.00419   3.07489
   D11       -0.07583   0.00719   0.00000   0.08863   0.08712   0.01129
   D12       -3.07204   0.00309   0.00000   0.01310   0.00582  -3.06621
   D13        0.01921  -0.00008   0.00000  -0.01588  -0.02052  -0.00130
   D14       -3.11384  -0.00233   0.00000  -0.03905  -0.04130   3.12804
   D15        2.98298   0.00750   0.00000   0.08784   0.08351   3.06649
   D16       -0.15007   0.00524   0.00000   0.06467   0.06273  -0.08735
         Item               Value     Threshold  Converged?
 Maximum Force            0.083417     0.000450     NO 
 RMS     Force            0.023265     0.000300     NO 
 Maximum Displacement     0.136717     0.001800     NO 
 RMS     Displacement     0.045981     0.001200     NO 
 Predicted change in Energy=-2.828305D-02
 Lowest energy point so far.  Saving SCF results.
 GradGradGradGradGradGradGradGradGradGradGradGradGradGradGradGradGradGrad

 Leave Link  103 at Mon Nov 23 13:23:30 2015, MaxMem=    33554432 cpu:         0.0
 (Enter /home/Applications/g09/g09/l202.exe)
                          Input orientation:                          
 ---------------------------------------------------------------------
 Center     Atomic      Atomic             Coordinates (Angstroms)
 Number     Number       Type             X           Y           Z
 ---------------------------------------------------------------------
      1          6           0        0.960768   -0.684827    0.011061
      2          6           0       -0.382195   -1.094016   -0.001232
      3          8           0       -1.190873    0.016158   -0.032729
      4          6           0       -0.364773    1.102203   -0.017893
      5          6           0        0.970257    0.689805    0.008191
      6          1           0        1.827118    1.341436    0.012178
      7          1           0       -0.796302    2.089598    0.033211
      8          1           0       -0.792013   -2.069958    0.055298
      9          1           0        1.783235   -1.367414   -0.054014
 ---------------------------------------------------------------------
                    Distance matrix (angstroms):
                    1          2          3          4          5
     1  C    0.000000
     2  C    1.403971   0.000000
     3  O    2.263372   1.373841   0.000000
     4  C    2.225168   2.196352   1.364608   0.000000
     5  C    1.374668   2.238578   2.264058   1.397519   0.000000
     6  H    2.203703   3.288262   3.296459   2.205112   1.076498
     7  H    3.284085   3.210618   2.111678   1.078785   2.254058
     8  H    2.234454   1.060004   2.125728   3.201639   3.274768
     9  H    1.070800   2.183259   3.280250   3.273263   2.212906
                    6          7          8          9
     6  H    0.000000
     7  H    2.728098   0.000000
     8  H    4.301082   4.159616   0.000000
     9  H    2.710014   4.314226   2.671595   0.000000
 Stoichiometry    C4H4O
 Framework group  C1[X(C4H4O)]
 Deg. of freedom    21
 Full point group                 C1      NOp   1
 RotChk:  IX=0 Diff= 3.77D-01
 Largest Abelian subgroup         C1      NOp   1
 Largest concise Abelian subgroup C1      NOp   1
                         Standard orientation:                         
 ---------------------------------------------------------------------
 Center     Atomic      Atomic             Coordinates (Angstroms)
 Number     Number       Type             X           Y           Z
 ---------------------------------------------------------------------
      1          6           0        0.690561    0.971939    0.005636
      2          6           0        1.099601   -0.371125    0.005719
      3          8           0       -0.010718   -1.179952   -0.014991
      4          6           0       -1.096651   -0.353624   -0.005719
      5          6           0       -0.684073    0.981554    0.006048
      6          1           0       -1.335618    1.838484    0.003097
      7          1           0       -2.083955   -0.784512    0.052106
      8          1           0        2.075642   -0.780468    0.063934
      9          1           0        1.373058    1.793641   -0.069308
 ---------------------------------------------------------------------
 Rotational constants (GHZ):      9.5872470      8.9991245      4.6433058
 Leave Link  202 at Mon Nov 23 13:23:30 2015, MaxMem=    33554432 cpu:         0.0
 (Enter /home/Applications/g09/g09/l301.exe)

 Semi-emprical parameters in input format:
 Method=8 CoreType=1 PeptideFC=0.0166290000 RIJScale=0.6119410000
 ****
 H       
 PQN=1 NValence=1 F0ss=0.4150770000 ZetaOverlap=1.0810580000 U=-0.4286880000
 Beta=-0.2869890000 CoreKO=1.2114800000 KON=0,0,0,1.1025190000 KON=1,0,1,1.1074920000
 KON=0,1,1,1.0916540000 KON=2,1,1,1.0589200000 EISol=-0.4188110042 EHeat=0.0830298228
 Alpha=1.5030030000
 GCore=0.0071120000,1.1207970000,2.7005670000
 GCore=0.0003230000,1.4222460000,3.4015070000
 GCore=-0.0013380000,0.4405990000,4.4481290000
 ****
 C       
 PQN=2,2 NValence=4 F0ss=0.4202500000 F0sp=0.4263690000 F0pp=0.3424460000 F2pp=0.1977130000
 G1sp=0.2746580000
 ZetaOverlap=1.7498310000,1.3881390000
 U=-1.7944250000,-1.4545000000
 Beta=-0.5214990000,-0.3746580000 DDN=0,1,0.8234340000 DDN=1,1,0.7559950000
 CoreKO=1.2002200000 KON=0,0,0,1.1694410000 KON=1,0,1,0.9096420000 KON=0,1,1,0.9370920000
 KON=2,1,1,0.5201690000 EISol=-4.4398989268 EHeat=0.2723305520 Alpha=1.3947510000
 DipHyp=1.6467732542
 GCore=0.0008780000,1.2683970000,2.4090670000
 GCore=0.0034720000,1.4096270000,3.6574610000
 GCore=-0.0014060000,1.4542400000,3.3154880000
 GCore=-0.0001000000,1.4766960000,5.0661660000
 ****
 O       
 PQN=2,2 NValence=6 F0ss=0.5672460000 F0sp=0.5681160000 F0pp=0.4898210000 F2pp=0.2703590000
 G1sp=0.4169050000
 ZetaOverlap=2.7263600000,1.8505270000
 U=-3.5241930000,-3.0238760000
 Beta=-0.9772650000,-1.1886600000 DDN=0,1,0.5807610000 DDN=1,1,0.4521100000
 CoreKO=0.9925760000 KON=0,0,0,0.8355350000 KON=1,0,1,0.5454830000 KON=0,1,1,0.8378550000
 KON=2,1,1,0.5017630000 EISol=-11.6164441184 EHeat=0.0949133088 Alpha=2.2627970000
 DipHyp=1.1614551766
 GCore=0.0225710000,1.2849200000,1.7519400000
 GCore=0.0054870000,1.7991710000,2.8334770000
 ****
 
 Standard basis: VSTO-6G (5D, 7F)
 Ernie: Thresh=  0.10000D-02 Tol=  0.10000D-05 Strict=F.
  NNHCO=     0 NNPyr=     0 NCTC=     0               EPep=         0.000000000
    EC=        66.561650942  ECS=         1.771739993   EG=         0.417046770
   EHC=         0.000000000  EAt=       -31.051283842  AtH=         1.516354808
 EPDDG=         0.000000000  ECC=        68.750437705 EAtT=        32.567638650
 There are    24 symmetry adapted cartesian basis functions of A   symmetry.
 There are    24 symmetry adapted basis functions of A   symmetry.
    24 basis functions,   144 primitive gaussians,    24 cartesian basis functions
    13 alpha electrons       13 beta electrons
       nuclear repulsion energy       101.3180763551 Hartrees.
 IExCor=    0 DFT=F Ex=HF Corr=None ExCW=0 ScaHFX=  1.000000
 ScaDFX=  1.000000  1.000000  1.000000  1.000000 ScalE2=  1.000000  1.000000
 IRadAn=      0 IRanWt=     -1 IRanGd=            0 ICorTp=0 IEmpDi=  4
 Integral buffers will be    131072 words long.
 Regular integral format.
 Two-electron integral symmetry is turned off.
 Leave Link  301 at Mon Nov 23 13:23:30 2015, MaxMem=    33554432 cpu:         0.0
 (Enter /home/Applications/g09/g09/l302.exe)
 Do NDO integrals.
 NPDir=0 NMtPBC=     1 NCelOv=     1 NCel=       1 NClECP=     1 NCelD=      1
         NCelK=      1 NCelE2=     1 NClLst=     1 CellRange=     0.0.
 One-electron integrals computed using PRISM.
 NBasis=    24 RedAO= F EigKep=  0.00D+00  NBF=    24
 NBsUse=    24 1.00D-04 EigRej=  0.00D+00 NBFU=    24
 Leave Link  302 at Mon Nov 23 13:23:30 2015, MaxMem=    33554432 cpu:         0.0
 (Enter /home/Applications/g09/g09/l303.exe)
 DipDrv:  MaxL=1.
 Leave Link  303 at Mon Nov 23 13:23:30 2015, MaxMem=    33554432 cpu:         0.0
 (Enter /home/Applications/g09/g09/l401.exe)
 Initial guess from the checkpoint file:  "/home/Applications/g09/scratch/Gau-4879.chk"
 B after Tr=     0.000000    0.000000    0.000000
         Rot=    0.990907   -0.000083   -0.000033   -0.134549 Ang= -15.47 deg.
 Guess basis will be translated and rotated to current coordinates.
 JPrj=0 DoOrth=T DoCkMO=T.
 Leave Link  401 at Mon Nov 23 13:23:30 2015, MaxMem=    33554432 cpu:         0.0
 (Enter /home/Applications/g09/g09/l502.exe)
 Closed shell SCF:
 Using DIIS extrapolation, IDIIS=  1040.
 Overlap will be assumed to be unity.
 Two-electron integral symmetry not used.
 Keep J ints in memory in canonical form, NReq=888082.
 IVT=       79475 IEndB=       79475 NGot=    33554432 MDV=    33473473
 LenX=    33473473 LenY=    33472456
 Requested convergence on RMS density matrix=1.00D-08 within 128 cycles.
 Requested convergence on MAX density matrix=1.00D-06.
 Requested convergence on             energy=1.00D-06.
 No special actions if energy rises.
 FoFCou: FMM=F IPFlag=           0 FMFlag=           0 FMFlg1=           0
         NFxFlg=           0 DoJE=F BraDBF=F KetDBF=F FulRan=T
         wScrn=  0.000000 ICntrl=     600 IOpCl=  2 I1Cent=           0 NGrid=           0
         NMat0=    1 NMatS0=     54 NMatT0=    0 NMatD0=    1 NMtDS0=    0 NMtDT0=    0
 Symmetry not used in FoFCou.

 Cycle   1  Pass 1  IDiag  1:
 E= -2.19900635391649    
 DIIS: error= 1.14D-02 at cycle   1 NSaved=   1.
 NSaved= 1 IEnMin= 1 EnMin= -2.19900635391649     IErMin= 1 ErrMin= 1.14D-02
 ErrMax= 1.14D-02  0.00D+00 EMaxC= 1.00D-01 BMatC= 8.31D-03 BMatP= 8.31D-03
 IDIUse=3 WtCom= 8.86D-01 WtEn= 1.14D-01
 Coeff-Com:  0.100D+01
 Coeff-En:   0.100D+01
 Coeff:      0.100D+01
 GapD=    2.000 DampG=2.000 DampE=0.500 DampFc=1.0000 IDamp=-1.
 RMSDP=4.81D-03 MaxDP=1.85D-02              OVMax= 0.00D+00

 Cycle   2  Pass 1  IDiag  3:
 E= -2.21694764936200     Delta-E=       -0.017941295446 Rises=F Damp=F
 DIIS: error= 3.26D-03 at cycle   2 NSaved=   2.
 NSaved= 2 IEnMin= 2 EnMin= -2.21694764936200     IErMin= 2 ErrMin= 3.26D-03
 ErrMax= 3.26D-03  0.00D+00 EMaxC= 1.00D-01 BMatC= 6.32D-04 BMatP= 8.31D-03
 IDIUse=3 WtCom= 9.67D-01 WtEn= 3.26D-02
 Coeff-Com: -0.333D+00 0.133D+01
 Coeff-En:   0.000D+00 0.100D+01
 Coeff:     -0.323D+00 0.132D+01
 Gap=     0.492 Goal=   None    Shift=    0.000
 RMSDP=2.11D-03 MaxDP=7.78D-03 DE=-1.79D-02 OVMax= 1.12D-02

 Cycle   3  Pass 1  IDiag  3:
 E= -2.21887338711254     Delta-E=       -0.001925737751 Rises=F Damp=F
 DIIS: error= 6.53D-04 at cycle   3 NSaved=   3.
 NSaved= 3 IEnMin= 3 EnMin= -2.21887338711254     IErMin= 3 ErrMin= 6.53D-04
 ErrMax= 6.53D-04  0.00D+00 EMaxC= 1.00D-01 BMatC= 1.64D-05 BMatP= 6.32D-04
 IDIUse=3 WtCom= 9.93D-01 WtEn= 6.53D-03
 Coeff-Com:  0.917D-01-0.440D+00 0.135D+01
 Coeff-En:   0.000D+00 0.000D+00 0.100D+01
 Coeff:      0.911D-01-0.437D+00 0.135D+01
 Gap=     0.492 Goal=   None    Shift=    0.000
 RMSDP=5.07D-04 MaxDP=3.01D-03 DE=-1.93D-03 OVMax= 4.42D-03

 Cycle   4  Pass 1  IDiag  3:
 E= -2.21895659675447     Delta-E=       -0.000083209642 Rises=F Damp=F
 DIIS: error= 2.03D-04 at cycle   4 NSaved=   4.
 NSaved= 4 IEnMin= 4 EnMin= -2.21895659675447     IErMin= 4 ErrMin= 2.03D-04
 ErrMax= 2.03D-04  0.00D+00 EMaxC= 1.00D-01 BMatC= 1.30D-06 BMatP= 1.64D-05
 IDIUse=3 WtCom= 9.98D-01 WtEn= 2.03D-03
 Coeff-Com: -0.113D-01 0.659D-01-0.412D+00 0.136D+01
 Coeff-En:   0.000D+00 0.000D+00 0.000D+00 0.100D+01
 Coeff:     -0.113D-01 0.658D-01-0.412D+00 0.136D+01
 Gap=     0.493 Goal=   None    Shift=    0.000
 RMSDP=1.65D-04 MaxDP=1.39D-03 DE=-8.32D-05 OVMax= 1.75D-03

 Cycle   5  Pass 1  IDiag  3:
 E= -2.21896452190892     Delta-E=       -0.000007925154 Rises=F Damp=F
 DIIS: error= 8.10D-05 at cycle   5 NSaved=   5.
 NSaved= 5 IEnMin= 5 EnMin= -2.21896452190892     IErMin= 5 ErrMin= 8.10D-05
 ErrMax= 8.10D-05  0.00D+00 EMaxC= 1.00D-01 BMatC= 2.04D-07 BMatP= 1.30D-06
 IDIUse=1 WtCom= 1.00D+00 WtEn= 0.00D+00
 Coeff-Com: -0.291D-02 0.646D-02 0.120D+00-0.847D+00 0.172D+01
 Coeff:     -0.291D-02 0.646D-02 0.120D+00-0.847D+00 0.172D+01
 Gap=     0.492 Goal=   None    Shift=    0.000
 RMSDP=7.84D-05 MaxDP=7.03D-04 DE=-7.93D-06 OVMax= 6.95D-04

 Cycle   6  Pass 1  IDiag  3:
 E= -2.21896593578006     Delta-E=       -0.000001413871 Rises=F Damp=F
 DIIS: error= 2.89D-05 at cycle   6 NSaved=   6.
 NSaved= 6 IEnMin= 6 EnMin= -2.21896593578006     IErMin= 6 ErrMin= 2.89D-05
 ErrMax= 2.89D-05  0.00D+00 EMaxC= 1.00D-01 BMatC= 2.52D-08 BMatP= 2.04D-07
 IDIUse=1 WtCom= 1.00D+00 WtEn= 0.00D+00
 Coeff-Com:  0.262D-02-0.784D-02-0.682D-01 0.580D+00-0.145D+01 0.195D+01
 Coeff:      0.262D-02-0.784D-02-0.682D-01 0.580D+00-0.145D+01 0.195D+01
 Gap=     0.492 Goal=   None    Shift=    0.000
 RMSDP=3.06D-05 MaxDP=2.45D-04 DE=-1.41D-06 OVMax= 2.10D-04

 Cycle   7  Pass 1  IDiag  3:
 E= -2.21896612054256     Delta-E=       -0.000000184762 Rises=F Damp=F
 DIIS: error= 8.53D-06 at cycle   7 NSaved=   7.
 NSaved= 7 IEnMin= 7 EnMin= -2.21896612054256     IErMin= 7 ErrMin= 8.53D-06
 ErrMax= 8.53D-06  0.00D+00 EMaxC= 1.00D-01 BMatC= 2.18D-09 BMatP= 2.52D-08
 IDIUse=1 WtCom= 1.00D+00 WtEn= 0.00D+00
 Coeff-Com: -0.166D-02 0.507D-02 0.422D-01-0.367D+00 0.952D+00-0.147D+01
 Coeff-Com:  0.183D+01
 Coeff:     -0.166D-02 0.507D-02 0.422D-01-0.367D+00 0.952D+00-0.147D+01
 Coeff:      0.183D+01
 Gap=     0.492 Goal=   None    Shift=    0.000
 RMSDP=8.80D-06 MaxDP=7.09D-05 DE=-1.85D-07 OVMax= 6.40D-05

 Cycle   8  Pass 1  IDiag  3:
 E= -2.21896613711124     Delta-E=       -0.000000016569 Rises=F Damp=F
 DIIS: error= 2.93D-06 at cycle   8 NSaved=   8.
 NSaved= 8 IEnMin= 8 EnMin= -2.21896613711124     IErMin= 8 ErrMin= 2.93D-06
 ErrMax= 2.93D-06  0.00D+00 EMaxC= 1.00D-01 BMatC= 2.60D-10 BMatP= 2.18D-09
 IDIUse=1 WtCom= 1.00D+00 WtEn= 0.00D+00
 Coeff-Com:  0.110D-02-0.357D-02-0.224D-01 0.209D+00-0.556D+00 0.889D+00
 Coeff-Com: -0.138D+01 0.186D+01
 Coeff:      0.110D-02-0.357D-02-0.224D-01 0.209D+00-0.556D+00 0.889D+00
 Coeff:     -0.138D+01 0.186D+01
 Gap=     0.492 Goal=   None    Shift=    0.000
 RMSDP=3.20D-06 MaxDP=2.73D-05 DE=-1.66D-08 OVMax= 2.23D-05

 Cycle   9  Pass 1  IDiag  3:
 E= -2.21896613905064     Delta-E=       -0.000000001939 Rises=F Damp=F
 DIIS: error= 8.08D-07 at cycle   9 NSaved=   9.
 NSaved= 9 IEnMin= 9 EnMin= -2.21896613905064     IErMin= 9 ErrMin= 8.08D-07
 ErrMax= 8.08D-07  0.00D+00 EMaxC= 1.00D-01 BMatC= 1.68D-11 BMatP= 2.60D-10
 IDIUse=1 WtCom= 1.00D+00 WtEn= 0.00D+00
 Coeff-Com: -0.193D-03 0.618D-03 0.434D-02-0.396D-01 0.105D+00-0.175D+00
 Coeff-Com:  0.325D+00-0.718D+00 0.150D+01
 Coeff:     -0.193D-03 0.618D-03 0.434D-02-0.396D-01 0.105D+00-0.175D+00
 Coeff:      0.325D+00-0.718D+00 0.150D+01
 Gap=     0.492 Goal=   None    Shift=    0.000
 RMSDP=7.88D-07 MaxDP=5.90D-06 DE=-1.94D-09 OVMax= 5.80D-06

 Cycle  10  Pass 1  IDiag  3:
 E= -2.21896613915818     Delta-E=       -0.000000000108 Rises=F Damp=F
 DIIS: error= 1.39D-07 at cycle  10 NSaved=  10.
 NSaved=10 IEnMin=10 EnMin= -2.21896613915818     IErMin=10 ErrMin= 1.39D-07
 ErrMax= 1.39D-07  0.00D+00 EMaxC= 1.00D-01 BMatC= 4.42D-13 BMatP= 1.68D-11
 IDIUse=1 WtCom= 1.00D+00 WtEn= 0.00D+00
 Coeff-Com:  0.234D-04-0.737D-04-0.577D-03 0.521D-02-0.139D-01 0.248D-01
 Coeff-Com: -0.557D-01 0.173D+00-0.521D+00 0.139D+01
 Coeff:      0.234D-04-0.737D-04-0.577D-03 0.521D-02-0.139D-01 0.248D-01
 Coeff:     -0.557D-01 0.173D+00-0.521D+00 0.139D+01
 Gap=     0.492 Goal=   None    Shift=    0.000
 RMSDP=9.02D-08 MaxDP=6.59D-07 DE=-1.08D-10 OVMax= 5.41D-07

 Cycle  11  Pass 1  IDiag  3:
 E= -2.21896613916033     Delta-E=       -0.000000000002 Rises=F Damp=F
 DIIS: error= 2.05D-08 at cycle  11 NSaved=  11.
 NSaved=11 IEnMin=11 EnMin= -2.21896613916033     IErMin=11 ErrMin= 2.05D-08
 ErrMax= 2.05D-08  0.00D+00 EMaxC= 1.00D-01 BMatC= 1.22D-14 BMatP= 4.42D-13
 IDIUse=1 WtCom= 1.00D+00 WtEn= 0.00D+00
 Coeff-Com: -0.307D-05 0.873D-05 0.106D-03-0.897D-03 0.240D-02-0.462D-02
 Coeff-Com:  0.121D-01-0.454D-01 0.156D+00-0.526D+00 0.141D+01
 Coeff:     -0.307D-05 0.873D-05 0.106D-03-0.897D-03 0.240D-02-0.462D-02
 Coeff:      0.121D-01-0.454D-01 0.156D+00-0.526D+00 0.141D+01
 Gap=     0.492 Goal=   None    Shift=    0.000
 RMSDP=1.33D-08 MaxDP=9.38D-08 DE=-2.15D-12 OVMax= 6.10D-08

 Cycle  12  Pass 1  IDiag  3:
 E= -2.21896613916064     Delta-E=        0.000000000000 Rises=F Damp=F
 DIIS: error= 2.96D-09 at cycle  12 NSaved=  12.
 NSaved=12 IEnMin=12 EnMin= -2.21896613916064     IErMin=12 ErrMin= 2.96D-09
 ErrMax= 2.96D-09  0.00D+00 EMaxC= 1.00D-01 BMatC= 2.98D-16 BMatP= 1.22D-14
 IDIUse=1 WtCom= 1.00D+00 WtEn= 0.00D+00
 Coeff-Com:  0.839D-06-0.226D-05-0.336D-04 0.279D-03-0.753D-03 0.152D-02
 Coeff-Com: -0.424D-02 0.168D-01-0.592D-01 0.208D+00-0.631D+00 0.147D+01
 Coeff:      0.839D-06-0.226D-05-0.336D-04 0.279D-03-0.753D-03 0.152D-02
 Coeff:     -0.424D-02 0.168D-01-0.592D-01 0.208D+00-0.631D+00 0.147D+01
 Gap=     0.492 Goal=   None    Shift=    0.000
 RMSDP=2.06D-09 MaxDP=1.34D-08 DE=-3.13D-13 OVMax= 9.01D-09

 Cycle  13  Pass 2  IDiag  1:
 SCF Done:  E(RAM1) =  -2.21896613916     A.U. after   13 cycles
            NFock= 12  Conv=0.21D-08     -V/T= 0.8781
 KE=-1.820031464464D+01 PE=-1.698388880886D+02 EE= 8.450216023901D+01
 Leave Link  502 at Mon Nov 23 13:23:30 2015, MaxMem=    33554432 cpu:         0.0
 (Enter /home/Applications/g09/g09/l701.exe)
 Compute integral first derivatives.
 ... and contract with generalized density number  0.
 Leave Link  701 at Mon Nov 23 13:23:30 2015, MaxMem=    33554432 cpu:         0.0
 (Enter /home/Applications/g09/g09/l702.exe)
 L702 exits ... SP integral derivatives will be done elsewhere.
 Leave Link  702 at Mon Nov 23 13:23:30 2015, MaxMem=    33554432 cpu:         0.0
 (Enter /home/Applications/g09/g09/l703.exe)
 Compute integral first derivatives, UseDBF=F ICtDFT=           0.
 Integral derivatives from FoFJK, PRISM(SPDF).
 Calling FoFJK, ICntrl=      2127 FMM=F ISym2X=0 I1Cent= 0 IOpClX= 0 NMat=1 NMatS=1 NMatT=0.
 FoFJK:  IHMeth= 8 ICntrl=    2127 DoSepK=F KAlg= 0 I1Cent=   0 FoldK=F
 IRaf=         0 NMat=   1 IRICut=       1 DoRegI=T DoRafI=F ISym2E= 0.
 FoFCou: FMM=F IPFlag=           0 FMFlag=      100000 FMFlg1=         800
         NFxFlg=           0 DoJE=F BraDBF=F KetDBF=F FulRan=T
         wScrn=  0.000000 ICntrl=    2127 IOpCl=  0 I1Cent=           0 NGrid=           0
         NMat0=    1 NMatS0=      1 NMatT0=    0 NMatD0=    1 NMtDS0=    0 NMtDT0=    0
 Symmetry not used in FoFCou.
 Leave Link  703 at Mon Nov 23 13:23:30 2015, MaxMem=    33554432 cpu:         0.0
 (Enter /home/Applications/g09/g09/l716.exe)
 Dipole        =-1.11576682D-02-4.10569191D-01 4.20089768D-03
 ***** Axes restored to original set *****
 -------------------------------------------------------------------
 Center     Atomic                   Forces (Hartrees/Bohr)
 Number     Number              X              Y              Z
 -------------------------------------------------------------------
      1        6          -0.025624221   -0.028386948   -0.006605626
      2        6           0.029071679    0.020438825    0.000771640
      3        8          -0.016570597   -0.008234554    0.004148071
      4        6           0.020879306    0.002344805    0.005322426
      5        6          -0.015077962    0.026170145   -0.002348824
      6        1           0.003285285   -0.000697300    0.000402730
      7        1           0.001338846    0.002016640   -0.003855569
      8        1          -0.006876224   -0.013358179   -0.002736720
      9        1           0.009573888   -0.000293435    0.004901871
 -------------------------------------------------------------------
 Cartesian Forces:  Max     0.029071679 RMS     0.013468509
 Leave Link  716 at Mon Nov 23 13:23:30 2015, MaxMem=    33554432 cpu:         0.0
 (Enter /home/Applications/g09/g09/l103.exe)

 GradGradGradGradGradGradGradGradGradGradGradGradGradGradGradGradGradGrad
 Berny optimization.
 Using GEDIIS/GDIIS optimizer.
 FormGI is forming the generalized inverse of G from B-inverse, IUseBI=4.
 Internal  Forces:  Max     0.019489630 RMS     0.006403933
 Search for a local minimum.
 Step number   2 out of a maximum of   48
 All quantities printed in internal units (Hartrees-Bohrs-Radians)
 RMS Force = .64039D-02 SwitMx=.10000D-02 MixMth= 1
 Mixed Optimization -- RFO/linear search
 Update second derivatives using D2CorX and points    1    2
 DE= -2.66D-02 DEPred=-2.83D-02 R= 9.39D-01
 TightC=F SS=  1.41D+00  RLast= 3.89D-01 DXNew= 5.0454D-01 1.1664D+00
 Trust test= 9.39D-01 RLast= 3.89D-01 DXMaxT set to 5.05D-01
 ITU=  1  0
 Use linear search instead of GDIIS.
     Eigenvalues ---    0.01502   0.01738   0.01853   0.01881   0.02051
     Eigenvalues ---    0.02404   0.15471   0.15970   0.15985   0.16012
     Eigenvalues ---    0.21997   0.23641   0.32158   0.36500   0.37371
     Eigenvalues ---    0.39454   0.42363   0.46037   0.48793   0.53893
     Eigenvalues ---    0.57722
 RFO step:  Lambda=-5.86307858D-03 EMin= 1.50224036D-02
 Quartic linear search produced a step of  0.22159.
 Iteration  1 RMS(Cart)=  0.04469548 RMS(Int)=  0.00219341
 Iteration  2 RMS(Cart)=  0.00217820 RMS(Int)=  0.00081743
 Iteration  3 RMS(Cart)=  0.00000376 RMS(Int)=  0.00081742
 Iteration  4 RMS(Cart)=  0.00000000 RMS(Int)=  0.00081742
 ITry= 1 IFail=0 DXMaxC= 1.48D-01 DCOld= 1.00D+10 DXMaxT= 5.05D-01 DXLimC= 3.00D+00 Rises=F
 Variable       Old X    -DE/DX   Delta X   Delta X   Delta X     New X
                                 (Linear)    (Quad)   (Total)
    R1        2.65312  -0.01696  -0.02429  -0.04458  -0.06916   2.58396
    R2        2.59775   0.01949  -0.00843   0.05397   0.04535   2.64310
    R3        2.02352   0.00724   0.01798   0.01165   0.02962   2.05314
    R4        2.59618   0.00593   0.00347   0.01240   0.01589   2.61207
    R5        2.00312   0.01481   0.03073   0.02143   0.05216   2.05527
    R6        2.57873   0.01385   0.01867   0.01944   0.03841   2.61714
    R7        2.64093  -0.01417  -0.01566  -0.03411  -0.04961   2.59132
    R8        2.03861   0.00113   0.00404   0.00163   0.00567   2.04428
    R9        2.03429   0.00219   0.00967   0.00198   0.01165   2.04594
    A1        1.87342  -0.00051   0.00503  -0.00793  -0.00472   1.86870
    A2        2.15123   0.00626   0.00811   0.04270   0.05106   2.20230
    A3        2.25494  -0.00565  -0.01142  -0.03219  -0.04352   2.21142
    A4        1.90470   0.00428   0.01501   0.01230   0.02547   1.93017
    A5        2.26229  -0.00082  -0.00637   0.00230  -0.00415   2.25814
    A6        2.11489  -0.00344  -0.00547  -0.01699  -0.02251   2.09239
    A7        1.86140  -0.00419  -0.02713  -0.00344  -0.03151   1.82990
    A8        1.92160   0.00033   0.01373  -0.00270   0.00987   1.93147
    A9        2.07922   0.00180   0.00176   0.01194   0.01326   2.09247
   A10        2.28014  -0.00203  -0.01323  -0.00737  -0.02106   2.25908
   A11        1.86349   0.00013  -0.00557   0.00411  -0.00264   1.86084
   A12        2.22786  -0.00268  -0.00313  -0.01719  -0.02014   2.20772
   A13        2.19176   0.00255   0.00869   0.01362   0.02250   2.21426
    D1        0.01631  -0.00136   0.02127  -0.11867  -0.09664  -0.08033
    D2       -3.06995  -0.00160  -0.00866  -0.06748  -0.07482   3.13841
    D3       -3.04186  -0.00212   0.00810  -0.14653  -0.14010   3.10123
    D4        0.15506  -0.00237  -0.02183  -0.09534  -0.11828   0.03678
    D5       -0.00904   0.00074  -0.01044   0.06668   0.05629   0.04725
    D6       -3.13806   0.00026  -0.00564   0.02147   0.01660  -3.12146
    D7        3.04252   0.00235   0.00618   0.10166   0.10609  -3.13457
    D8       -0.08650   0.00187   0.01099   0.05644   0.06640  -0.02010
    D9       -0.01689   0.00142  -0.02563   0.12182   0.09647   0.07958
   D10        3.07489   0.00171   0.00093   0.07636   0.07752  -3.13077
   D11        0.01129  -0.00102   0.01930  -0.08067  -0.06011  -0.04882
   D12       -3.06621  -0.00235   0.00129  -0.10719  -0.10686   3.11011
   D13       -0.00130   0.00011  -0.00455   0.00787   0.00296   0.00165
   D14        3.12804   0.00053  -0.00915   0.05161   0.04245  -3.11269
   D15        3.06649   0.00184   0.01850   0.03939   0.05729   3.12378
   D16       -0.08735   0.00226   0.01390   0.08312   0.09678   0.00943
         Item               Value     Threshold  Converged?
 Maximum Force            0.019490     0.000450     NO 
 RMS     Force            0.006404     0.000300     NO 
 Maximum Displacement     0.147726     0.001800     NO 
 RMS     Displacement     0.044695     0.001200     NO 
 Predicted change in Energy=-4.185740D-03
 Lowest energy point so far.  Saving SCF results.
 GradGradGradGradGradGradGradGradGradGradGradGradGradGradGradGradGradGrad

 Leave Link  103 at Mon Nov 23 13:23:30 2015, MaxMem=    33554432 cpu:         0.0
 (Enter /home/Applications/g09/g09/l202.exe)
                          Input orientation:                          
 ---------------------------------------------------------------------
 Center     Atomic      Atomic             Coordinates (Angstroms)
 Number     Number       Type             X           Y           Z
 ---------------------------------------------------------------------
      1          6           0        0.938396   -0.698032    0.009303
      2          6           0       -0.371682   -1.088783   -0.017443
      3          8           0       -1.208052    0.009916    0.045444
      4          6           0       -0.360018    1.104138    0.006046
      5          6           0        0.950286    0.700372   -0.015200
      6          1           0        1.826097    1.336826   -0.021510
      7          1           0       -0.770658    2.104936    0.012436
      8          1           0       -0.792951   -2.091477   -0.013158
      9          1           0        1.803806   -1.354912    0.008152
 ---------------------------------------------------------------------
                    Distance matrix (angstroms):
                    1          2          3          4          5
     1  C    0.000000
     2  C    1.367372   0.000000
     3  O    2.260473   1.382248   0.000000
     4  C    2.221195   2.193078   1.384932   0.000000
     5  C    1.398668   2.224562   2.266899   1.371268   0.000000
     6  H    2.220272   3.273198   3.312285   2.198636   1.082662
     7  H    3.282911   3.218682   2.140447   1.081787   2.221534
     8  H    2.222557   1.087604   2.142801   3.224866   3.291398
     9  H    1.086475   2.191854   3.306877   3.275526   2.225586
                    6          7          8          9
     6  H    0.000000
     7  H    2.708188   0.000000
     8  H    4.314249   4.196551   0.000000
     9  H    2.691994   4.312590   2.699283   0.000000
 Stoichiometry    C4H4O
 Framework group  C1[X(C4H4O)]
 Deg. of freedom    21
 Full point group                 C1      NOp   1
 RotChk:  IX=2 Diff= 7.83D-02
 Largest Abelian subgroup         C1      NOp   1
 Largest concise Abelian subgroup C1      NOp   1
                         Standard orientation:                         
 ---------------------------------------------------------------------
 Center     Atomic      Atomic             Coordinates (Angstroms)
 Number     Number       Type             X           Y           Z
 ---------------------------------------------------------------------
      1          6           0        0.655099    0.989923    0.018002
      2          6           0        1.109915   -0.298800   -0.027182
      3          8           0        0.053644   -1.189063    0.021117
      4          6           0       -1.080951   -0.395415   -0.008091
      5          6           0       -0.742160    0.933342   -0.009237
      6          1           0       -1.420954    1.776769   -0.003999
      7          1           0       -2.060324   -0.854857   -0.009822
      8          1           0        2.132129   -0.670233   -0.027002
      9          1           0        1.268574    1.886531    0.030938
 ---------------------------------------------------------------------
 Rotational constants (GHZ):      9.5113022      9.0722935      4.6453038
 Leave Link  202 at Mon Nov 23 13:23:30 2015, MaxMem=    33554432 cpu:         0.0
 (Enter /home/Applications/g09/g09/l301.exe)

 Semi-emprical parameters in input format:
 Method=8 CoreType=1 PeptideFC=0.0166290000 RIJScale=0.6119410000
 ****
 H       
 PQN=1 NValence=1 F0ss=0.4150770000 ZetaOverlap=1.0810580000 U=-0.4286880000
 Beta=-0.2869890000 CoreKO=1.2114800000 KON=0,0,0,1.1025190000 KON=1,0,1,1.1074920000
 KON=0,1,1,1.0916540000 KON=2,1,1,1.0589200000 EISol=-0.4188110042 EHeat=0.0830298228
 Alpha=1.5030030000
 GCore=0.0071120000,1.1207970000,2.7005670000
 GCore=0.0003230000,1.4222460000,3.4015070000
 GCore=-0.0013380000,0.4405990000,4.4481290000
 ****
 C       
 PQN=2,2 NValence=4 F0ss=0.4202500000 F0sp=0.4263690000 F0pp=0.3424460000 F2pp=0.1977130000
 G1sp=0.2746580000
 ZetaOverlap=1.7498310000,1.3881390000
 U=-1.7944250000,-1.4545000000
 Beta=-0.5214990000,-0.3746580000 DDN=0,1,0.8234340000 DDN=1,1,0.7559950000
 CoreKO=1.2002200000 KON=0,0,0,1.1694410000 KON=1,0,1,0.9096420000 KON=0,1,1,0.9370920000
 KON=2,1,1,0.5201690000 EISol=-4.4398989268 EHeat=0.2723305520 Alpha=1.3947510000
 DipHyp=1.6467732542
 GCore=0.0008780000,1.2683970000,2.4090670000
 GCore=0.0034720000,1.4096270000,3.6574610000
 GCore=-0.0014060000,1.4542400000,3.3154880000
 GCore=-0.0001000000,1.4766960000,5.0661660000
 ****
 O       
 PQN=2,2 NValence=6 F0ss=0.5672460000 F0sp=0.5681160000 F0pp=0.4898210000 F2pp=0.2703590000
 G1sp=0.4169050000
 ZetaOverlap=2.7263600000,1.8505270000
 U=-3.5241930000,-3.0238760000
 Beta=-0.9772650000,-1.1886600000 DDN=0,1,0.5807610000 DDN=1,1,0.4521100000
 CoreKO=0.9925760000 KON=0,0,0,0.8355350000 KON=1,0,1,0.5454830000 KON=0,1,1,0.8378550000
 KON=2,1,1,0.5017630000 EISol=-11.6164441184 EHeat=0.0949133088 Alpha=2.2627970000
 DipHyp=1.1614551766
 GCore=0.0225710000,1.2849200000,1.7519400000
 GCore=0.0054870000,1.7991710000,2.8334770000
 ****
 
 Standard basis: VSTO-6G (5D, 7F)
 Ernie: Thresh=  0.10000D-02 Tol=  0.10000D-05 Strict=F.
  NNHCO=     0 NNPyr=     0 NCTC=     0               EPep=         0.000000000
    EC=        66.507605541  ECS=         1.759073271   EG=         0.407835907
   EHC=         0.000000000  EAt=       -31.051283842  AtH=         1.516354808
 EPDDG=         0.000000000  ECC=        68.674514719 EAtT=        32.567638650
 There are    24 symmetry adapted cartesian basis functions of A   symmetry.
 There are    24 symmetry adapted basis functions of A   symmetry.
    24 basis functions,   144 primitive gaussians,    24 cartesian basis functions
    13 alpha electrons       13 beta electrons
       nuclear repulsion energy       101.2421533698 Hartrees.
 IExCor=    0 DFT=F Ex=HF Corr=None ExCW=0 ScaHFX=  1.000000
 ScaDFX=  1.000000  1.000000  1.000000  1.000000 ScalE2=  1.000000  1.000000
 IRadAn=      0 IRanWt=     -1 IRanGd=            0 ICorTp=0 IEmpDi=  4
 Integral buffers will be    131072 words long.
 Regular integral format.
 Two-electron integral symmetry is turned off.
 Leave Link  301 at Mon Nov 23 13:23:30 2015, MaxMem=    33554432 cpu:         0.0
 (Enter /home/Applications/g09/g09/l302.exe)
 Do NDO integrals.
 NPDir=0 NMtPBC=     1 NCelOv=     1 NCel=       1 NClECP=     1 NCelD=      1
         NCelK=      1 NCelE2=     1 NClLst=     1 CellRange=     0.0.
 One-electron integrals computed using PRISM.
 NBasis=    24 RedAO= F EigKep=  0.00D+00  NBF=    24
 NBsUse=    24 1.00D-04 EigRej=  0.00D+00 NBFU=    24
 Leave Link  302 at Mon Nov 23 13:23:30 2015, MaxMem=    33554432 cpu:         0.0
 (Enter /home/Applications/g09/g09/l303.exe)
 DipDrv:  MaxL=1.
 Leave Link  303 at Mon Nov 23 13:23:30 2015, MaxMem=    33554432 cpu:         0.0
 (Enter /home/Applications/g09/g09/l401.exe)
 Initial guess from the checkpoint file:  "/home/Applications/g09/scratch/Gau-4879.chk"
 B after Tr=     0.000000    0.000000    0.000000
         Rot=    0.999686   -0.000081   -0.000060   -0.025060 Ang=  -2.87 deg.
 Guess basis will be translated and rotated to current coordinates.
 JPrj=0 DoOrth=T DoCkMO=T.
 Leave Link  401 at Mon Nov 23 13:23:30 2015, MaxMem=    33554432 cpu:         0.0
 (Enter /home/Applications/g09/g09/l502.exe)
 Closed shell SCF:
 Using DIIS extrapolation, IDIIS=  1040.
 Overlap will be assumed to be unity.
 Two-electron integral symmetry not used.
 Keep J ints in memory in canonical form, NReq=888082.
 IVT=       79475 IEndB=       79475 NGot=    33554432 MDV=    33473473
 LenX=    33473473 LenY=    33472456
 Requested convergence on RMS density matrix=1.00D-08 within 128 cycles.
 Requested convergence on MAX density matrix=1.00D-06.
 Requested convergence on             energy=1.00D-06.
 No special actions if energy rises.
 FoFCou: FMM=F IPFlag=           0 FMFlag=           0 FMFlg1=           0
         NFxFlg=           0 DoJE=F BraDBF=F KetDBF=F FulRan=T
         wScrn=  0.000000 ICntrl=     600 IOpCl=  2 I1Cent=           0 NGrid=           0
         NMat0=    1 NMatS0=     54 NMatT0=    0 NMatD0=    1 NMtDS0=    0 NMtDT0=    0
 Symmetry not used in FoFCou.

 Cycle   1  Pass 1  IDiag  1:
 E= -2.21150112555446    
 DIIS: error= 9.82D-03 at cycle   1 NSaved=   1.
 NSaved= 1 IEnMin= 1 EnMin= -2.21150112555446     IErMin= 1 ErrMin= 9.82D-03
 ErrMax= 9.82D-03  0.00D+00 EMaxC= 1.00D-01 BMatC= 3.43D-03 BMatP= 3.43D-03
 IDIUse=3 WtCom= 9.02D-01 WtEn= 9.82D-02
 Coeff-Com:  0.100D+01
 Coeff-En:   0.100D+01
 Coeff:      0.100D+01
 GapD=    2.000 DampG=2.000 DampE=1.000 DampFc=2.0000 IDamp=-1.
 RMSDP=3.49D-03 MaxDP=1.64D-02              OVMax= 0.00D+00

 Cycle   2  Pass 1  IDiag  3:
 E= -2.22009375493347     Delta-E=       -0.008592629379 Rises=F Damp=F
 DIIS: error= 3.11D-03 at cycle   2 NSaved=   2.
 NSaved= 2 IEnMin= 2 EnMin= -2.22009375493347     IErMin= 2 ErrMin= 3.11D-03
 ErrMax= 3.11D-03  0.00D+00 EMaxC= 1.00D-01 BMatC= 3.25D-04 BMatP= 3.43D-03
 IDIUse=3 WtCom= 9.69D-01 WtEn= 3.11D-02
 Coeff-Com: -0.387D+00 0.139D+01
 Coeff-En:   0.000D+00 0.100D+01
 Coeff:     -0.375D+00 0.138D+01
 Gap=     0.501 Goal=   None    Shift=    0.000
 RMSDP=1.79D-03 MaxDP=7.60D-03 DE=-8.59D-03 OVMax= 1.11D-02

 Cycle   3  Pass 1  IDiag  3:
 E= -2.22128111741807     Delta-E=       -0.001187362485 Rises=F Damp=F
 DIIS: error= 5.11D-04 at cycle   3 NSaved=   3.
 NSaved= 3 IEnMin= 3 EnMin= -2.22128111741807     IErMin= 3 ErrMin= 5.11D-04
 ErrMax= 5.11D-04  0.00D+00 EMaxC= 1.00D-01 BMatC= 9.61D-06 BMatP= 3.25D-04
 IDIUse=3 WtCom= 9.95D-01 WtEn= 5.11D-03
 Coeff-Com:  0.142D+00-0.592D+00 0.145D+01
 Coeff-En:   0.000D+00 0.000D+00 0.100D+01
 Coeff:      0.142D+00-0.589D+00 0.145D+01
 Gap=     0.501 Goal=   None    Shift=    0.000
 RMSDP=4.43D-04 MaxDP=2.66D-03 DE=-1.19D-03 OVMax= 4.02D-03

 Cycle   4  Pass 1  IDiag  3:
 E= -2.22133482693589     Delta-E=       -0.000053709518 Rises=F Damp=F
 DIIS: error= 1.31D-04 at cycle   4 NSaved=   4.
 NSaved= 4 IEnMin= 4 EnMin= -2.22133482693589     IErMin= 4 ErrMin= 1.31D-04
 ErrMax= 1.31D-04  0.00D+00 EMaxC= 1.00D-01 BMatC= 6.36D-07 BMatP= 9.61D-06
 IDIUse=3 WtCom= 9.99D-01 WtEn= 1.31D-03
 Coeff-Com: -0.342D-01 0.151D+00-0.514D+00 0.140D+01
 Coeff-En:   0.000D+00 0.000D+00 0.000D+00 0.100D+01
 Coeff:     -0.342D-01 0.151D+00-0.513D+00 0.140D+01
 Gap=     0.501 Goal=   None    Shift=    0.000
 RMSDP=1.14D-04 MaxDP=8.80D-04 DE=-5.37D-05 OVMax= 1.27D-03

 Cycle   5  Pass 1  IDiag  3:
 E= -2.22133868908438     Delta-E=       -0.000003862148 Rises=F Damp=F
 DIIS: error= 5.70D-05 at cycle   5 NSaved=   5.
 NSaved= 5 IEnMin= 5 EnMin= -2.22133868908438     IErMin= 5 ErrMin= 5.70D-05
 ErrMax= 5.70D-05  0.00D+00 EMaxC= 1.00D-01 BMatC= 1.03D-07 BMatP= 6.36D-07
 IDIUse=1 WtCom= 1.00D+00 WtEn= 0.00D+00
 Coeff-Com: -0.281D-02 0.735D-02 0.590D-01-0.696D+00 0.163D+01
 Coeff:     -0.281D-02 0.735D-02 0.590D-01-0.696D+00 0.163D+01
 Gap=     0.501 Goal=   None    Shift=    0.000
 RMSDP=5.51D-05 MaxDP=4.43D-04 DE=-3.86D-06 OVMax= 5.15D-04

 Cycle   6  Pass 1  IDiag  3:
 E= -2.22133936816910     Delta-E=       -0.000000679085 Rises=F Damp=F
 DIIS: error= 1.65D-05 at cycle   6 NSaved=   6.
 NSaved= 6 IEnMin= 6 EnMin= -2.22133936816910     IErMin= 6 ErrMin= 1.65D-05
 ErrMax= 1.65D-05  0.00D+00 EMaxC= 1.00D-01 BMatC= 9.46D-09 BMatP= 1.03D-07
 IDIUse=1 WtCom= 1.00D+00 WtEn= 0.00D+00
 Coeff-Com:  0.315D-02-0.110D-01-0.103D-01 0.357D+00-0.108D+01 0.175D+01
 Coeff:      0.315D-02-0.110D-01-0.103D-01 0.357D+00-0.108D+01 0.175D+01
 Gap=     0.501 Goal=   None    Shift=    0.000
 RMSDP=1.65D-05 MaxDP=1.25D-04 DE=-6.79D-07 OVMax= 9.84D-05

 Cycle   7  Pass 1  IDiag  3:
 E= -2.22133942926830     Delta-E=       -0.000000061099 Rises=F Damp=F
 DIIS: error= 5.29D-06 at cycle   7 NSaved=   7.
 NSaved= 7 IEnMin= 7 EnMin= -2.22133942926830     IErMin= 7 ErrMin= 5.29D-06
 ErrMax= 5.29D-06  0.00D+00 EMaxC= 1.00D-01 BMatC= 8.83D-10 BMatP= 9.46D-09
 IDIUse=1 WtCom= 1.00D+00 WtEn= 0.00D+00
 Coeff-Com: -0.217D-02 0.774D-02 0.426D-02-0.226D+00 0.718D+00-0.133D+01
 Coeff-Com:  0.183D+01
 Coeff:     -0.217D-02 0.774D-02 0.426D-02-0.226D+00 0.718D+00-0.133D+01
 Coeff:      0.183D+01
 Gap=     0.501 Goal=   None    Shift=    0.000
 RMSDP=5.18D-06 MaxDP=3.85D-05 DE=-6.11D-08 OVMax= 3.92D-05

 Cycle   8  Pass 1  IDiag  3:
 E= -2.22133943579148     Delta-E=       -0.000000006523 Rises=F Damp=F
 DIIS: error= 2.14D-06 at cycle   8 NSaved=   8.
 NSaved= 8 IEnMin= 8 EnMin= -2.22133943579148     IErMin= 8 ErrMin= 2.14D-06
 ErrMax= 2.14D-06  0.00D+00 EMaxC= 1.00D-01 BMatC= 1.38D-10 BMatP= 8.83D-10
 IDIUse=1 WtCom= 1.00D+00 WtEn= 0.00D+00
 Coeff-Com:  0.172D-02-0.624D-02-0.129D-02 0.160D+00-0.522D+00 0.101D+01
 Coeff-Com: -0.173D+01 0.209D+01
 Coeff:      0.172D-02-0.624D-02-0.129D-02 0.160D+00-0.522D+00 0.101D+01
 Coeff:     -0.173D+01 0.209D+01
 Gap=     0.501 Goal=   None    Shift=    0.000
 RMSDP=2.59D-06 MaxDP=2.18D-05 DE=-6.52D-09 OVMax= 2.07D-05

 Cycle   9  Pass 1  IDiag  3:
 E= -2.22133943692063     Delta-E=       -0.000000001129 Rises=F Damp=F
 DIIS: error= 4.18D-07 at cycle   9 NSaved=   9.
 NSaved= 9 IEnMin= 9 EnMin= -2.22133943692063     IErMin= 9 ErrMin= 4.18D-07
 ErrMax= 4.18D-07  0.00D+00 EMaxC= 1.00D-01 BMatC= 6.76D-12 BMatP= 1.38D-10
 IDIUse=1 WtCom= 1.00D+00 WtEn= 0.00D+00
 Coeff-Com: -0.456D-03 0.164D-02 0.775D-03-0.469D-01 0.150D+00-0.291D+00
 Coeff-Com:  0.535D+00-0.856D+00 0.151D+01
 Coeff:     -0.456D-03 0.164D-02 0.775D-03-0.469D-01 0.150D+00-0.291D+00
 Coeff:      0.535D+00-0.856D+00 0.151D+01
 Gap=     0.501 Goal=   None    Shift=    0.000
 RMSDP=5.37D-07 MaxDP=4.07D-06 DE=-1.13D-09 OVMax= 4.18D-06

 Cycle  10  Pass 1  IDiag  3:
 E= -2.22133943696751     Delta-E=       -0.000000000047 Rises=F Damp=F
 DIIS: error= 5.60D-08 at cycle  10 NSaved=  10.
 NSaved=10 IEnMin=10 EnMin= -2.22133943696751     IErMin=10 ErrMin= 5.60D-08
 ErrMax= 5.60D-08  0.00D+00 EMaxC= 1.00D-01 BMatC= 1.71D-13 BMatP= 6.76D-12
 IDIUse=1 WtCom= 1.00D+00 WtEn= 0.00D+00
 Coeff-Com:  0.587D-04-0.206D-03-0.203D-03 0.708D-02-0.222D-01 0.433D-01
 Coeff-Com: -0.840D-01 0.163D+00-0.442D+00 0.134D+01
 Coeff:      0.587D-04-0.206D-03-0.203D-03 0.708D-02-0.222D-01 0.433D-01
 Coeff:     -0.840D-01 0.163D+00-0.442D+00 0.134D+01
 Gap=     0.501 Goal=   None    Shift=    0.000
 RMSDP=5.99D-08 MaxDP=3.15D-07 DE=-4.69D-11 OVMax= 4.16D-07

 Cycle  11  Pass 1  IDiag  3:
 E= -2.22133943696822     Delta-E=       -0.000000000001 Rises=F Damp=F
 DIIS: error= 8.77D-09 at cycle  11 NSaved=  11.
 NSaved=11 IEnMin=11 EnMin= -2.22133943696822     IErMin=11 ErrMin= 8.77D-09
 ErrMax= 8.77D-09  0.00D+00 EMaxC= 1.00D-01 BMatC= 5.12D-15 BMatP= 1.71D-13
 IDIUse=1 WtCom= 1.00D+00 WtEn= 0.00D+00
 Coeff-Com: -0.585D-05 0.187D-04 0.620D-04-0.113D-02 0.340D-02-0.667D-02
 Coeff-Com:  0.138D-01-0.324D-01 0.115D+00-0.478D+00 0.139D+01
 Coeff:     -0.585D-05 0.187D-04 0.620D-04-0.113D-02 0.340D-02-0.667D-02
 Coeff:      0.138D-01-0.324D-01 0.115D+00-0.478D+00 0.139D+01
 Gap=     0.501 Goal=   None    Shift=    0.000
 RMSDP=9.19D-09 MaxDP=4.50D-08 DE=-7.11D-13 OVMax= 4.87D-08

 Cycle  12  Pass 2  IDiag  1:
 SCF Done:  E(RAM1) =  -2.22133943697     A.U. after   12 cycles
            NFock= 11  Conv=0.92D-08     -V/T= 0.8778
 KE=-1.817628159698D+01 PE=-1.697613672887D+02 EE= 8.447415607891D+01
 Leave Link  502 at Mon Nov 23 13:23:30 2015, MaxMem=    33554432 cpu:         0.0
 (Enter /home/Applications/g09/g09/l701.exe)
 Compute integral first derivatives.
 ... and contract with generalized density number  0.
 Leave Link  701 at Mon Nov 23 13:23:30 2015, MaxMem=    33554432 cpu:         0.0
 (Enter /home/Applications/g09/g09/l702.exe)
 L702 exits ... SP integral derivatives will be done elsewhere.
 Leave Link  702 at Mon Nov 23 13:23:30 2015, MaxMem=    33554432 cpu:         0.0
 (Enter /home/Applications/g09/g09/l703.exe)
 Compute integral first derivatives, UseDBF=F ICtDFT=           0.
 Integral derivatives from FoFJK, PRISM(SPDF).
 Calling FoFJK, ICntrl=      2127 FMM=F ISym2X=0 I1Cent= 0 IOpClX= 0 NMat=1 NMatS=1 NMatT=0.
 FoFJK:  IHMeth= 8 ICntrl=    2127 DoSepK=F KAlg= 0 I1Cent=   0 FoldK=F
 IRaf=         0 NMat=   1 IRICut=       1 DoRegI=T DoRafI=F ISym2E= 0.
 FoFCou: FMM=F IPFlag=           0 FMFlag=      100000 FMFlg1=         800
         NFxFlg=           0 DoJE=F BraDBF=F KetDBF=F FulRan=T
         wScrn=  0.000000 ICntrl=    2127 IOpCl=  0 I1Cent=           0 NGrid=           0
         NMat0=    1 NMatS0=      1 NMatT0=    0 NMatD0=    1 NMtDS0=    0 NMtDT0=    0
 Symmetry not used in FoFCou.
 Leave Link  703 at Mon Nov 23 13:23:30 2015, MaxMem=    33554432 cpu:         0.0
 (Enter /home/Applications/g09/g09/l716.exe)
 Dipole        = 2.30350468D-02-3.58332035D-01 6.94761292D-03
 ***** Axes restored to original set *****
 -------------------------------------------------------------------
 Center     Atomic                   Forces (Hartrees/Bohr)
 Number     Number              X              Y              Z
 -------------------------------------------------------------------
      1        6           0.010267930   -0.013442148   -0.012635822
      2        6          -0.006679824   -0.007532177    0.017671659
      3        8           0.001038536    0.002732588   -0.013627585
      4        6          -0.002748841    0.001080250    0.004826852
      5        6           0.002909260    0.010811011    0.005308685
      6        1          -0.001282200   -0.003157585   -0.000723816
      7        1          -0.001233971   -0.001897584    0.000210628
      8        1           0.000347978    0.005934943   -0.000840886
      9        1          -0.002618868    0.005470702   -0.000189716
 -------------------------------------------------------------------
 Cartesian Forces:  Max     0.017671659 RMS     0.007016937
 Leave Link  716 at Mon Nov 23 13:23:30 2015, MaxMem=    33554432 cpu:         0.0
 (Enter /home/Applications/g09/g09/l103.exe)

 GradGradGradGradGradGradGradGradGradGradGradGradGradGradGradGradGradGrad
 Berny optimization.
 Using GEDIIS/GDIIS optimizer.
 FormGI is forming the generalized inverse of G from B-inverse, IUseBI=4.
 Internal  Forces:  Max     0.008217676 RMS     0.003349123
 Search for a local minimum.
 Step number   3 out of a maximum of   48
 All quantities printed in internal units (Hartrees-Bohrs-Radians)
 RMS Force = .33491D-02 SwitMx=.10000D-02 MixMth= 1
 Mixed Optimization -- RFO/linear search
 Update second derivatives using D2CorX and points    1    2    3
 DE= -2.37D-03 DEPred=-4.19D-03 R= 5.67D-01
 TightC=F SS=  1.41D+00  RLast= 3.68D-01 DXNew= 8.4853D-01 1.1047D+00
 Trust test= 5.67D-01 RLast= 3.68D-01 DXMaxT set to 8.49D-01
 ITU=  1  1  0
 Use linear search instead of GDIIS.
     Eigenvalues ---    0.01343   0.01680   0.01856   0.01948   0.02032
     Eigenvalues ---    0.03873   0.13380   0.15970   0.16000   0.16209
     Eigenvalues ---    0.21760   0.23123   0.33153   0.36100   0.37365
     Eigenvalues ---    0.39468   0.41995   0.45564   0.48797   0.56208
     Eigenvalues ---    0.57627
 RFO step:  Lambda=-4.24362071D-03 EMin= 1.34337930D-02
 Quartic linear search produced a step of -0.27560.
 Iteration  1 RMS(Cart)=  0.03711303 RMS(Int)=  0.00320072
 Iteration  2 RMS(Cart)=  0.00218366 RMS(Int)=  0.00228839
 Iteration  3 RMS(Cart)=  0.00000315 RMS(Int)=  0.00228839
 Iteration  4 RMS(Cart)=  0.00000001 RMS(Int)=  0.00228839
 ITry= 1 IFail=0 DXMaxC= 1.07D-01 DCOld= 1.00D+10 DXMaxT= 8.49D-01 DXLimC= 3.00D+00 Rises=F
 Variable       Old X    -DE/DX   Delta X   Delta X   Delta X     New X
                                 (Linear)    (Quad)   (Total)
    R1        2.58396   0.00617   0.01906  -0.03370  -0.01451   2.56944
[...]
 Coeff-Com: -0.113D+01 0.183D+01
 Coeff:      0.965D-03-0.321D-02 0.742D-02 0.105D-02-0.114D+00 0.403D+00
 Coeff:     -0.113D+01 0.183D+01
 Gap=     0.503 Goal=   None    Shift=    0.000
 RMSDP=1.17D-08 MaxDP=8.93D-08 DE=-2.13D-13 OVMax= 8.05D-08

 Cycle   9  Pass 1  IDiag  3:
 E= -2.22276993719885     Delta-E=        0.000000000000 Rises=F Damp=F
 DIIS: error= 2.63D-09 at cycle   9 NSaved=   9.
 NSaved= 9 IEnMin= 8 EnMin= -2.22276993719905     IErMin= 9 ErrMin= 2.63D-09
 ErrMax= 2.63D-09  0.00D+00 EMaxC= 1.00D-01 BMatC= 2.65D-16 BMatP= 4.42D-15
 IDIUse=1 WtCom= 1.00D+00 WtEn= 0.00D+00
 Coeff-Com: -0.448D-03 0.149D-02-0.346D-02 0.743D-03 0.440D-01-0.166D+00
 Coeff-Com:  0.497D+00-0.101D+01 0.164D+01
 Coeff:     -0.448D-03 0.149D-02-0.346D-02 0.743D-03 0.440D-01-0.166D+00
 Coeff:      0.497D+00-0.101D+01 0.164D+01
 Gap=     0.503 Goal=   None    Shift=    0.000
 RMSDP=3.01D-09 MaxDP=2.24D-08 DE= 1.99D-13 OVMax= 2.09D-08

 Cycle  10  Pass 2  IDiag  1:
 SCF Done:  E(RAM1) =  -2.22276993720     A.U. after   10 cycles
            NFock=  9  Conv=0.30D-08     -V/T= 0.8777
 KE=-1.817542524600D+01 PE=-1.696842877454D+02 EE= 8.443469414861D+01
 Leave Link  502 at Mon Nov 23 13:23:31 2015, MaxMem=    33554432 cpu:         0.0
 (Enter /home/Applications/g09/g09/l701.exe)
 Compute integral first derivatives.
 ... and contract with generalized density number  0.
 Leave Link  701 at Mon Nov 23 13:23:31 2015, MaxMem=    33554432 cpu:         0.0
 (Enter /home/Applications/g09/g09/l702.exe)
 L702 exits ... SP integral derivatives will be done elsewhere.
 Leave Link  702 at Mon Nov 23 13:23:31 2015, MaxMem=    33554432 cpu:         0.0
 (Enter /home/Applications/g09/g09/l703.exe)
 Compute integral first derivatives, UseDBF=F ICtDFT=           0.
 Integral derivatives from FoFJK, PRISM(SPDF).
 Calling FoFJK, ICntrl=      2127 FMM=F ISym2X=0 I1Cent= 0 IOpClX= 0 NMat=1 NMatS=1 NMatT=0.
 FoFJK:  IHMeth= 8 ICntrl=    2127 DoSepK=F KAlg= 0 I1Cent=   0 FoldK=F
 IRaf=         0 NMat=   1 IRICut=       1 DoRegI=T DoRafI=F ISym2E= 0.
 FoFCou: FMM=F IPFlag=           0 FMFlag=      100000 FMFlg1=         800
         NFxFlg=           0 DoJE=F BraDBF=F KetDBF=F FulRan=T
         wScrn=  0.000000 ICntrl=    2127 IOpCl=  0 I1Cent=           0 NGrid=           0
         NMat0=    1 NMatS0=      1 NMatT0=    0 NMatD0=    1 NMtDS0=    0 NMtDT0=    0
 Symmetry not used in FoFCou.
 Leave Link  703 at Mon Nov 23 13:23:31 2015, MaxMem=    33554432 cpu:         0.0
 (Enter /home/Applications/g09/g09/l716.exe)
 Dipole        =-1.34823711D-05-3.71412868D-01-5.06340972D-04
 ***** Axes restored to original set *****
 -------------------------------------------------------------------
 Center     Atomic                   Forces (Hartrees/Bohr)
 Number     Number              X              Y              Z
 -------------------------------------------------------------------
      1        6          -0.000100424    0.000019734   -0.000041288
      2        6           0.000046454    0.000019087   -0.000029247
      3        8           0.000142293    0.000004064   -0.000044280
      4        6           0.000004530   -0.000054287    0.000051036
      5        6          -0.000045511   -0.000000894   -0.000026629
      6        1          -0.000026349   -0.000022005    0.000009471
      7        1          -0.000003578    0.000020535    0.000009053
      8        1           0.000010425    0.000009809    0.000045401
      9        1          -0.000027839    0.000003954    0.000026483
 -------------------------------------------------------------------
 Cartesian Forces:  Max     0.000142293 RMS     0.000043749
 Leave Link  716 at Mon Nov 23 13:23:31 2015, MaxMem=    33554432 cpu:         0.0
 (Enter /home/Applications/g09/g09/l103.exe)

 GradGradGradGradGradGradGradGradGradGradGradGradGradGradGradGradGradGrad
 Berny optimization.
 Using GEDIIS/GDIIS optimizer.
 FormGI is forming the generalized inverse of G from B-inverse, IUseBI=4.
 Internal  Forces:  Max     0.000119517 RMS     0.000033788
 Search for a local minimum.
 Step number  11 out of a maximum of   48
 All quantities printed in internal units (Hartrees-Bohrs-Radians)
 RMS Force = .33788D-04 SwitMx=.10000D-02 MixMth= 2
 Mixed Optimization -- En-DIIS/RFO-DIIS
 Swapping is turned off.
 Update second derivatives using D2CorX and points    2    4    3    5    7
                                                      6    8    9   10   11
 DE= -2.25D-07 DEPred=-4.54D-07 R= 4.96D-01
 Trust test= 4.96D-01 RLast= 5.13D-03 DXMaxT set to 2.12D-01
 ITU=  0  1  1  0 -1  1  0 -1  1  1  0
     Eigenvalues ---    0.01626   0.01843   0.02065   0.04044   0.08456
     Eigenvalues ---    0.08688   0.09878   0.15566   0.15959   0.16194
     Eigenvalues ---    0.21438   0.23346   0.35932   0.37408   0.39495
     Eigenvalues ---    0.40739   0.42624   0.45737   0.47448   0.55072
     Eigenvalues ---    0.68350
 En-DIIS/RFO-DIIS IScMMF=        0 using points:    11   10    9    8
 RFO step:  Lambda=-7.28345087D-08.
 NNeg= 0 NP= 4 Switch=  2.50D-03 Rises=F DC=  1.47D-05 SmlDif=  1.00D-05
 RMS Error=  0.6876836627D-04 NUsed= 4 EDIIS=F
 DidBck=T Rises=F RFO-DIIS coefs:    0.61844    0.32193    0.04508    0.01454
 Iteration  1 RMS(Cart)=  0.00022833 RMS(Int)=  0.00000019
 Iteration  2 RMS(Cart)=  0.00000007 RMS(Int)=  0.00000017
 ITry= 1 IFail=0 DXMaxC= 7.78D-04 DCOld= 1.00D+10 DXMaxT= 2.12D-01 DXLimC= 3.00D+00 Rises=F
 Variable       Old X    -DE/DX   Delta X   Delta X   Delta X     New X
                                 (Linear)    (Quad)   (Total)
    R1        2.59129  -0.00012  -0.00013  -0.00004  -0.00017   2.59113
    R2        2.66446  -0.00003   0.00000  -0.00005  -0.00005   2.66442
    R3        2.03833  -0.00003  -0.00014   0.00009  -0.00004   2.03829
    R4        2.61324  -0.00006  -0.00006  -0.00004  -0.00010   2.61314
    R5        2.04199  -0.00001   0.00004  -0.00007  -0.00003   2.04196
    R6        2.61328  -0.00007  -0.00001  -0.00009  -0.00010   2.61319
    R7        2.59120  -0.00007  -0.00003  -0.00008  -0.00011   2.59110
    R8        2.04191   0.00002   0.00002   0.00000   0.00002   2.04193
    R9        2.03837  -0.00003  -0.00004  -0.00003  -0.00007   2.03830
    A1        1.86289   0.00002  -0.00001   0.00007   0.00005   1.86294
    A2        2.23548  -0.00002   0.00008  -0.00017  -0.00009   2.23539
    A3        2.18481   0.00000  -0.00007   0.00011   0.00004   2.18485
    A4        1.92985  -0.00003  -0.00004  -0.00004  -0.00008   1.92977
    A5        2.27508   0.00001   0.00004  -0.00001   0.00004   2.27512
    A6        2.07825   0.00002   0.00000   0.00005   0.00004   2.07829
    A7        1.83923   0.00005   0.00013  -0.00003   0.00010   1.83933
    A8        1.92983  -0.00004  -0.00017   0.00010  -0.00007   1.92975
    A9        2.07825   0.00002   0.00010  -0.00006   0.00004   2.07829
   A10        2.27511   0.00001   0.00007  -0.00004   0.00003   2.27514
   A11        1.86297   0.00000   0.00009  -0.00009   0.00000   1.86297
   A12        2.18491   0.00000  -0.00003   0.00002  -0.00001   2.18490
   A13        2.23530   0.00000  -0.00006   0.00007   0.00001   2.23531
    D1       -0.00013   0.00001   0.00013  -0.00001   0.00012   0.00000
    D2        3.14069   0.00003   0.00090  -0.00001   0.00089   3.14158
    D3       -3.14117  -0.00001  -0.00028  -0.00022  -0.00050   3.14151
    D4       -0.00035   0.00001   0.00049  -0.00022   0.00027  -0.00009
    D5       -0.00004   0.00000  -0.00003   0.00008   0.00004   0.00000
    D6       -3.14136  -0.00001  -0.00012  -0.00018  -0.00029   3.14153
    D7        3.14102   0.00003   0.00037   0.00028   0.00065  -3.14152
    D8       -0.00030   0.00001   0.00028   0.00003   0.00031   0.00001
    D9        0.00024  -0.00002  -0.00018  -0.00006  -0.00024   0.00000
   D10       -3.14068  -0.00004  -0.00085  -0.00006  -0.00091  -3.14158
   D11       -0.00026   0.00002   0.00016   0.00011   0.00027   0.00000
   D12        3.14134   0.00002   0.00037  -0.00014   0.00023   3.14157
   D13        0.00019  -0.00002  -0.00008  -0.00012  -0.00020   0.00000
   D14        3.14150   0.00000   0.00001   0.00015   0.00016  -3.14153
   D15       -3.14141  -0.00001  -0.00032   0.00017  -0.00015  -3.14156
   D16       -0.00010   0.00001  -0.00023   0.00043   0.00020   0.00010
         Item               Value     Threshold  Converged?
 Maximum Force            0.000120     0.000450     YES
 RMS     Force            0.000034     0.000300     YES
 Maximum Displacement     0.000778     0.001800     YES
 RMS     Displacement     0.000228     0.001200     YES
 Predicted change in Energy=-8.981933D-08
 Optimization completed.
    -- Stationary point found.
                           ----------------------------
                           !   Optimized Parameters   !
                           ! (Angstroms and Degrees)  !
 --------------------------                            --------------------------
 ! Name  Definition              Value          Derivative Info.                !
 --------------------------------------------------------------------------------
 ! R1    R(1,2)                  1.3713         -DE/DX =   -0.0001              !
 ! R2    R(1,5)                  1.41           -DE/DX =    0.0                 !
 ! R3    R(1,9)                  1.0786         -DE/DX =    0.0                 !
 ! R4    R(2,3)                  1.3829         -DE/DX =   -0.0001              !
 ! R5    R(2,8)                  1.0806         -DE/DX =    0.0                 !
 ! R6    R(3,4)                  1.3829         -DE/DX =   -0.0001              !
 ! R7    R(4,5)                  1.3712         -DE/DX =   -0.0001              !
 ! R8    R(4,7)                  1.0805         -DE/DX =    0.0                 !
 ! R9    R(5,6)                  1.0787         -DE/DX =    0.0                 !
 ! A1    A(2,1,5)              106.7358         -DE/DX =    0.0                 !
 ! A2    A(2,1,9)              128.0837         -DE/DX =    0.0                 !
 ! A3    A(5,1,9)              125.1806         -DE/DX =    0.0                 !
 ! A4    A(1,2,3)              110.5725         -DE/DX =    0.0                 !
 ! A5    A(1,2,8)              130.3525         -DE/DX =    0.0                 !
 ! A6    A(3,2,8)              119.075          -DE/DX =    0.0                 !
 ! A7    A(2,3,4)              105.3803         -DE/DX =    0.0                 !
 ! A8    A(3,4,5)              110.5709         -DE/DX =    0.0                 !
 ! A9    A(3,4,7)              119.0749         -DE/DX =    0.0                 !
 ! A10   A(5,4,7)              130.3541         -DE/DX =    0.0                 !
 ! A11   A(1,5,4)              106.7406         -DE/DX =    0.0                 !
 ! A12   A(1,5,6)              125.1862         -DE/DX =    0.0                 !
 ! A13   A(4,5,6)              128.0732         -DE/DX =    0.0                 !
 ! D1    D(5,1,2,3)             -0.0072         -DE/DX =    0.0                 !
 ! D2    D(5,1,2,8)            179.9482         -DE/DX =    0.0                 !
 ! D3    D(9,1,2,3)            180.0243         -DE/DX =    0.0                 !
 ! D4    D(9,1,2,8)             -0.0203         -DE/DX =    0.0                 !
 ! D5    D(2,1,5,4)             -0.0023         -DE/DX =    0.0                 !
 ! D6    D(2,1,5,6)            180.0133         -DE/DX =    0.0                 !
 ! D7    D(9,1,5,4)           -180.0326         -DE/DX =    0.0                 !
 ! D8    D(9,1,5,6)             -0.017          -DE/DX =    0.0                 !
 ! D9    D(1,2,3,4)              0.0136         -DE/DX =    0.0                 !
 ! D10   D(8,2,3,4)           -179.9475         -DE/DX =    0.0                 !
 ! D11   D(2,3,4,5)             -0.015          -DE/DX =    0.0                 !
 ! D12   D(2,3,4,7)            179.9854         -DE/DX =    0.0                 !
 ! D13   D(3,4,5,1)              0.0109         -DE/DX =    0.0                 !
 ! D14   D(3,4,5,6)           -180.0052         -DE/DX =    0.0                 !
 ! D15   D(7,4,5,1)           -179.9896         -DE/DX =    0.0                 !
 ! D16   D(7,4,5,6)             -0.0058         -DE/DX =    0.0                 !
 --------------------------------------------------------------------------------
 Lowest energy point so far.  Saving SCF results.
 GradGradGradGradGradGradGradGradGradGradGradGradGradGradGradGradGradGrad

 Largest change from initial coordinates is atom    9       0.710 Angstoms.
 Leave Link  103 at Mon Nov 23 13:23:31 2015, MaxMem=    33554432 cpu:         0.0
 (Enter /home/Applications/g09/g09/l202.exe)
                          Input orientation:                          
 ---------------------------------------------------------------------
 Center     Atomic      Atomic             Coordinates (Angstroms)
 Number     Number       Type             X           Y           Z
 ---------------------------------------------------------------------
      1          6           0        0.942550   -0.706821   -0.004700
      2          6           0       -0.372947   -1.093749    0.004733
      3          8           0       -1.204413    0.011203    0.012733
      4          6           0       -0.359566    1.106004    0.007637
      5          6           0        0.951077    0.703123   -0.002805
      6          1           0        1.836362    1.319349   -0.008863
      7          1           0       -0.786384    2.098657    0.012086
      8          1           0       -0.811818   -2.081187    0.005942
      9          1           0        1.820361   -1.333594   -0.012692
 ---------------------------------------------------------------------
                    Distance matrix (angstroms):
                    1          2          3          4          5
     1  C    0.000000
     2  C    1.371252   0.000000
     3  O    2.263915   1.382865   0.000000
     4  C    2.232038   2.199796   1.382889   0.000000
     5  C    1.409972   2.232005   2.263875   1.371207   0.000000
     6  H    2.214562   3.271738   3.310291   2.206329   1.078657
     7  H    3.295481   3.219074   2.128899   1.080533   2.228566
     8  H    2.228632   1.080576   2.128913   3.219119   3.295491
     9  H    1.078639   2.206452   3.310344   3.271718   2.214491
                    6          7          8          9
     6  H    0.000000
     7  H    2.736157   0.000000
     8  H    4.310072   4.179926   0.000000
     9  H    2.652994   4.309997   2.736349   0.000000
 Stoichiometry    C4H4O
 Framework group  C1[X(C4H4O)]
 Deg. of freedom    21
 Full point group                 C1      NOp   1
 RotChk:  IX=2 Diff= 1.15D-14
 Largest Abelian subgroup         C1      NOp   1
 Largest concise Abelian subgroup C1      NOp   1
                         Standard orientation:                         
 ---------------------------------------------------------------------
 Center     Atomic      Atomic             Coordinates (Angstroms)
 Number     Number       Type             X           Y           Z
 ---------------------------------------------------------------------
      1          6           0        0.704934    0.963869    0.000100
      2          6           0        1.099916   -0.349265    0.000034
      3          8           0        0.000079   -1.187523    0.000109
      4          6           0       -1.099880   -0.349386   -0.000092
      5          6           0       -0.705037    0.963742    0.000052
      6          1           0       -1.326676    1.845255   -0.000121
      7          1           0       -2.089899   -0.782300   -0.000318
      8          1           0        2.090027   -0.782074   -0.000703
      9          1           0        1.326318    1.845540   -0.000293
 ---------------------------------------------------------------------
 Rotational constants (GHZ):      9.4793455      9.0551157      4.6311879
 Leave Link  202 at Mon Nov 23 13:23:31 2015, MaxMem=    33554432 cpu:         0.0
 (Enter /home/Applications/g09/g09/l601.exe)
 Copying SCF densities to generalized density rwf, IOpCl= 0 IROHF=0.

 **********************************************************************

            Population analysis using the SCF density.

 **********************************************************************

 Orbital symmetries:
       Occupied  (A) (A) (A) (A) (A) (A) (A) (A) (A) (A) (A) (A)
                 (A)
       Virtual   (A) (A) (A) (A) (A) (A) (A) (A) (A) (A) (A)
 The electronic state is 1-A.
 Alpha  occ. eigenvalues --   -1.54120  -1.12512  -1.09744  -0.86223  -0.82766
 Alpha  occ. eigenvalues --   -0.79443  -0.73517  -0.49100  -0.44006  -0.42801
 Alpha  occ. eigenvalues --   -0.42646  -0.39761  -0.32877
 Alpha virt. eigenvalues --    0.17405   0.19057   0.26820   0.29318   0.30758
 Alpha virt. eigenvalues --    0.32541   0.34395   0.36013   0.40429   0.41779
 Alpha virt. eigenvalues --    0.44843
          Condensed to atoms (all electrons):
               1          2          3          4          5          6
     1  C    4.292551   0.000000   0.000000   0.000000   0.000000   0.000000
     2  C    0.000000   4.052008   0.000000   0.000000   0.000000   0.000000
     3  O    0.000000   0.000000   5.890849   0.000000   0.000000   0.000000
     4  C    0.000000   0.000000   0.000000   4.052076   0.000000   0.000000
     5  C    0.000000   0.000000   0.000000   0.000000   4.292468   0.000000
     6  H    0.000000   0.000000   0.000000   0.000000   0.000000   0.849107
     7  H    0.000000   0.000000   0.000000   0.000000   0.000000   0.000000
     8  H    0.000000   0.000000   0.000000   0.000000   0.000000   0.000000
     9  H    0.000000   0.000000   0.000000   0.000000   0.000000   0.000000
               7          8          9
     1  C    0.000000   0.000000   0.000000
     2  C    0.000000   0.000000   0.000000
     3  O    0.000000   0.000000   0.000000
     4  C    0.000000   0.000000   0.000000
     5  C    0.000000   0.000000   0.000000
     6  H    0.000000   0.000000   0.000000
     7  H    0.860919   0.000000   0.000000
     8  H    0.000000   0.860932   0.000000
     9  H    0.000000   0.000000   0.849090
 Mulliken charges:
               1
     1  C   -0.292551
     2  C   -0.052008
     3  O    0.109151
     4  C   -0.052076
     5  C   -0.292468
     6  H    0.150893
     7  H    0.139081
     8  H    0.139068
     9  H    0.150910
 Sum of Mulliken charges =   0.00000
 Mulliken charges with hydrogens summed into heavy atoms:
               1
     1  C   -0.141641
     2  C    0.087060
     3  O    0.109151
     4  C    0.087005
     5  C   -0.141575
 Charge=              0.0000 electrons
 Dipole moment (field-independent basis, Debye):
    X=              0.0000    Y=             -0.9440    Z=             -0.0013  Tot=              0.9440
 N-N= 1.012022489056D+02 E-N=-1.696842877448D+02  KE=-1.817542524600D+01
 Leave Link  601 at Mon Nov 23 13:23:31 2015, MaxMem=    33554432 cpu:         0.0
 (Enter /home/Applications/g09/g09/l9999.exe)
 1\1\GINC-DUSTIN-DESKTOP\FOpt\RAM1\ZDO\C4H4O1\DUSTIN\23-Nov-2015\0\\#P 
 AM1(Input,print) Opt\\AM1-Reparam Input\\0,1\C,0.9425495753,-0.7068212
 397,-0.0047002768\C,-0.3729470305,-1.0937488398,0.0047328691\O,-1.2044
 127469,0.0112025707,0.0127330682\C,-0.3595661438,1.1060042606,0.007637
 2801\C,0.9510769272,0.7031232571,-0.0028050604\H,1.836361913,1.3193490
 07,-0.0088632503\H,-0.7863837672,2.0986565955,0.0120859723\H,-0.811817
 603,-2.0811872419,0.0059419619\H,1.8203608759,-1.3335943694,-0.0126915
 643\\Version=ES64L-G09RevD.01\State=1-A\HF=-2.2227699\RMSD=3.014e-09\R
 MSF=4.375e-05\Dipole=-0.3713988,0.00229,0.0023342\PG=C01 [X(C4H4O1)]\\
 @


 THE SECRET OF SUCCESS IN LIFE IS TO EAT WHAT YOU LIKE, AND LET THE FOOD
 FIGHT IT OUT INSIDE YOU. -- FROM A FORTUNE COOKIE
 Job cpu time:       0 days  0 hours  0 minutes  1.8 seconds.
 File lengths (MBytes):  RWF=      5 Int=      0 D2E=      0 Chk=      2 Scr=      1
 Normal termination of Gaussian 09 at Mon Nov 23 13:23:31 2015.
