 Entering Gaussian System, Link 0=g09
 Input=FuranAM1Best4.com
 Output=FuranAM1Best4.log
 Initial command:
 /home/Applications/g09/g09/l1.exe "/home/Applications/g09/scratch/Gau-4873.inp" -scrdir="/home/Applications/g09/scratch/"
 Entering Link 1 = /home/Applications/g09/g09/l1.exe PID=      4875.
  
 Copyright (c) 1988,1990,1992,1993,1995,1998,2003,2009,2013,
            Gaussian, Inc.  All Rights Reserved.
  
 This is part of the Gaussian(R) 09 program.  It is based on
 the Gaussian(R) 03 system (copyright 2003, Gaussian, Inc.),
 the Gaussian(R) 98 system (copyright 1998, Gaussian, Inc.),
 the Gaussian(R) 94 system (copyright 1995, Gaussian, Inc.),
 the Gaussian 92(TM) system (copyright 1992, Gaussian, Inc.),
 the Gaussian 90(TM) system (copyright 1990, Gaussian, Inc.),
 the Gaussian 88(TM) system (copyright 1988, Gaussian, Inc.),
 the Gaussian 86(TM) system (copyright 1986, Carnegie Mellon
 University), and the Gaussian 82(TM) system (copyright 1983,
 Carnegie Mellon University). Gaussian is a federally registered
 trademark of Gaussian, Inc.
  
 This software contains proprietary and confidential information,
 including trade secrets, belonging to Gaussian, Inc.
  
 This software is provided under written license and may be
 used, copied, transmitted, or stored only in accord with that
 written license.
  
 The following legend is applicable only to US Government
 contracts under FAR:
  
                    RESTRICTED RIGHTS LEGEND
  
 Use, reproduction and disclosure by the US Government is
 subject to restrictions as set forth in subparagraphs (a)
 and (c) of the Commercial Computer Software - Restricted
 Rights clause in FAR 52.227-19.
  
 Gaussian, Inc.
 340 Quinnipiac St., Bldg. 40, Wallingford CT 06492
  
  
 ---------------------------------------------------------------
 Warning -- This program may not be used in any manner that
 competes with the business of Gaussian, Inc. or will provide
 assistance to any competitor of Gaussian, Inc.  The licensee
 of this program is prohibited from giving any competitor of
 Gaussian, Inc. access to this program.  By using this program,
 the user acknowledges that Gaussian, Inc. is engaged in the
 business of creating and licensing software in the field of
 computational chemistry and represents and warrants to the
 licensee that it is not a competitor of Gaussian, Inc. and that
 it will not use this program in any manner prohibited above.
 ---------------------------------------------------------------
  

 Cite this work as:
 Gaussian 09, Revision D.01,
 M. J. Frisch, G. W. Trucks, H. B. Schlegel, G. E. Scuseria, 
 M. A. Robb, J. R. Cheeseman, G. Scalmani, V. Barone, B. Mennucci, 
 G. A. Petersson, H. Nakatsuji, M. Caricato, X. Li, H. P. Hratchian, 
 A. F. Izmaylov, J. Bloino, G. Zheng, J. L. Sonnenberg, M. Hada, 
 M. Ehara, K. Toyota, R. Fukuda, J. Hasegawa, M. Ishida, T. Nakajima, 
 Y. Honda, O. Kitao, H. Nakai, T. Vreven, J. A. Montgomery, Jr., 
 J. E. Peralta, F. Ogliaro, M. Bearpark, J. J. Heyd, E. Brothers, 
 K. N. Kudin, V. N. Staroverov, T. Keith, R. Kobayashi, J. Normand, 
 K. Raghavachari, A. Rendell, J. C. Burant, S. S. Iyengar, J. Tomasi, 
 M. Cossi, N. Rega, J. M. Millam, M. Klene, J. E. Knox, J. B. Cross, 
 V. Bakken, C. Adamo, J. Jaramillo, R. Gomperts, R. E. Stratmann, 
 O. Yazyev, A. J. Austin, R. Cammi, C. Pomelli, J. W. Ochterski, 
 R. L. Martin, K. Morokuma, V. G. Zakrzewski, G. A. Voth, 
 P. Salvador, J. J. Dannenberg, S. Dapprich, A. D. Daniels, 
 O. Farkas, J. B. Foresman, J. V. Ortiz, J. Cioslowski, 
 and D. J. Fox, Gaussian, Inc., Wallingford CT, 2013.
 
 ******************************************
 Gaussian 09:  ES64L-G09RevD.01 24-Apr-2013
                23-Nov-2015 
 ******************************************
 -----------------------
 #P AM1(Input,print) Opt
 -----------------------
 1/14=-1,18=20,19=15,26=1,38=1/1,3;
 2/9=110,12=2,17=6,18=5,40=1/2;
 3/5=2,16=1,25=1,41=700000,71=1,135=100,136=1/1,2,3;
 4/35=1/1;
 5/5=2,35=1,38=5/2;
 6/7=2,8=2,9=2,10=2,28=1/1;
 7//1,2,3,16;
 1/14=-1,18=20,19=15,26=1/3(2);
 2/9=110/2;
 99//99;
 2/9=110/2;
 3/5=2,16=1,25=1,41=700000,71=1,135=20,136=1/1,2,3;
 4/5=5,16=3,35=1/1;
 5/5=2,35=1,38=5/2;
 7//1,2,3,16;
 1/14=-1,18=20,19=15,26=1/3(-5);
 2/9=110/2;
 6/7=2,8=2,9=2,10=2,19=2,28=1/1;
 99/9=1/99;
 Leave Link    1 at Mon Nov 23 13:23:28 2015, MaxMem=           0 cpu:         0.0
 (Enter /home/Applications/g09/g09/l101.exe)
 -----------------
 AM1-Reparam Input
 -----------------
 Symbolic Z-matrix:
 Charge =  0 Multiplicity = 1
 6                     0.99709  -0.6744    0.0293 
 6                    -0.33003  -1.11591   0.0219 
 8                    -1.16951   0.0227    0.0397 
 6                    -0.32898   1.09531  -0.0479 
 6                     0.97469   0.7625   -0.02413 
 1                     1.82393   1.39557  -0.03684 
 1                    -0.8362    2.02802   0.00468 
 1                    -0.83388  -2.02682  -0.04419 
 1                     1.82768  -1.32454   0.02223 
 
 NAtoms=      9 NQM=        9 NQMF=       0 NMMI=      0 NMMIF=      0
                NMic=       0 NMicF=      0.
                    Isotopes and Nuclear Properties:
 (Nuclear quadrupole moments (NQMom) in fm**2, nuclear magnetic moments (NMagM)
  in nuclear magnetons)

  Atom         1           2           3           4           5           6           7           8           9
 IAtWgt=          12          12          16          12          12           1           1           1           1
 AtmWgt=  12.0000000  12.0000000  15.9949146  12.0000000  12.0000000   1.0078250   1.0078250   1.0078250   1.0078250
 NucSpn=           0           0           0           0           0           1           1           1           1
 AtZEff=   0.0000000   0.0000000   0.0000000   0.0000000   0.0000000   0.0000000   0.0000000   0.0000000   0.0000000
 NQMom=    0.0000000   0.0000000   0.0000000   0.0000000   0.0000000   0.0000000   0.0000000   0.0000000   0.0000000
 NMagM=    0.0000000   0.0000000   0.0000000   0.0000000   0.0000000   2.7928460   2.7928460   2.7928460   2.7928460
 AtZNuc=   6.0000000   6.0000000   8.0000000   6.0000000   6.0000000   1.0000000   1.0000000   1.0000000   1.0000000
 Leave Link  101 at Mon Nov 23 13:23:28 2015, MaxMem=    33554432 cpu:         0.0
 (Enter /home/Applications/g09/g09/l103.exe)

 GradGradGradGradGradGradGradGradGradGradGradGradGradGradGradGradGradGrad
 Berny optimization.
 Initialization pass.
                           ----------------------------
                           !    Initial Parameters    !
                           ! (Angstroms and Degrees)  !
 --------------------------                            --------------------------
 ! Name  Definition              Value          Derivative Info.                !
 --------------------------------------------------------------------------------
 ! R1    R(1,2)                  1.3986         estimate D2E/DX2                !
 ! R2    R(1,5)                  1.4381         estimate D2E/DX2                !
 ! R3    R(1,9)                  1.0548         estimate D2E/DX2                !
 ! R4    R(2,3)                  1.4147         estimate D2E/DX2                !
 ! R5    R(2,8)                  1.0431         estimate D2E/DX2                !
 ! R6    R(3,4)                  1.3655         estimate D2E/DX2                !
 ! R7    R(4,5)                  1.3457         estimate D2E/DX2                !
 ! R8    R(4,7)                  1.063          estimate D2E/DX2                !
 ! R9    R(5,6)                  1.0593         estimate D2E/DX2                !
 ! A1    A(2,1,5)              107.4839         estimate D2E/DX2                !
 ! A2    A(2,1,9)              123.5431         estimate D2E/DX2                !
 ! A3    A(5,1,9)              128.8933         estimate D2E/DX2                !
 ! A4    A(1,2,3)              107.9933         estimate D2E/DX2                !
 ! A5    A(1,2,8)              137.2524         estimate D2E/DX2                !
 ! A6    A(3,2,8)              114.6465         estimate D2E/DX2                !
 ! A7    A(2,3,4)              105.4342         estimate D2E/DX2                !
 ! A8    A(3,4,5)              113.6353         estimate D2E/DX2                !
 ! A9    A(3,4,7)              113.0998         estimate D2E/DX2                !
 ! A10   A(5,4,7)              132.7176         estimate D2E/DX2                !
 ! A11   A(1,5,4)              105.2401         estimate D2E/DX2                !
 ! A12   A(1,5,6)              125.81           estimate D2E/DX2                !
 ! A13   A(4,5,6)              128.9495         estimate D2E/DX2                !
 ! D1    D(5,1,2,3)             -3.1846         estimate D2E/DX2                !
 ! D2    D(5,1,2,8)            172.6452         estimate D2E/DX2                !
 ! D3    D(9,1,2,3)            179.8051         estimate D2E/DX2                !
 ! D4    D(9,1,2,8)             -4.365          estimate D2E/DX2                !
 ! D5    D(2,1,5,4)              0.5199         estimate D2E/DX2                !
 ! D6    D(2,1,5,6)           -179.6996         estimate D2E/DX2                !
 ! D7    D(9,1,5,4)            177.3181         estimate D2E/DX2                !
 ! D8    D(9,1,5,6)             -2.9014         estimate D2E/DX2                !
 ! D9    D(1,2,3,4)              4.5688         estimate D2E/DX2                !
 ! D10   D(8,2,3,4)           -172.3182         estimate D2E/DX2                !
 ! D11   D(2,3,4,5)             -4.4865         estimate D2E/DX2                !
 ! D12   D(2,3,4,7)           -177.1032         estimate D2E/DX2                !
 ! D13   D(3,4,5,1)              2.5289         estimate D2E/DX2                !
 ! D14   D(3,4,5,6)           -177.2422         estimate D2E/DX2                !
 ! D15   D(7,4,5,1)            173.2707         estimate D2E/DX2                !
 ! D16   D(7,4,5,6)             -6.5004         estimate D2E/DX2                !
 --------------------------------------------------------------------------------
 Trust Radius=3.00D-01 FncErr=1.00D-07 GrdErr=1.00D-07
 Number of steps in this run=     48 maximum allowed number of steps=    100.
 GradGradGradGradGradGradGradGradGradGradGradGradGradGradGradGradGradGrad

 Leave Link  103 at Mon Nov 23 13:23:28 2015, MaxMem=    33554432 cpu:         0.0
 (Enter /home/Applications/g09/g09/l202.exe)
                          Input orientation:                          
 ---------------------------------------------------------------------
 Center     Atomic      Atomic             Coordinates (Angstroms)
 Number     Number       Type             X           Y           Z
 ---------------------------------------------------------------------
      1          6           0        0.997087   -0.674402    0.029298
      2          6           0       -0.330027   -1.115913    0.021899
      3          8           0       -1.169505    0.022703    0.039704
      4          6           0       -0.328983    1.095309   -0.047896
      5          6           0        0.974687    0.762495   -0.024130
      6          1           0        1.823925    1.395571   -0.036840
      7          1           0       -0.836203    2.028018    0.004683
      8          1           0       -0.833879   -2.026824   -0.044189
      9          1           0        1.827684   -1.324539    0.022227
 ---------------------------------------------------------------------
                    Distance matrix (angstroms):
                    1          2          3          4          5
     1  C    0.000000
     2  C    1.398649   0.000000
     3  O    2.276002   1.414739   0.000000
     4  C    2.212758   2.212323   1.365516   0.000000
     5  C    1.438064   2.287534   2.269125   1.345691   0.000000
     6  H    2.229983   3.309156   3.294123   2.173774   1.059317
     7  H    3.265675   3.184464   2.033127   1.063006   2.209457
     8  H    2.277473   1.043069   2.078520   3.162696   3.324397
     9  H    1.054808   2.167773   3.286108   3.242190   2.255097
                    6          7          8          9
     6  H    0.000000
     7  H    2.734592   0.000000
     8  H    4.333216   4.055137   0.000000
     9  H    2.720754   4.282084   2.753458   0.000000
 Stoichiometry    C4H4O
 Framework group  C1[X(C4H4O)]
 Deg. of freedom    21
 Full point group                 C1      NOp   1
 Largest Abelian subgroup         C1      NOp   1
 Largest concise Abelian subgroup C1      NOp   1
                         Standard orientation:                         
 ---------------------------------------------------------------------
 Center     Atomic      Atomic             Coordinates (Angstroms)
 Number     Number       Type             X           Y           Z
 ---------------------------------------------------------------------
      1          6           0       -0.300044    1.164744   -0.019847
      2          6           0       -1.182627    0.080079    0.007887
      3          8           0       -0.415756   -1.108307   -0.025778
      4          6           0        0.886640   -0.702152    0.032853
      5          6           0        1.036612    0.634859    0.004646
      6          1           0        1.929513    1.204793   -0.002763
      7          1           0        1.577895   -1.506917   -0.034258
      8          1           0       -2.211247   -0.068381    0.096741
      9          1           0       -0.613597    2.171785   -0.006734
 ---------------------------------------------------------------------
 Rotational constants (GHZ):      9.4192188      8.9984597      4.6052553
 Leave Link  202 at Mon Nov 23 13:23:28 2015, MaxMem=    33554432 cpu:         0.0
 (Enter /home/Applications/g09/g09/l301.exe)

 Semi-emprical parameters in input format:
 Method=8 CoreType=1 PeptideFC=0.0166290000 RIJScale=0.6119410000
 ****
 H       
 PQN=1 NValence=1 F0ss=0.4150770000 ZetaOverlap=1.0810580000 U=-0.4286880000
 Beta=-0.2869890000 CoreKO=1.2114800000 KON=0,0,0,1.1025190000 KON=1,0,1,1.1074920000
 KON=0,1,1,1.0916540000 KON=2,1,1,1.0589200000 EISol=-0.4188110042 EHeat=0.0830298228
 Alpha=1.5030030000
 GCore=0.0071120000,1.1207970000,2.7005670000
 GCore=0.0003230000,1.4222460000,3.4015070000
 GCore=-0.0013380000,0.4405990000,4.4481290000
 ****
 C       
 PQN=2,2 NValence=4 F0ss=0.4202500000 F0sp=0.4263690000 F0pp=0.3424460000 F2pp=0.1977130000
 G1sp=0.2746580000
 ZetaOverlap=1.7498310000,1.3881390000
 U=-1.7944250000,-1.4545000000
 Beta=-0.5214990000,-0.3746580000 DDN=0,1,0.8234340000 DDN=1,1,0.7559950000
 CoreKO=1.2002200000 KON=0,0,0,1.1694410000 KON=1,0,1,0.9096420000 KON=0,1,1,0.9370920000
 KON=2,1,1,0.5201690000 EISol=-4.4398989268 EHeat=0.2723305520 Alpha=1.3947510000
 DipHyp=1.6467732542
 GCore=0.0008780000,1.2683970000,2.4090670000
 GCore=0.0034720000,1.4096270000,3.6574610000
 GCore=-0.0014060000,1.4542400000,3.3154880000
 GCore=-0.0001000000,1.4766960000,5.0661660000
 ****
 O       
 PQN=2,2 NValence=6 F0ss=0.5672460000 F0sp=0.5681160000 F0pp=0.4898210000 F2pp=0.2703590000
 G1sp=0.4169050000
 ZetaOverlap=2.7263600000,1.8505270000
 U=-3.5241930000,-3.0238760000
 Beta=-0.9772650000,-1.1886600000 DDN=0,1,0.5807610000 DDN=1,1,0.4521100000
 CoreKO=0.9925760000 KON=0,0,0,0.8355350000 KON=1,0,1,0.5454830000 KON=0,1,1,0.8378550000
 KON=2,1,1,0.5017630000 EISol=-11.6164441184 EHeat=0.0949133088 Alpha=2.2627970000
 DipHyp=1.1614551766
 GCore=0.0225710000,1.2849200000,1.7519400000
 GCore=0.0054870000,1.7991710000,2.8334770000
 ****
 
 Standard basis: VSTO-6G (5D, 7F)
 Ernie: Thresh=  0.10000D-02 Tol=  0.10000D-05 Strict=F.
  NNHCO=     0 NNPyr=     0 NCTC=     0               EPep=         0.000000000
    EC=        66.432230007  ECS=         1.771914614   EG=         0.401154358
   EHC=         0.000000000  EAt=       -31.051283842  AtH=         1.516354808
 EPDDG=         0.000000000  ECC=        68.605298979 EAtT=        32.567638650
 There are    24 symmetry adapted cartesian basis functions of A   symmetry.
 There are    24 symmetry adapted basis functions of A   symmetry.
    24 basis functions,   144 primitive gaussians,    24 cartesian basis functions
    13 alpha electrons       13 beta electrons
       nuclear repulsion energy       101.1729376297 Hartrees.
 IExCor=    0 DFT=F Ex=HF Corr=None ExCW=0 ScaHFX=  1.000000
 ScaDFX=  1.000000  1.000000  1.000000  1.000000 ScalE2=  1.000000  1.000000
 IRadAn=      0 IRanWt=     -1 IRanGd=            0 ICorTp=0 IEmpDi=  4
 Integral buffers will be    131072 words long.
 Regular integral format.
 Two-electron integral symmetry is turned off.
 Leave Link  301 at Mon Nov 23 13:23:28 2015, MaxMem=    33554432 cpu:         0.0
 (Enter /home/Applications/g09/g09/l302.exe)
 Do NDO integrals.
 NPDir=0 NMtPBC=     1 NCelOv=     1 NCel=       1 NClECP=     1 NCelD=      1
         NCelK=      1 NCelE2=     1 NClLst=     1 CellRange=     0.0.
 One-electron integrals computed using PRISM.
 NBasis=    24 RedAO= F EigKep=  0.00D+00  NBF=    24
 NBsUse=    24 1.00D-04 EigRej=  0.00D+00 NBFU=    24
 Leave Link  302 at Mon Nov 23 13:23:28 2015, MaxMem=    33554432 cpu:         0.0
 (Enter /home/Applications/g09/g09/l303.exe)
 DipDrv:  MaxL=1.
 Leave Link  303 at Mon Nov 23 13:23:28 2015, MaxMem=    33554432 cpu:         0.0
 (Enter /home/Applications/g09/g09/l401.exe)
 Simple Huckel Guess.
 JPrj=0 DoOrth=F DoCkMO=F.
 Leave Link  401 at Mon Nov 23 13:23:28 2015, MaxMem=    33554432 cpu:         0.0
 (Enter /home/Applications/g09/g09/l502.exe)
 Closed shell SCF:
 Using DIIS extrapolation, IDIIS=  1040.
 Overlap will be assumed to be unity.
 Two-electron integral symmetry not used.
 Keep J ints in memory in canonical form, NReq=888082.
 IVT=       79475 IEndB=       79475 NGot=    33554432 MDV=    33473473
 LenX=    33473473 LenY=    33472456
 Requested convergence on RMS density matrix=1.00D-08 within 128 cycles.
 Requested convergence on MAX density matrix=1.00D-06.
 Requested convergence on             energy=1.00D-06.
 No special actions if energy rises.
 FoFCou: FMM=F IPFlag=           0 FMFlag=           0 FMFlg1=           0
         NFxFlg=           0 DoJE=F BraDBF=F KetDBF=F FulRan=T
         wScrn=  0.000000 ICntrl=     600 IOpCl=  2 I1Cent=           0 NGrid=           0
         NMat0=    1 NMatS0=     54 NMatT0=    0 NMatD0=    1 NMtDS0=    0 NMtDT0=    0
 Symmetry not used in FoFCou.

 Cycle   1  Pass 1  IDiag  1:
 E= -2.05011286601189    
 DIIS: error= 2.77D-02 at cycle   1 NSaved=   1.
 NSaved= 1 IEnMin= 1 EnMin= -2.05011286601189     IErMin= 1 ErrMin= 2.77D-02
 ErrMax= 2.77D-02  0.00D+00 EMaxC= 1.00D-01 BMatC= 5.75D-02 BMatP= 5.75D-02
 IDIUse=3 WtCom= 7.23D-01 WtEn= 2.77D-01
 Coeff-Com:  0.100D+01
 Coeff-En:   0.100D+01
 Coeff:      0.100D+01
 GapD=    2.000 DampG=2.000 DampE=0.500 DampFc=1.0000 IDamp=-1.
 RMSDP=1.42D-02 MaxDP=7.29D-02              OVMax= 0.00D+00

 Cycle   2  Pass 1  IDiag  1:
 E= -2.19178190043050     Delta-E=       -0.141669034419 Rises=F Damp=F
 DIIS: error= 1.29D-02 at cycle   2 NSaved=   2.
 NSaved= 2 IEnMin= 2 EnMin= -2.19178190043050     IErMin= 2 ErrMin= 1.29D-02
 ErrMax= 1.29D-02  0.00D+00 EMaxC= 1.00D-01 BMatC= 5.23D-03 BMatP= 5.75D-02
 IDIUse=3 WtCom= 8.71D-01 WtEn= 1.29D-01
 Coeff-Com: -0.311D+00 0.131D+01
 Coeff-En:   0.000D+00 0.100D+01
 Coeff:     -0.271D+00 0.127D+01
 RMSDP=6.13D-03 MaxDP=4.19D-02 DE=-1.42D-01 OVMax= 0.00D+00

 Cycle   3  Pass 1  IDiag  3:
 E= -2.21008515418322     Delta-E=       -0.018303253753 Rises=F Damp=F
 DIIS: error= 3.56D-03 at cycle   3 NSaved=   3.
 NSaved= 3 IEnMin= 3 EnMin= -2.21008515418322     IErMin= 3 ErrMin= 3.56D-03
 ErrMax= 3.56D-03  0.00D+00 EMaxC= 1.00D-01 BMatC= 4.04D-04 BMatP= 5.23D-03
 IDIUse=3 WtCom= 9.64D-01 WtEn= 3.56D-02
 Coeff-Com:  0.703D-01-0.497D+00 0.143D+01
 Coeff-En:   0.000D+00 0.000D+00 0.100D+01
 Coeff:      0.678D-01-0.480D+00 0.141D+01
 Gap=     0.501 Goal=   None    Shift=    0.000
 RMSDP=2.37D-03 MaxDP=1.83D-02 DE=-1.83D-02 OVMax= 1.78D-02

 Cycle   4  Pass 1  IDiag  3:
 E= -2.21202855906651     Delta-E=       -0.001943404883 Rises=F Damp=F
 DIIS: error= 8.91D-04 at cycle   4 NSaved=   4.
 NSaved= 4 IEnMin= 4 EnMin= -2.21202855906651     IErMin= 4 ErrMin= 8.91D-04
 ErrMax= 8.91D-04  0.00D+00 EMaxC= 1.00D-01 BMatC= 2.97D-05 BMatP= 4.04D-04
 IDIUse=3 WtCom= 9.91D-01 WtEn= 8.91D-03
 Coeff-Com: -0.852D-02 0.967D-01-0.519D+00 0.143D+01
 Coeff-En:   0.000D+00 0.000D+00 0.000D+00 0.100D+01
 Coeff:     -0.844D-02 0.958D-01-0.515D+00 0.143D+01
 Gap=     0.500 Goal=   None    Shift=    0.000
 RMSDP=7.60D-04 MaxDP=4.77D-03 DE=-1.94D-03 OVMax= 5.85D-03

 Cycle   5  Pass 1  IDiag  3:
 E= -2.21219388594645     Delta-E=       -0.000165326880 Rises=F Damp=F
 DIIS: error= 3.17D-04 at cycle   5 NSaved=   5.
 NSaved= 5 IEnMin= 5 EnMin= -2.21219388594645     IErMin= 5 ErrMin= 3.17D-04
 ErrMax= 3.17D-04  0.00D+00 EMaxC= 1.00D-01 BMatC= 3.22D-06 BMatP= 2.97D-05
 IDIUse=3 WtCom= 9.97D-01 WtEn= 3.17D-03
 Coeff-Com: -0.283D-02-0.114D-01 0.200D+00-0.891D+00 0.170D+01
 Coeff-En:   0.000D+00 0.000D+00 0.000D+00 0.000D+00 0.100D+01
 Coeff:     -0.282D-02-0.114D-01 0.200D+00-0.888D+00 0.170D+01
 Gap=     0.500 Goal=   None    Shift=    0.000
 RMSDP=2.72D-04 MaxDP=1.80D-03 DE=-1.65D-04 OVMax= 2.09D-03

 Cycle   6  Pass 1  IDiag  3:
 E= -2.21221282305355     Delta-E=       -0.000018937107 Rises=F Damp=F
 DIIS: error= 9.94D-05 at cycle   6 NSaved=   6.
 NSaved= 6 IEnMin= 6 EnMin= -2.21221282305355     IErMin= 6 ErrMin= 9.94D-05
 ErrMax= 9.94D-05  0.00D+00 EMaxC= 1.00D-01 BMatC= 2.26D-07 BMatP= 3.22D-06
 IDIUse=1 WtCom= 1.00D+00 WtEn= 0.00D+00
 Coeff-Com:  0.187D-02-0.220D-02-0.483D-01 0.293D+00-0.841D+00 0.160D+01
 Coeff:      0.187D-02-0.220D-02-0.483D-01 0.293D+00-0.841D+00 0.160D+01
 Gap=     0.500 Goal=   None    Shift=    0.000
 RMSDP=7.87D-05 MaxDP=6.35D-04 DE=-1.89D-05 OVMax= 4.41D-04

 Cycle   7  Pass 1  IDiag  3:
 E= -2.21221410233102     Delta-E=       -0.000001279277 Rises=F Damp=F
 DIIS: error= 1.50D-05 at cycle   7 NSaved=   7.
 NSaved= 7 IEnMin= 7 EnMin= -2.21221410233102     IErMin= 7 ErrMin= 1.50D-05
 ErrMax= 1.50D-05  0.00D+00 EMaxC= 1.00D-01 BMatC= 6.09D-09 BMatP= 2.26D-07
 IDIUse=1 WtCom= 1.00D+00 WtEn= 0.00D+00
 Coeff-Com: -0.744D-03 0.109D-02 0.175D-01-0.113D+00 0.345D+00-0.726D+00
 Coeff-Com:  0.148D+01
 Coeff:     -0.744D-03 0.109D-02 0.175D-01-0.113D+00 0.345D+00-0.726D+00
 Coeff:      0.148D+01
 Gap=     0.500 Goal=   None    Shift=    0.000
 RMSDP=9.89D-06 MaxDP=7.95D-05 DE=-1.28D-06 OVMax= 7.19D-05

 Cycle   8  Pass 1  IDiag  3:
 E= -2.21221413782241     Delta-E=       -0.000000035491 Rises=F Damp=F
 DIIS: error= 5.93D-06 at cycle   8 NSaved=   8.
 NSaved= 8 IEnMin= 8 EnMin= -2.21221413782241     IErMin= 8 ErrMin= 5.93D-06
 ErrMax= 5.93D-06  0.00D+00 EMaxC= 1.00D-01 BMatC= 1.43D-09 BMatP= 6.09D-09
 IDIUse=1 WtCom= 1.00D+00 WtEn= 0.00D+00
 Coeff-Com:  0.536D-03-0.995D-03-0.109D-01 0.761D-01-0.246D+00 0.548D+00
 Coeff-Com: -0.154D+01 0.217D+01
 Coeff:      0.536D-03-0.995D-03-0.109D-01 0.761D-01-0.246D+00 0.548D+00
 Coeff:     -0.154D+01 0.217D+01
 Gap=     0.500 Goal=   None    Shift=    0.000
 RMSDP=7.75D-06 MaxDP=6.64D-05 DE=-3.55D-08 OVMax= 5.64D-05

 Cycle   9  Pass 1  IDiag  3:
 E= -2.21221414967314     Delta-E=       -0.000000011851 Rises=F Damp=F
 DIIS: error= 2.12D-06 at cycle   9 NSaved=   9.
 NSaved= 9 IEnMin= 9 EnMin= -2.21221414967314     IErMin= 9 ErrMin= 2.12D-06
 ErrMax= 2.12D-06  0.00D+00 EMaxC= 1.00D-01 BMatC= 1.28D-10 BMatP= 1.43D-09
 IDIUse=1 WtCom= 1.00D+00 WtEn= 0.00D+00
 Coeff-Com: -0.138D-03 0.312D-03 0.237D-02-0.187D-01 0.671D-01-0.161D+00
 Coeff-Com:  0.566D+00-0.114D+01 0.169D+01
 Coeff:     -0.138D-03 0.312D-03 0.237D-02-0.187D-01 0.671D-01-0.161D+00
 Coeff:      0.566D+00-0.114D+01 0.169D+01
 Gap=     0.500 Goal=   None    Shift=    0.000
 RMSDP=2.60D-06 MaxDP=1.94D-05 DE=-1.19D-08 OVMax= 1.86D-05

 Cycle  10  Pass 1  IDiag  3:
 E= -2.21221415067531     Delta-E=       -0.000000001002 Rises=F Damp=F
 DIIS: error= 2.64D-07 at cycle  10 NSaved=  10.
 NSaved=10 IEnMin=10 EnMin= -2.21221415067531     IErMin=10 ErrMin= 2.64D-07
 ErrMax= 2.64D-07  0.00D+00 EMaxC= 1.00D-01 BMatC= 2.88D-12 BMatP= 1.28D-10
 IDIUse=1 WtCom= 1.00D+00 WtEn= 0.00D+00
 Coeff-Com:  0.741D-05-0.195D-04-0.130D-03 0.137D-02-0.666D-02 0.185D-01
 Coeff-Com: -0.859D-01 0.216D+00-0.463D+00 0.132D+01
 Coeff:      0.741D-05-0.195D-04-0.130D-03 0.137D-02-0.666D-02 0.185D-01
 Coeff:     -0.859D-01 0.216D+00-0.463D+00 0.132D+01
 Gap=     0.500 Goal=   None    Shift=    0.000
 RMSDP=2.66D-07 MaxDP=2.08D-06 DE=-1.00D-09 OVMax= 2.31D-06

 Cycle  11  Pass 1  IDiag  3:
 E= -2.21221415068993     Delta-E=       -0.000000000015 Rises=F Damp=F
 DIIS: error= 5.26D-08 at cycle  11 NSaved=  11.
 NSaved=11 IEnMin=11 EnMin= -2.21221415068993     IErMin=11 ErrMin= 5.26D-08
 ErrMax= 5.26D-08  0.00D+00 EMaxC= 1.00D-01 BMatC= 8.62D-14 BMatP= 2.88D-12
 IDIUse=1 WtCom= 1.00D+00 WtEn= 0.00D+00
 Coeff-Com:  0.549D-06-0.104D-05-0.341D-05-0.705D-04 0.837D-03-0.280D-02
 Coeff-Com:  0.166D-01-0.472D-01 0.118D+00-0.454D+00 0.137D+01
 Coeff:      0.549D-06-0.104D-05-0.341D-05-0.705D-04 0.837D-03-0.280D-02
 Coeff:      0.166D-01-0.472D-01 0.118D+00-0.454D+00 0.137D+01
 Gap=     0.500 Goal=   None    Shift=    0.000
 RMSDP=3.45D-08 MaxDP=1.97D-07 DE=-1.46D-11 OVMax= 2.15D-07

 Cycle  12  Pass 1  IDiag  3:
 E= -2.21221415069026     Delta-E=        0.000000000000 Rises=F Damp=F
 DIIS: error= 1.22D-08 at cycle  12 NSaved=  12.
 NSaved=12 IEnMin=12 EnMin= -2.21221415069026     IErMin=12 ErrMin= 1.22D-08
 ErrMax= 1.22D-08  0.00D+00 EMaxC= 1.00D-01 BMatC= 3.85D-15 BMatP= 8.62D-14
 IDIUse=1 WtCom= 1.00D+00 WtEn= 0.00D+00
 Coeff-Com: -0.139D-06-0.449D-07 0.243D-05 0.280D-04-0.344D-03 0.114D-02
 Coeff-Com: -0.663D-02 0.188D-01-0.474D-01 0.191D+00-0.685D+00 0.153D+01
 Coeff:     -0.139D-06-0.449D-07 0.243D-05 0.280D-04-0.344D-03 0.114D-02
 Coeff:     -0.663D-02 0.188D-01-0.474D-01 0.191D+00-0.685D+00 0.153D+01
 Gap=     0.500 Goal=   None    Shift=    0.000
 RMSDP=8.30D-09 MaxDP=5.28D-08 DE=-3.27D-13 OVMax= 5.54D-08

 Cycle  13  Pass 2  IDiag  1:
 SCF Done:  E(RAM1) =  -2.21221415069     A.U. after   13 cycles
            NFock= 12  Conv=0.83D-08     -V/T= 0.8783
 KE=-1.817448373257D+01 PE=-1.695977107256D+02 EE= 8.438704267771D+01
 Leave Link  502 at Mon Nov 23 13:23:28 2015, MaxMem=    33554432 cpu:         0.0
 (Enter /home/Applications/g09/g09/l601.exe)
 Copying SCF densities to generalized density rwf, IOpCl= 0 IROHF=0.

 **********************************************************************

            Population analysis using the SCF density.

 **********************************************************************

 Orbital symmetries:
       Occupied  (A) (A) (A) (A) (A) (A) (A) (A) (A) (A) (A) (A)
                 (A)
       Virtual   (A) (A) (A) (A) (A) (A) (A) (A) (A) (A) (A)
 The electronic state is 1-A.
 Alpha  occ. eigenvalues --   -1.53274  -1.13475  -1.09394  -0.86616  -0.82341
 Alpha  occ. eigenvalues --   -0.78590  -0.73985  -0.48888  -0.44829  -0.43270
 Alpha  occ. eigenvalues --   -0.42747  -0.39315  -0.33182
 Alpha virt. eigenvalues --    0.16866   0.18794   0.27866   0.29734   0.30604
 Alpha virt. eigenvalues --    0.33146   0.34448   0.35553   0.40139   0.41566
 Alpha virt. eigenvalues --    0.44576
          Condensed to atoms (all electrons):
               1          2          3          4          5          6
     1  C    4.246389   0.000000   0.000000   0.000000   0.000000   0.000000
     2  C    0.000000   4.107409   0.000000   0.000000   0.000000   0.000000
     3  O    0.000000   0.000000   5.908521   0.000000   0.000000   0.000000
     4  C    0.000000   0.000000   0.000000   3.986842   0.000000   0.000000
     5  C    0.000000   0.000000   0.000000   0.000000   4.341546   0.000000
     6  H    0.000000   0.000000   0.000000   0.000000   0.000000   0.837869
     7  H    0.000000   0.000000   0.000000   0.000000   0.000000   0.000000
     8  H    0.000000   0.000000   0.000000   0.000000   0.000000   0.000000
     9  H    0.000000   0.000000   0.000000   0.000000   0.000000   0.000000
               7          8          9
     1  C    0.000000   0.000000   0.000000
     2  C    0.000000   0.000000   0.000000
     3  O    0.000000   0.000000   0.000000
     4  C    0.000000   0.000000   0.000000
     5  C    0.000000   0.000000   0.000000
     6  H    0.000000   0.000000   0.000000
     7  H    0.869778   0.000000   0.000000
     8  H    0.000000   0.848282   0.000000
     9  H    0.000000   0.000000   0.853364
 Mulliken charges:
               1
     1  C   -0.246389
     2  C   -0.107409
     3  O    0.091479
     4  C    0.013158
     5  C   -0.341546
     6  H    0.162131
     7  H    0.130222
     8  H    0.151718
     9  H    0.146636
 Sum of Mulliken charges =   0.00000
 Mulliken charges with hydrogens summed into heavy atoms:
               1
     1  C   -0.099753
     2  C    0.044309
     3  O    0.091479
     4  C    0.143380
     5  C   -0.179415
 Charge=              0.0000 electrons
 Dipole moment (field-independent basis, Debye):
    X=             -0.2387    Y=             -1.0464    Z=              0.0443  Tot=              1.0742
 N-N= 1.011729376297D+02 E-N=-1.695977107349D+02  KE=-1.817448373257D+01
 Leave Link  601 at Mon Nov 23 13:23:28 2015, MaxMem=    33554432 cpu:         0.0
 (Enter /home/Applications/g09/g09/l701.exe)
 Compute integral first derivatives.
 ... and contract with generalized density number  0.
 Leave Link  701 at Mon Nov 23 13:23:28 2015, MaxMem=    33554432 cpu:         0.0
 (Enter /home/Applications/g09/g09/l702.exe)
 L702 exits ... SP integral derivatives will be done elsewhere.
 Leave Link  702 at Mon Nov 23 13:23:28 2015, MaxMem=    33554432 cpu:         0.0
 (Enter /home/Applications/g09/g09/l703.exe)
 Compute integral first derivatives, UseDBF=F ICtDFT=           0.
 Integral derivatives from FoFJK, PRISM(SPDF).
 Calling FoFJK, ICntrl=      2127 FMM=F ISym2X=0 I1Cent= 0 IOpClX= 0 NMat=1 NMatS=1 NMatT=0.
 FoFJK:  IHMeth= 8 ICntrl=    2127 DoSepK=F KAlg= 0 I1Cent=   0 FoldK=F
 IRaf=         0 NMat=   1 IRICut=       1 DoRegI=T DoRafI=F ISym2E= 0.
 FoFCou: FMM=F IPFlag=           0 FMFlag=      100000 FMFlg1=         800
         NFxFlg=           0 DoJE=F BraDBF=F KetDBF=F FulRan=T
         wScrn=  0.000000 ICntrl=    2127 IOpCl=  0 I1Cent=           0 NGrid=           0
         NMat0=    1 NMatS0=      1 NMatT0=    0 NMatD0=    1 NMtDS0=    0 NMtDT0=    0
 Symmetry not used in FoFCou.
 Leave Link  703 at Mon Nov 23 13:23:28 2015, MaxMem=    33554432 cpu:         0.0
 (Enter /home/Applications/g09/g09/l716.exe)
 Dipole        =-9.39074593D-02-4.11694456D-01 1.74330482D-02
 ***** Axes restored to original set *****
 -------------------------------------------------------------------
 Center     Atomic                   Forces (Hartrees/Bohr)
 Number     Number              X              Y              Z
 -------------------------------------------------------------------
      1        6          -0.049691754    0.009340873   -0.010054294
      2        6           0.019808730    0.069152438    0.005689993
      3        8           0.010598127   -0.040176661   -0.015066446
      4        6          -0.017129664    0.010381377    0.020816670
      5        6           0.008629163   -0.042990242   -0.000318042
      6        1           0.012885530    0.006990424   -0.001013254
      7        1          -0.001278285    0.025017331   -0.005020626
      8        1          -0.003646266   -0.031909263    0.003702162
      9        1           0.019824419   -0.005806277    0.001263838
 -------------------------------------------------------------------
 Cartesian Forces:  Max     0.069152438 RMS     0.023505184
 Leave Link  716 at Mon Nov 23 13:23:28 2015, MaxMem=    33554432 cpu:         0.0
 (Enter /home/Applications/g09/g09/l103.exe)

 GradGradGradGradGradGradGradGradGradGradGradGradGradGradGradGradGradGrad
 Berny optimization.
 FormGI is forming the generalized inverse of G from B-inverse, IUseBI=4.
 Internal  Forces:  Max     0.030349746 RMS     0.012723993
 Search for a local minimum.
 Step number   1 out of a maximum of   48
 All quantities printed in internal units (Hartrees-Bohrs-Radians)
 RMS Force = .12724D-01 SwitMx=.10000D-02 MixMth= 1
 Mixed Optimization -- RFO/linear search
 Second derivative matrix not updated -- first step.
 ITU=  0
     Eigenvalues ---    0.01767   0.01842   0.01999   0.02203   0.02320
     Eigenvalues ---    0.02695   0.15858   0.15956   0.15973   0.16000
     Eigenvalues ---    0.21984   0.22873   0.37850   0.38128   0.38614
     Eigenvalues ---    0.39218   0.40852   0.40914   0.43369   0.49976
     Eigenvalues ---    0.53814
 RFO step:  Lambda=-2.15457229D-02 EMin= 1.76672324D-02
 Linear search not attempted -- first point.
 Iteration  1 RMS(Cart)=  0.05420896 RMS(Int)=  0.00435162
 Iteration  2 RMS(Cart)=  0.00325821 RMS(Int)=  0.00221906
 Iteration  3 RMS(Cart)=  0.00001554 RMS(Int)=  0.00221902
 Iteration  4 RMS(Cart)=  0.00000005 RMS(Int)=  0.00221902
 ITry= 1 IFail=0 DXMaxC= 1.55D-01 DCOld= 1.00D+10 DXMaxT= 3.00D-01 DXLimC= 3.00D+00 Rises=F
 Variable       Old X    -DE/DX   Delta X   Delta X   Delta X     New X
                                 (Linear)    (Quad)   (Total)
    R1        2.64306  -0.03035   0.00000  -0.07118  -0.07164   2.57143
    R2        2.71755  -0.02339   0.00000  -0.05845  -0.05796   2.65958
    R3        1.99330   0.01918   0.00000   0.04636   0.04636   2.03966
    R4        2.67347  -0.01981   0.00000  -0.04616  -0.04703   2.62644
    R5        1.97112   0.02939   0.00000   0.06835   0.06835   2.03946
    R6        2.58045   0.01633   0.00000   0.03613   0.03621   2.61666
    R7        2.54299   0.01962   0.00000   0.03928   0.04004   2.58303
    R8        2.00879   0.02231   0.00000   0.05539   0.05539   2.06418
    R9        2.00182   0.01452   0.00000   0.03562   0.03562   2.03743
    A1        1.87595   0.00653   0.00000   0.00945   0.00682   1.88277
    A2        2.15623   0.00426   0.00000   0.03829   0.03824   2.19447
    A3        2.24961  -0.01063   0.00000  -0.04387  -0.04387   2.20574
    A4        1.88484   0.01184   0.00000   0.03056   0.02737   1.91221
    A5        2.39551  -0.01786   0.00000  -0.08167  -0.08033   2.31518
    A6        2.00096   0.00597   0.00000   0.04982   0.05129   2.05225
    A7        1.84017  -0.00127   0.00000   0.00657   0.00304   1.84322
    A8        1.98331  -0.01921   0.00000  -0.05218  -0.05654   1.92677
    A9        1.97396   0.02044   0.00000   0.09367   0.09053   2.06449
   A10        2.31636  -0.00041   0.00000  -0.02143  -0.02448   2.29188
   A11        1.83679   0.00271   0.00000   0.02011   0.01953   1.85632
   A12        2.19580  -0.00342   0.00000  -0.02143  -0.02115   2.17465
   A13        2.25059   0.00071   0.00000   0.00132   0.00161   2.25221
    D1       -0.05558   0.00392   0.00000   0.10780   0.10984   0.05426
    D2        3.01323   0.00366   0.00000   0.08678   0.08734   3.10057
    D3        3.13819   0.00141   0.00000   0.03694   0.03684  -3.10816
    D4       -0.07618   0.00115   0.00000   0.01591   0.01434  -0.06185
    D5        0.00907  -0.00093   0.00000  -0.01889  -0.01653  -0.00746
    D6       -3.13635  -0.00077   0.00000  -0.01829  -0.01747   3.12936
    D7        3.09478   0.00239   0.00000   0.06041   0.06035  -3.12805
    D8       -0.05064   0.00256   0.00000   0.06101   0.05940   0.00876
    D9        0.07974  -0.00587   0.00000  -0.15418  -0.15824  -0.07850
   D10       -3.00752  -0.00448   0.00000  -0.13245  -0.13354  -3.14106
   D11       -0.07830   0.00698   0.00000   0.15428   0.15265   0.07435
   D12       -3.09103   0.00146   0.00000   0.02186   0.01454  -3.07649
   D13        0.04414  -0.00391   0.00000  -0.08652  -0.08658  -0.04244
   D14       -3.09346  -0.00407   0.00000  -0.08709  -0.08552   3.10421
   D15        3.02414   0.00452   0.00000   0.08980   0.08584   3.10999
   D16       -0.11345   0.00436   0.00000   0.08923   0.08691  -0.02654
         Item               Value     Threshold  Converged?
 Maximum Force            0.030350     0.000450     NO 
 RMS     Force            0.012724     0.000300     NO 
 Maximum Displacement     0.154611     0.001800     NO 
 RMS     Displacement     0.054013     0.001200     NO 
 Predicted change in Energy=-1.262875D-02
 Lowest energy point so far.  Saving SCF results.
 GradGradGradGradGradGradGradGradGradGradGradGradGradGradGradGradGradGrad

 Leave Link  103 at Mon Nov 23 13:23:28 2015, MaxMem=    33554432 cpu:         0.0
 (Enter /home/Applications/g09/g09/l202.exe)
                          Input orientation:                          
 ---------------------------------------------------------------------
 Center     Atomic      Atomic             Coordinates (Angstroms)
 Number     Number       Type             X           Y           Z
 ---------------------------------------------------------------------
      1          6           0        0.962365   -0.671226   -0.001442
      2          6           0       -0.330713   -1.094114    0.025554
      3          8           0       -1.180756    0.003403   -0.042113
      4          6           0       -0.356703    1.115621   -0.006865
      5          6           0        0.956396    0.736077   -0.016043
      6          1           0        1.841274    1.351955   -0.027072
      7          1           0       -0.821601    2.103859    0.013416
      8          1           0       -0.779525   -2.075494    0.011083
      9          1           0        1.834049   -1.307663    0.008236
 ---------------------------------------------------------------------
                    Distance matrix (angstroms):
                    1          2          3          4          5
     1  C    0.000000
     2  C    1.360741   0.000000
     3  O    2.247164   1.389854   0.000000
     4  C    2.220989   2.210125   1.384679   0.000000
     5  C    1.407391   2.237851   2.259405   1.366882   0.000000
     6  H    2.205992   3.271628   3.309303   2.210739   1.078164
     7  H    3.299069   3.235452   2.131664   1.092317   2.243429
     8  H    2.237478   1.079236   2.117930   3.219055   3.304405
     9  H    1.079341   2.175339   3.287929   3.266791   2.224350
                    6          7          8          9
     6  H    0.000000
     7  H    2.767292   0.000000
     8  H    4.314795   4.179566   0.000000
     9  H    2.659862   4.323307   2.724031   0.000000
 Stoichiometry    C4H4O
 Framework group  C1[X(C4H4O)]
 Deg. of freedom    21
 Full point group                 C1      NOp   1
 RotChk:  IX=2 Diff= 4.21D-01
 Largest Abelian subgroup         C1      NOp   1
 Largest concise Abelian subgroup C1      NOp   1
                         Standard orientation:                         
 ---------------------------------------------------------------------
 Center     Atomic      Atomic             Coordinates (Angstroms)
 Number     Number       Type             X           Y           Z
 ---------------------------------------------------------------------
      1          6           0       -0.625998    1.003653    0.005404
      2          6           0       -1.130329   -0.259786   -0.026005
      3          8           0       -0.088397   -1.178164    0.025482
      4          6           0        1.073506   -0.426052   -0.015081
      5          6           0        0.778163    0.908368    0.006387
      6          1           0        1.449035    1.752318    0.017285
      7          1           0        2.030018   -0.952513   -0.047950
      8          1           0       -2.138040   -0.645568   -0.005015
      9          1           0       -1.205892    1.913980    0.007595
 ---------------------------------------------------------------------
 Rotational constants (GHZ):      9.4353096      9.1352041      4.6435068
 Leave Link  202 at Mon Nov 23 13:23:28 2015, MaxMem=    33554432 cpu:         0.0
 (Enter /home/Applications/g09/g09/l301.exe)

 Semi-emprical parameters in input format:
 Method=8 CoreType=1 PeptideFC=0.0166290000 RIJScale=0.6119410000
 ****
 H       
 PQN=1 NValence=1 F0ss=0.4150770000 ZetaOverlap=1.0810580000 U=-0.4286880000
 Beta=-0.2869890000 CoreKO=1.2114800000 KON=0,0,0,1.1025190000 KON=1,0,1,1.1074920000
 KON=0,1,1,1.0916540000 KON=2,1,1,1.0589200000 EISol=-0.4188110042 EHeat=0.0830298228
 Alpha=1.5030030000
 GCore=0.0071120000,1.1207970000,2.7005670000
 GCore=0.0003230000,1.4222460000,3.4015070000
 GCore=-0.0013380000,0.4405990000,4.4481290000
 ****
 C       
 PQN=2,2 NValence=4 F0ss=0.4202500000 F0sp=0.4263690000 F0pp=0.3424460000 F2pp=0.1977130000
 G1sp=0.2746580000
 ZetaOverlap=1.7498310000,1.3881390000
 U=-1.7944250000,-1.4545000000
 Beta=-0.5214990000,-0.3746580000 DDN=0,1,0.8234340000 DDN=1,1,0.7559950000
 CoreKO=1.2002200000 KON=0,0,0,1.1694410000 KON=1,0,1,0.9096420000 KON=0,1,1,0.9370920000
 KON=2,1,1,0.5201690000 EISol=-4.4398989268 EHeat=0.2723305520 Alpha=1.3947510000
 DipHyp=1.6467732542
 GCore=0.0008780000,1.2683970000,2.4090670000
 GCore=0.0034720000,1.4096270000,3.6574610000
 GCore=-0.0014060000,1.4542400000,3.3154880000
 GCore=-0.0001000000,1.4766960000,5.0661660000
 ****
 O       
 PQN=2,2 NValence=6 F0ss=0.5672460000 F0sp=0.5681160000 F0pp=0.4898210000 F2pp=0.2703590000
 G1sp=0.4169050000
 ZetaOverlap=2.7263600000,1.8505270000
 U=-3.5241930000,-3.0238760000
 Beta=-0.9772650000,-1.1886600000 DDN=0,1,0.5807610000 DDN=1,1,0.4521100000
 CoreKO=0.9925760000 KON=0,0,0,0.8355350000 KON=1,0,1,0.5454830000 KON=0,1,1,0.8378550000
 KON=2,1,1,0.5017630000 EISol=-11.6164441184 EHeat=0.0949133088 Alpha=2.2627970000
 DipHyp=1.1614551766
 GCore=0.0225710000,1.2849200000,1.7519400000
 GCore=0.0054870000,1.7991710000,2.8334770000
 ****
 
 Standard basis: VSTO-6G (5D, 7F)
 Ernie: Thresh=  0.10000D-02 Tol=  0.10000D-05 Strict=F.
  NNHCO=     0 NNPyr=     0 NCTC=     0               EPep=         0.000000000
    EC=        66.506598748  ECS=         1.759970171   EG=         0.405123300
   EHC=         0.000000000  EAt=       -31.051283842  AtH=         1.516354808
 EPDDG=         0.000000000  ECC=        68.671692219 EAtT=        32.567638650
 There are    24 symmetry adapted cartesian basis functions of A   symmetry.
 There are    24 symmetry adapted basis functions of A   symmetry.
    24 basis functions,   144 primitive gaussians,    24 cartesian basis functions
    13 alpha electrons       13 beta electrons
       nuclear repulsion energy       101.2393308691 Hartrees.
 IExCor=    0 DFT=F Ex=HF Corr=None ExCW=0 ScaHFX=  1.000000
 ScaDFX=  1.000000  1.000000  1.000000  1.000000 ScalE2=  1.000000  1.000000
 IRadAn=      0 IRanWt=     -1 IRanGd=            0 ICorTp=0 IEmpDi=  4
 Integral buffers will be    131072 words long.
 Regular integral format.
 Two-electron integral symmetry is turned off.
 Leave Link  301 at Mon Nov 23 13:23:28 2015, MaxMem=    33554432 cpu:         0.0
 (Enter /home/Applications/g09/g09/l302.exe)
 Do NDO integrals.
 NPDir=0 NMtPBC=     1 NCelOv=     1 NCel=       1 NClECP=     1 NCelD=      1
         NCelK=      1 NCelE2=     1 NClLst=     1 CellRange=     0.0.
 One-electron integrals computed using PRISM.
 NBasis=    24 RedAO= F EigKep=  0.00D+00  NBF=    24
 NBsUse=    24 1.00D-04 EigRej=  0.00D+00 NBFU=    24
 Leave Link  302 at Mon Nov 23 13:23:28 2015, MaxMem=    33554432 cpu:         0.0
 (Enter /home/Applications/g09/g09/l303.exe)
 DipDrv:  MaxL=1.
 Leave Link  303 at Mon Nov 23 13:23:28 2015, MaxMem=    33554432 cpu:         0.0
 (Enter /home/Applications/g09/g09/l401.exe)
 Initial guess from the checkpoint file:  "/home/Applications/g09/scratch/Gau-4875.chk"
 B after Tr=     0.000000    0.000000    0.000000
         Rot=    0.988956    0.000089    0.000196   -0.148212 Ang=  17.05 deg.
 Guess basis will be translated and rotated to current coordinates.
 JPrj=0 DoOrth=T DoCkMO=T.
 Leave Link  401 at Mon Nov 23 13:23:28 2015, MaxMem=    33554432 cpu:         0.0
 (Enter /home/Applications/g09/g09/l502.exe)
 Closed shell SCF:
 Using DIIS extrapolation, IDIIS=  1040.
 Overlap will be assumed to be unity.
 Two-electron integral symmetry not used.
 Keep J ints in memory in canonical form, NReq=888082.
 IVT=       79475 IEndB=       79475 NGot=    33554432 MDV=    33473473
 LenX=    33473473 LenY=    33472456
 Requested convergence on RMS density matrix=1.00D-08 within 128 cycles.
 Requested convergence on MAX density matrix=1.00D-06.
 Requested convergence on             energy=1.00D-06.
 No special actions if energy rises.
 FoFCou: FMM=F IPFlag=           0 FMFlag=           0 FMFlg1=           0
         NFxFlg=           0 DoJE=F BraDBF=F KetDBF=F FulRan=T
         wScrn=  0.000000 ICntrl=     600 IOpCl=  2 I1Cent=           0 NGrid=           0
         NMat0=    1 NMatS0=     54 NMatT0=    0 NMatD0=    1 NMtDS0=    0 NMtDT0=    0
 Symmetry not used in FoFCou.

 Cycle   1  Pass 1  IDiag  1:
 E= -2.20181584870491    
 DIIS: error= 1.43D-02 at cycle   1 NSaved=   1.
 NSaved= 1 IEnMin= 1 EnMin= -2.20181584870491     IErMin= 1 ErrMin= 1.43D-02
 ErrMax= 1.43D-02  0.00D+00 EMaxC= 1.00D-01 BMatC= 7.71D-03 BMatP= 7.71D-03
 IDIUse=3 WtCom= 8.57D-01 WtEn= 1.43D-01
 Coeff-Com:  0.100D+01
 Coeff-En:   0.100D+01
 Coeff:      0.100D+01
 GapD=    2.000 DampG=2.000 DampE=0.500 DampFc=1.0000 IDamp=-1.
 RMSDP=4.71D-03 MaxDP=1.98D-02              OVMax= 0.00D+00

 Cycle   2  Pass 1  IDiag  3:
 E= -2.21900177430395     Delta-E=       -0.017185925599 Rises=F Damp=F
 DIIS: error= 4.35D-03 at cycle   2 NSaved=   2.
 NSaved= 2 IEnMin= 2 EnMin= -2.21900177430395     IErMin= 2 ErrMin= 4.35D-03
 ErrMax= 4.35D-03  0.00D+00 EMaxC= 1.00D-01 BMatC= 6.33D-04 BMatP= 7.71D-03
 IDIUse=3 WtCom= 9.57D-01 WtEn= 4.35D-02
 Coeff-Com: -0.357D+00 0.136D+01
 Coeff-En:   0.000D+00 0.100D+01
 Coeff:     -0.341D+00 0.134D+01
 Gap=     0.504 Goal=   None    Shift=    0.000
 RMSDP=2.17D-03 MaxDP=8.41D-03 DE=-1.72D-02 OVMax= 1.16D-02

 Cycle   3  Pass 1  IDiag  3:
 E= -2.22098735518584     Delta-E=       -0.001985580882 Rises=F Damp=F
 DIIS: error= 4.38D-04 at cycle   3 NSaved=   3.
 NSaved= 3 IEnMin= 3 EnMin= -2.22098735518584     IErMin= 3 ErrMin= 4.38D-04
 ErrMax= 4.38D-04  0.00D+00 EMaxC= 1.00D-01 BMatC= 1.56D-05 BMatP= 6.33D-04
 IDIUse=3 WtCom= 9.96D-01 WtEn= 4.38D-03
 Coeff-Com:  0.144D+00-0.623D+00 0.148D+01
 Coeff-En:   0.000D+00 0.000D+00 0.100D+01
 Coeff:      0.144D+00-0.620D+00 0.148D+01
 Gap=     0.503 Goal=   None    Shift=    0.000
 RMSDP=5.07D-04 MaxDP=2.24D-03 DE=-1.99D-03 OVMax= 2.88D-03

 Cycle   4  Pass 1  IDiag  3:
 E= -2.22106433246364     Delta-E=       -0.000076977278 Rises=F Damp=F
 DIIS: error= 1.75D-04 at cycle   4 NSaved=   4.
 NSaved= 4 IEnMin= 4 EnMin= -2.22106433246364     IErMin= 4 ErrMin= 1.75D-04
 ErrMax= 1.75D-04  0.00D+00 EMaxC= 1.00D-01 BMatC= 1.21D-06 BMatP= 1.56D-05
 IDIUse=3 WtCom= 9.98D-01 WtEn= 1.75D-03
 Coeff-Com: -0.841D-01 0.370D+00-0.974D+00 0.169D+01
 Coeff-En:   0.000D+00 0.000D+00 0.000D+00 0.100D+01
 Coeff:     -0.839D-01 0.369D+00-0.972D+00 0.169D+01
 Gap=     0.504 Goal=   None    Shift=    0.000
 RMSDP=1.61D-04 MaxDP=1.26D-03 DE=-7.70D-05 OVMax= 1.40D-03

 Cycle   5  Pass 1  IDiag  3:
 E= -2.22107253296251     Delta-E=       -0.000008200499 Rises=F Damp=F
 DIIS: error= 9.81D-05 at cycle   5 NSaved=   5.
 NSaved= 5 IEnMin= 5 EnMin= -2.22107253296251     IErMin= 5 ErrMin= 9.81D-05
 ErrMax= 9.81D-05  0.00D+00 EMaxC= 1.00D-01 BMatC= 2.81D-07 BMatP= 1.21D-06
 IDIUse=1 WtCom= 1.00D+00 WtEn= 0.00D+00
 Coeff-Com:  0.430D-01-0.190D+00 0.531D+00-0.147D+01 0.209D+01
 Coeff:      0.430D-01-0.190D+00 0.531D+00-0.147D+01 0.209D+01
 Gap=     0.504 Goal=   None    Shift=    0.000
 RMSDP=1.21D-04 MaxDP=9.64D-04 DE=-8.20D-06 OVMax= 1.01D-03

 Cycle   6  Pass 1  IDiag  3:
 E= -2.22107500359734     Delta-E=       -0.000002470635 Rises=F Damp=F
 DIIS: error= 2.24D-05 at cycle   6 NSaved=   6.
 NSaved= 6 IEnMin= 6 EnMin= -2.22107500359734     IErMin= 6 ErrMin= 2.24D-05
 ErrMax= 2.24D-05  0.00D+00 EMaxC= 1.00D-01 BMatC= 1.52D-08 BMatP= 2.81D-07
 IDIUse=1 WtCom= 1.00D+00 WtEn= 0.00D+00
 Coeff-Com: -0.411D-02 0.183D-01-0.581D-01 0.274D+00-0.681D+00 0.145D+01
 Coeff:     -0.411D-02 0.183D-01-0.581D-01 0.274D+00-0.681D+00 0.145D+01
 Gap=     0.504 Goal=   None    Shift=    0.000
 RMSDP=2.80D-05 MaxDP=2.19D-04 DE=-2.47D-06 OVMax= 2.08D-04

 Cycle   7  Pass 1  IDiag  3:
 E= -2.22107511783374     Delta-E=       -0.000000114236 Rises=F Damp=F
 DIIS: error= 2.41D-06 at cycle   7 NSaved=   7.
 NSaved= 7 IEnMin= 7 EnMin= -2.22107511783374     IErMin= 7 ErrMin= 2.41D-06
 ErrMax= 2.41D-06  0.00D+00 EMaxC= 1.00D-01 BMatC= 3.68D-10 BMatP= 1.52D-08
 IDIUse=1 WtCom= 1.00D+00 WtEn= 0.00D+00
 Coeff-Com: -0.247D-03 0.105D-02-0.158D-02-0.203D-01 0.101D+00-0.370D+00
 Coeff-Com:  0.129D+01
 Coeff:     -0.247D-03 0.105D-02-0.158D-02-0.203D-01 0.101D+00-0.370D+00
 Coeff:      0.129D+01
 Gap=     0.504 Goal=   None    Shift=    0.000
 RMSDP=2.53D-06 MaxDP=1.33D-05 DE=-1.14D-07 OVMax= 1.32D-05

 Cycle   8  Pass 1  IDiag  3:
 E= -2.22107511961458     Delta-E=       -0.000000001781 Rises=F Damp=F
 DIIS: error= 7.53D-07 at cycle   8 NSaved=   8.
 NSaved= 8 IEnMin= 8 EnMin= -2.22107511961458     IErMin= 8 ErrMin= 7.53D-07
 ErrMax= 7.53D-07  0.00D+00 EMaxC= 1.00D-01 BMatC= 1.92D-11 BMatP= 3.68D-10
 IDIUse=1 WtCom= 1.00D+00 WtEn= 0.00D+00
 Coeff-Com:  0.165D-03-0.728D-03 0.197D-02-0.336D-02-0.271D-02 0.439D-01
 Coeff-Com: -0.355D+00 0.132D+01
 Coeff:      0.165D-03-0.728D-03 0.197D-02-0.336D-02-0.271D-02 0.439D-01
 Coeff:     -0.355D+00 0.132D+01
 Gap=     0.504 Goal=   None    Shift=    0.000
 RMSDP=5.59D-07 MaxDP=3.05D-06 DE=-1.78D-09 OVMax= 4.16D-06

 Cycle   9  Pass 1  IDiag  3:
 E= -2.22107511971119     Delta-E=       -0.000000000097 Rises=F Damp=F
 DIIS: error= 2.39D-07 at cycle   9 NSaved=   9.
 NSaved= 9 IEnMin= 9 EnMin= -2.22107511971119     IErMin= 9 ErrMin= 2.39D-07
 ErrMax= 2.39D-07  0.00D+00 EMaxC= 1.00D-01 BMatC= 1.53D-12 BMatP= 1.92D-11
 IDIUse=1 WtCom= 1.00D+00 WtEn= 0.00D+00
 Coeff-Com: -0.774D-04 0.343D-03-0.101D-02 0.325D-02-0.506D-02-0.139D-02
 Coeff-Com:  0.116D+00-0.677D+00 0.156D+01
 Coeff:     -0.774D-04 0.343D-03-0.101D-02 0.325D-02-0.506D-02-0.139D-02
 Coeff:      0.116D+00-0.677D+00 0.156D+01
 Gap=     0.504 Goal=   None    Shift=    0.000
 RMSDP=1.75D-07 MaxDP=1.14D-06 DE=-9.66D-11 OVMax= 1.43D-06

 Cycle  10  Pass 1  IDiag  3:
 E= -2.22107511971930     Delta-E=       -0.000000000008 Rises=F Damp=F
 DIIS: error= 4.92D-08 at cycle  10 NSaved=  10.
 NSaved=10 IEnMin=10 EnMin= -2.22107511971930     IErMin=10 ErrMin= 4.92D-08
 ErrMax= 4.92D-08  0.00D+00 EMaxC= 1.00D-01 BMatC= 9.85D-14 BMatP= 1.53D-12
 IDIUse=1 WtCom= 1.00D+00 WtEn= 0.00D+00
 Coeff-Com:  0.296D-04-0.132D-03 0.398D-03-0.136D-02 0.216D-02 0.112D-02
 Coeff-Com: -0.570D-01 0.343D+00-0.929D+00 0.164D+01
 Coeff:      0.296D-04-0.132D-03 0.398D-03-0.136D-02 0.216D-02 0.112D-02
 Coeff:     -0.570D-01 0.343D+00-0.929D+00 0.164D+01
 Gap=     0.504 Goal=   None    Shift=    0.000
 RMSDP=4.50D-08 MaxDP=2.77D-07 DE=-8.11D-12 OVMax= 3.67D-07

 Cycle  11  Pass 1  IDiag  3:
 E= -2.22107511971974     Delta-E=        0.000000000000 Rises=F Damp=F
 DIIS: error= 1.79D-08 at cycle  11 NSaved=  11.
 NSaved=11 IEnMin=11 EnMin= -2.22107511971974     IErMin=11 ErrMin= 1.79D-08
 ErrMax= 1.79D-08  0.00D+00 EMaxC= 1.00D-01 BMatC= 7.65D-15 BMatP= 9.85D-14
 IDIUse=1 WtCom= 1.00D+00 WtEn= 0.00D+00
 Coeff-Com: -0.121D-04 0.540D-04-0.167D-03 0.605D-03-0.103D-02-0.160D-03
 Coeff-Com:  0.237D-01-0.149D+00 0.431D+00-0.996D+00 0.169D+01
 Coeff:     -0.121D-04 0.540D-04-0.167D-03 0.605D-03-0.103D-02-0.160D-03
 Coeff:      0.237D-01-0.149D+00 0.431D+00-0.996D+00 0.169D+01
 Gap=     0.504 Goal=   None    Shift=    0.000
 RMSDP=1.40D-08 MaxDP=8.86D-08 DE=-4.41D-13 OVMax= 1.05D-07

 Cycle  12  Pass 1  IDiag  3:
 E= -2.22107511971994     Delta-E=        0.000000000000 Rises=F Damp=F
 DIIS: error= 3.27D-09 at cycle  12 NSaved=  12.
 NSaved=12 IEnMin=12 EnMin= -2.22107511971994     IErMin=12 ErrMin= 3.27D-09
 ErrMax= 3.27D-09  0.00D+00 EMaxC= 1.00D-01 BMatC= 2.21D-16 BMatP= 7.65D-15
 IDIUse=1 WtCom= 1.00D+00 WtEn= 0.00D+00
 Coeff-Com:  0.245D-05-0.110D-04 0.346D-04-0.128D-03 0.209D-03 0.162D-03
 Coeff-Com: -0.636D-02 0.389D-01-0.113D+00 0.282D+00-0.600D+00 0.140D+01
 Coeff:      0.245D-05-0.110D-04 0.346D-04-0.128D-03 0.209D-03 0.162D-03
 Coeff:     -0.636D-02 0.389D-01-0.113D+00 0.282D+00-0.600D+00 0.140D+01
 Gap=     0.504 Goal=   None    Shift=    0.000
 RMSDP=1.98D-09 MaxDP=1.50D-08 DE=-1.99D-13 OVMax= 1.07D-08

 Cycle  13  Pass 2  IDiag  1:
 SCF Done:  E(RAM1) =  -2.22107511972     A.U. after   13 cycles
            NFock= 12  Conv=0.20D-08     -V/T= 0.8778
 KE=-1.817293779942D+01 PE=-1.697672024171D+02 EE= 8.447973422776D+01
 Leave Link  502 at Mon Nov 23 13:23:28 2015, MaxMem=    33554432 cpu:         0.0
 (Enter /home/Applications/g09/g09/l701.exe)
 Compute integral first derivatives.
 ... and contract with generalized density number  0.
 Leave Link  701 at Mon Nov 23 13:23:28 2015, MaxMem=    33554432 cpu:         0.0
 (Enter /home/Applications/g09/g09/l702.exe)
 L702 exits ... SP integral derivatives will be done elsewhere.
 Leave Link  702 at Mon Nov 23 13:23:28 2015, MaxMem=    33554432 cpu:         0.0
 (Enter /home/Applications/g09/g09/l703.exe)
 Compute integral first derivatives, UseDBF=F ICtDFT=           0.
 Integral derivatives from FoFJK, PRISM(SPDF).
 Calling FoFJK, ICntrl=      2127 FMM=F ISym2X=0 I1Cent= 0 IOpClX= 0 NMat=1 NMatS=1 NMatT=0.
 FoFJK:  IHMeth= 8 ICntrl=    2127 DoSepK=F KAlg= 0 I1Cent=   0 FoldK=F
 IRaf=         0 NMat=   1 IRICut=       1 DoRegI=T DoRafI=F ISym2E= 0.
 FoFCou: FMM=F IPFlag=           0 FMFlag=      100000 FMFlg1=         800
         NFxFlg=           0 DoJE=F BraDBF=F KetDBF=F FulRan=T
         wScrn=  0.000000 ICntrl=    2127 IOpCl=  0 I1Cent=           0 NGrid=           0
         NMat0=    1 NMatS0=      1 NMatT0=    0 NMatD0=    1 NMtDS0=    0 NMtDT0=    0
 Symmetry not used in FoFCou.
 Leave Link  703 at Mon Nov 23 13:23:28 2015, MaxMem=    33554432 cpu:         0.0
 (Enter /home/Applications/g09/g09/l716.exe)
 Dipole        =-3.50054961D-02-3.63318907D-01 1.06544827D-03
 ***** Axes restored to original set *****
 -------------------------------------------------------------------
 Center     Atomic                   Forces (Hartrees/Bohr)
 Number     Number              X              Y              Z
 -------------------------------------------------------------------
      1        6           0.011048815   -0.009107474    0.006372471
      2        6          -0.014441219    0.007794656   -0.017545574
      3        8          -0.000778767    0.000798578    0.016131825
      4        6          -0.008646358    0.004946069   -0.008648917
      5        6           0.003097098    0.001829098    0.002959872
      6        1          -0.000452287    0.001125215    0.000551699
      7        1           0.004959895   -0.007705874   -0.001892368
      8        1           0.002371311   -0.002109037    0.002060889
      9        1           0.002841513    0.002428768    0.000010102
 -------------------------------------------------------------------
 Cartesian Forces:  Max     0.017545574 RMS     0.007194693
 Leave Link  716 at Mon Nov 23 13:23:28 2015, MaxMem=    33554432 cpu:         0.0
 (Enter /home/Applications/g09/g09/l103.exe)

 GradGradGradGradGradGradGradGradGradGradGradGradGradGradGradGradGradGrad
 Berny optimization.
 Using GEDIIS/GDIIS optimizer.
 FormGI is forming the generalized inverse of G from B-inverse, IUseBI=4.
 Internal  Forces:  Max     0.010437455 RMS     0.003710344
 Search for a local minimum.
 Step number   2 out of a maximum of   48
 All quantities printed in internal units (Hartrees-Bohrs-Radians)
 RMS Force = .37103D-02 SwitMx=.10000D-02 MixMth= 1
 Mixed Optimization -- RFO/linear search
 Update second derivatives using D2CorX and points    1    2
 DE= -8.86D-03 DEPred=-1.26D-02 R= 7.02D-01
 TightC=F SS=  1.41D+00  RLast= 4.20D-01 DXNew= 5.0454D-01 1.2586D+00
 Trust test= 7.02D-01 RLast= 4.20D-01 DXMaxT set to 5.05D-01
 ITU=  1  0
 Use linear search instead of GDIIS.
     Eigenvalues ---    0.01772   0.01955   0.02045   0.02208   0.02550
     Eigenvalues ---    0.03403   0.14348   0.15962   0.15999   0.16118
     Eigenvalues ---    0.21478   0.23227   0.36993   0.37930   0.38778
     Eigenvalues ---    0.39258   0.40101   0.41211   0.45540   0.49907
     Eigenvalues ---    0.53697
 RFO step:  Lambda=-4.86111522D-03 EMin= 1.77229053D-02
 Quartic linear search produced a step of -0.15251.
 Iteration  1 RMS(Cart)=  0.03774808 RMS(Int)=  0.00359742
 Iteration  2 RMS(Cart)=  0.00280175 RMS(Int)=  0.00227787
 Iteration  3 RMS(Cart)=  0.00000612 RMS(Int)=  0.00227786
 Iteration  4 RMS(Cart)=  0.00000001 RMS(Int)=  0.00227786
 ITry= 1 IFail=0 DXMaxC= 1.63D-01 DCOld= 1.00D+10 DXMaxT= 5.05D-01 DXLimC= 3.00D+00 Rises=F
 Variable       Old X    -DE/DX   Delta X   Delta X   Delta X     New X
                                 (Linear)    (Quad)   (Total)
    R1        2.57143   0.01044   0.01093  -0.01386  -0.00208   2.56934
    R2        2.65958   0.00279   0.00884  -0.02053  -0.01128   2.64830
    R3        2.03966   0.00086  -0.00707   0.02360   0.01653   2.05618
    R4        2.62644  -0.00164   0.00717  -0.02566  -0.01828   2.60817
    R5        2.03946   0.00090  -0.01042   0.03391   0.02349   2.06295
    R6        2.61666  -0.00199  -0.00552   0.01307   0.00672   2.62338
    R7        2.58303   0.00391  -0.00611   0.02452   0.01778   2.60081
    R8        2.06418  -0.00912  -0.00845   0.00585  -0.00260   2.06158
    R9        2.03743   0.00027  -0.00543   0.01729   0.01185   2.04929
    A1        1.88277  -0.00535  -0.00104  -0.01320  -0.01496   1.86781
    A2        2.19447   0.00639  -0.00583   0.04537   0.03987   2.23433
    A3        2.20574  -0.00101   0.00669  -0.03176  -0.02477   2.18097
    A4        1.91221   0.00365  -0.00417   0.03168   0.02096   1.93317
    A5        2.31518  -0.00450   0.01225  -0.05468  -0.04710   2.26808
    A6        2.05225   0.00132  -0.00782   0.03799   0.02473   2.07698
    A7        1.84322  -0.00120  -0.00046  -0.00342  -0.00711   1.83610
    A8        1.92677   0.00299   0.00862  -0.01584  -0.00993   1.91684
    A9        2.06449  -0.00027  -0.01381   0.04145   0.02940   2.09389
   A10        2.29188  -0.00269   0.00373  -0.02546  -0.01987   2.27201
   A11        1.85632   0.00053  -0.00298   0.01410   0.00905   1.86537
   A12        2.17465   0.00095   0.00323  -0.00613  -0.00199   2.17266
   A13        2.25221  -0.00147  -0.00025  -0.00787  -0.00721   2.24500
    D1        0.05426  -0.00478  -0.01675  -0.11833  -0.13650  -0.08224
    D2        3.10057   0.00172  -0.01332   0.08556   0.06872  -3.11389
    D3       -3.10816  -0.00355  -0.00562  -0.09793  -0.10314   3.07189
    D4       -0.06185   0.00294  -0.00219   0.10596   0.10208   0.04024
    D5       -0.00746   0.00080   0.00252   0.03500   0.03572   0.02826
    D6        3.12936   0.00145   0.00267   0.05600   0.05828  -3.09554
    D7       -3.12805  -0.00054  -0.00920   0.01325   0.00267  -3.12539
    D8        0.00876   0.00010  -0.00906   0.03425   0.02523   0.03400
    D9       -0.07850   0.00677   0.02413   0.15331   0.18022   0.10172
   D10       -3.14106   0.00178   0.02037  -0.01009   0.00487  -3.13619
   D11        0.07435  -0.00636  -0.02328  -0.13405  -0.15678  -0.08243
   D12       -3.07649  -0.00352  -0.00222  -0.11911  -0.11891   3.08778
   D13       -0.04244   0.00354   0.01321   0.06327   0.07720   0.03476
   D14        3.10421   0.00285   0.01304   0.04100   0.05337  -3.12561
   D15        3.10999   0.00019  -0.01309   0.04526   0.03391  -3.13928
   D16       -0.02654  -0.00051  -0.01326   0.02300   0.01008  -0.01646
         Item               Value     Threshold  Converged?
 Maximum Force            0.010437     0.000450     NO 
 RMS     Force            0.003710     0.000300     NO 
 Maximum Displacement     0.162501     0.001800     NO 
 RMS     Displacement     0.037080     0.001200     NO 
 Predicted change in Energy=-3.072367D-03
 Lowest energy point so far.  Saving SCF results.
 GradGradGradGradGradGradGradGradGradGradGradGradGradGradGradGradGradGrad

 Leave Link  103 at Mon Nov 23 13:23:28 2015, MaxMem=    33554432 cpu:         0.0
 (Enter /home/Applications/g09/g09/l202.exe)
                          Input orientation:                          
 ---------------------------------------------------------------------
 Center     Atomic      Atomic             Coordinates (Angstroms)
 Number     Number       Type             X           Y           Z
 ---------------------------------------------------------------------
      1          6           0        0.955991   -0.677133    0.004379
      2          6           0       -0.341852   -1.081008   -0.028827
      3          8           0       -1.193501    0.002648    0.043879
      4          6           0       -0.368850    1.118045   -0.011219
      5          6           0        0.949886    0.724221   -0.007811
      6          1           0        1.840942    1.341933   -0.029098
      7          1           0       -0.804713    2.118078   -0.021839
      8          1           0       -0.763436   -2.087786   -0.008917
      9          1           0        1.850319   -1.296580    0.024208
 ---------------------------------------------------------------------
                    Distance matrix (angstroms):
                    1          2          3          4          5
     1  C    0.000000
     2  C    1.359638   0.000000
     3  O    2.254768   1.380182   0.000000
     4  C    2.231167   2.199289   1.388234   0.000000
     5  C    1.401420   2.219883   2.262177   1.376290   0.000000
     6  H    2.204742   3.261171   3.317658   2.221176   1.084436
     7  H    3.303630   3.232405   2.151864   1.090943   2.240904
     8  H    2.224083   1.091664   2.134868   3.230024   3.292849
     9  H    1.088086   2.203383   3.309565   3.279691   2.212564
                    6          7          8          9
     6  H    0.000000
     7  H    2.757162   0.000000
     8  H    4.306526   4.206087   0.000000
     9  H    2.639068   4.325645   2.731083   0.000000
 Stoichiometry    C4H4O
 Framework group  C1[X(C4H4O)]
 Deg. of freedom    21
 Full point group                 C1      NOp   1
 RotChk:  IX=0 Diff= 2.09D-01
 Largest Abelian subgroup         C1      NOp   1
 Largest concise Abelian subgroup C1      NOp   1
                         Standard orientation:                         
 ---------------------------------------------------------------------
 Center     Atomic      Atomic             Coordinates (Angstroms)
 Number     Number       Type             X           Y           Z
 ---------------------------------------------------------------------
      1          6           0       -0.771660    0.901813   -0.012281
      2          6           0       -1.066003   -0.424732    0.035204
      3          8           0        0.084813   -1.183883   -0.029730
      4          6           0        1.127650   -0.268644    0.015272
      5          6           0        0.625334    1.012591   -0.001691
      6          1           0        1.166675    1.952181    0.009386
      7          1           0        2.160521   -0.619553    0.029337
      8          1           0       -2.034166   -0.928902    0.020974
      9          1           0       -1.463463    1.741170   -0.040882
 ---------------------------------------------------------------------
 Rotational constants (GHZ):      9.4892055      9.0786833      4.6428091
 Leave Link  202 at Mon Nov 23 13:23:28 2015, MaxMem=    33554432 cpu:         0.0
 (Enter /home/Applications/g09/g09/l301.exe)

 Semi-emprical parameters in input format:
 Method=8 CoreType=1 PeptideFC=0.0166290000 RIJScale=0.6119410000
 ****
 H       
 PQN=1 NValence=1 F0ss=0.4150770000 ZetaOverlap=1.0810580000 U=-0.4286880000
 Beta=-0.2869890000 CoreKO=1.2114800000 KON=0,0,0,1.1025190000 KON=1,0,1,1.1074920000
 KON=0,1,1,1.0916540000 KON=2,1,1,1.0589200000 EISol=-0.4188110042 EHeat=0.0830298228
 Alpha=1.5030030000
 GCore=0.0071120000,1.1207970000,2.7005670000
 GCore=0.0003230000,1.4222460000,3.4015070000
 GCore=-0.0013380000,0.4405990000,4.4481290000
 ****
 C       
 PQN=2,2 NValence=4 F0ss=0.4202500000 F0sp=0.4263690000 F0pp=0.3424460000 F2pp=0.1977130000
 G1sp=0.2746580000
 ZetaOverlap=1.7498310000,1.3881390000
 U=-1.7944250000,-1.4545000000
 Beta=-0.5214990000,-0.3746580000 DDN=0,1,0.8234340000 DDN=1,1,0.7559950000
 CoreKO=1.2002200000 KON=0,0,0,1.1694410000 KON=1,0,1,0.9096420000 KON=0,1,1,0.9370920000
 KON=2,1,1,0.5201690000 EISol=-4.4398989268 EHeat=0.2723305520 Alpha=1.3947510000
 DipHyp=1.6467732542
 GCore=0.0008780000,1.2683970000,2.4090670000
 GCore=0.0034720000,1.4096270000,3.6574610000
 GCore=-0.0014060000,1.4542400000,3.3154880000
 GCore=-0.0001000000,1.4766960000,5.0661660000
 ****
 O       
 PQN=2,2 NValence=6 F0ss=0.5672460000 F0sp=0.5681160000 F0pp=0.4898210000 F2pp=0.2703590000
 G1sp=0.4169050000
 ZetaOverlap=2.7263600000,1.8505270000
 U=-3.5241930000,-3.0238760000
 Beta=-0.9772650000,-1.1886600000 DDN=0,1,0.5807610000 DDN=1,1,0.4521100000
 CoreKO=0.9925760000 KON=0,0,0,0.8355350000 KON=1,0,1,0.5454830000 KON=0,1,1,0.8378550000
 KON=2,1,1,0.5017630000 EISol=-11.6164441184 EHeat=0.0949133088 Alpha=2.2627970000
 DipHyp=1.1614551766
 GCore=0.0225710000,1.2849200000,1.7519400000
 GCore=0.0054870000,1.7991710000,2.8334770000
 ****
 
 Standard basis: VSTO-6G (5D, 7F)
 Ernie: Thresh=  0.10000D-02 Tol=  0.10000D-05 Strict=F.
  NNHCO=     0 NNPyr=     0 NCTC=     0               EPep=         0.000000000
    EC=        66.483067144  ECS=         1.751276213   EG=         0.407379599
   EHC=         0.000000000  EAt=       -31.051283842  AtH=         1.516354808
 EPDDG=         0.000000000  ECC=        68.641722956 EAtT=        32.567638650
 There are    24 symmetry adapted cartesian basis functions of A   symmetry.
 There are    24 symmetry adapted basis functions of A   symmetry.
    24 basis functions,   144 primitive gaussians,    24 cartesian basis functions
    13 alpha electrons       13 beta electrons
       nuclear repulsion energy       101.2093616062 Hartrees.
 IExCor=    0 DFT=F Ex=HF Corr=None ExCW=0 ScaHFX=  1.000000
 ScaDFX=  1.000000  1.000000  1.000000  1.000000 ScalE2=  1.000000  1.000000
 IRadAn=      0 IRanWt=     -1 IRanGd=            0 ICorTp=0 IEmpDi=  4
 Integral buffers will be    131072 words long.
 Regular integral format.
 Two-electron integral symmetry is turned off.
 Leave Link  301 at Mon Nov 23 13:23:28 2015, MaxMem=    33554432 cpu:         0.0
 (Enter /home/Applications/g09/g09/l302.exe)
 Do NDO integrals.
 NPDir=0 NMtPBC=     1 NCelOv=     1 NCel=       1 NClECP=     1 NCelD=      1
         NCelK=      1 NCelE2=     1 NClLst=     1 CellRange=     0.0.
 One-electron integrals computed using PRISM.
 NBasis=    24 RedAO= F EigKep=  0.00D+00  NBF=    24
 NBsUse=    24 1.00D-04 EigRej=  0.00D+00 NBFU=    24
 Leave Link  302 at Mon Nov 23 13:23:28 2015, MaxMem=    33554432 cpu:         0.0
 (Enter /home/Applications/g09/g09/l303.exe)
 DipDrv:  MaxL=1.
 Leave Link  303 at Mon Nov 23 13:23:28 2015, MaxMem=    33554432 cpu:         0.0
 (Enter /home/Applications/g09/g09/l401.exe)
 Initial guess from the checkpoint file:  "/home/Applications/g09/scratch/Gau-4875.chk"
 B after Tr=     0.000000    0.000000    0.000000
         Rot=    0.997247   -0.000011    0.000006   -0.074145 Ang=  -8.50 deg.
 Guess basis will be translated and rotated to current coordinates.
 JPrj=0 DoOrth=T DoCkMO=T.
 Leave Link  401 at Mon Nov 23 13:23:28 2015, MaxMem=    33554432 cpu:         0.0
 (Enter /home/Applications/g09/g09/l502.exe)
 Closed shell SCF:
 Using DIIS extrapolation, IDIIS=  1040.
 Overlap will be assumed to be unity.
 Two-electron integral symmetry not used.
 Keep J ints in memory in canonical form, NReq=888082.
 IVT=       79475 IEndB=       79475 NGot=    33554432 MDV=    33473473
 LenX=    33473473 LenY=    33472456
 Requested convergence on RMS density matrix=1.00D-08 within 128 cycles.
 Requested convergence on MAX density matrix=1.00D-06.
 Requested convergence on             energy=1.00D-06.
 No special actions if energy rises.
 FoFCou: FMM=F IPFlag=           0 FMFlag=           0 FMFlg1=           0
         NFxFlg=           0 DoJE=F BraDBF=F KetDBF=F FulRan=T
         wScrn=  0.000000 ICntrl=     600 IOpCl=  2 I1Cent=           0 NGrid=           0
         NMat0=    1 NMatS0=     54 NMatT0=    0 NMatD0=    1 NMtDS0=    0 NMtDT0=    0
 Symmetry not used in FoFCou.

 Cycle   1  Pass 1  IDiag  1:
 E= -2.20282287300583    
 DIIS: error= 1.64D-02 at cycle   1 NSaved=   1.
 NSaved= 1 IEnMin= 1 EnMin= -2.20282287300583     IErMin= 1 ErrMin= 1.64D-02
 ErrMax= 1.64D-02  0.00D+00 EMaxC= 1.00D-01 BMatC= 6.83D-03 BMatP= 6.83D-03
 IDIUse=3 WtCom= 8.36D-01 WtEn= 1.64D-01
 Coeff-Com:  0.100D+01
 Coeff-En:   0.100D+01
 Coeff:      0.100D+01
 GapD=    2.000 DampG=2.000 DampE=0.500 DampFc=1.0000 IDamp=-1.
 RMSDP=4.53D-03 MaxDP=2.30D-02              OVMax= 0.00D+00

 Cycle   2  Pass 1  IDiag  3:
 E= -2.21854770819911     Delta-E=       -0.015724835193 Rises=F Damp=F
 DIIS: error= 4.77D-03 at cycle   2 NSaved=   2.
 NSaved= 2 IEnMin= 2 EnMin= -2.21854770819911     IErMin= 2 ErrMin= 4.77D-03
 ErrMax= 4.77D-03  0.00D+00 EMaxC= 1.00D-01 BMatC= 6.04D-04 BMatP= 6.83D-03
 IDIUse=3 WtCom= 9.52D-01 WtEn= 4.77D-02
 Coeff-Com: -0.379D+00 0.138D+01
 Coeff-En:   0.000D+00 0.100D+01
 Coeff:     -0.360D+00 0.136D+01
 Gap=     0.501 Goal=   None    Shift=    0.000
 RMSDP=2.19D-03 MaxDP=9.90D-03 DE=-1.57D-02 OVMax= 1.29D-02

 Cycle   3  Pass 1  IDiag  3:
 E= -2.22050003589071     Delta-E=       -0.001952327692 Rises=F Damp=F
 DIIS: error= 4.27D-04 at cycle   3 NSaved=   3.
 NSaved= 3 IEnMin= 3 EnMin= -2.22050003589071     IErMin= 3 ErrMin= 4.27D-04
 ErrMax= 4.27D-04  0.00D+00 EMaxC= 1.00D-01 BMatC= 1.22D-05 BMatP= 6.04D-04
 IDIUse=3 WtCom= 9.96D-01 WtEn= 4.27D-03
 Coeff-Com:  0.141D+00-0.591D+00 0.145D+01
 Coeff-En:   0.000D+00 0.000D+00 0.100D+01
 Coeff:      0.140D+00-0.589D+00 0.145D+01
 Gap=     0.501 Goal=   None    Shift=    0.000
 RMSDP=4.47D-04 MaxDP=1.86D-03 DE=-1.95D-03 OVMax= 2.93D-03

 Cycle   4  Pass 1  IDiag  3:
 E= -2.22055627351887     Delta-E=       -0.000056237628 Rises=F Damp=F
 DIIS: error= 7.71D-05 at cycle   4 NSaved=   4.
 NSaved= 4 IEnMin= 4 EnMin= -2.22055627351887     IErMin= 4 ErrMin= 7.71D-05
 ErrMax= 7.71D-05  0.00D+00 EMaxC= 1.00D-01 BMatC= 3.46D-07 BMatP= 1.22D-05
 IDIUse=1 WtCom= 1.00D+00 WtEn= 0.00D+00
 Coeff-Com: -0.619D-01 0.262D+00-0.691D+00 0.149D+01
 Coeff:     -0.619D-01 0.262D+00-0.691D+00 0.149D+01
 Gap=     0.501 Goal=   None    Shift=    0.000
 RMSDP=7.57D-05 MaxDP=5.86D-04 DE=-5.62D-05 OVMax= 5.68D-04

 Cycle   5  Pass 1  IDiag  3:
 E= -2.22055828958527     Delta-E=       -0.000002016066 Rises=F Damp=F
 DIIS: error= 4.92D-05 at cycle   5 NSaved=   5.
 NSaved= 5 IEnMin= 5 EnMin= -2.22055828958527     IErMin= 5 ErrMin= 4.92D-05
 ErrMax= 4.92D-05  0.00D+00 EMaxC= 1.00D-01 BMatC= 7.87D-08 BMatP= 3.46D-07
 IDIUse=1 WtCom= 1.00D+00 WtEn= 0.00D+00
 Coeff-Com:  0.484D-01-0.205D+00 0.550D+00-0.151D+01 0.212D+01
 Coeff:      0.484D-01-0.205D+00 0.550D+00-0.151D+01 0.212D+01
 Gap=     0.501 Goal=   None    Shift=    0.000
 RMSDP=5.55D-05 MaxDP=4.67D-04 DE=-2.02D-06 OVMax= 4.87D-04

 Cycle   6  Pass 1  IDiag  3:
 E= -2.22055894814930     Delta-E=       -0.000000658564 Rises=F Damp=F
 DIIS: error= 1.89D-05 at cycle   6 NSaved=   6.
 NSaved= 6 IEnMin= 6 EnMin= -2.22055894814930     IErMin= 6 ErrMin= 1.89D-05
 ErrMax= 1.89D-05  0.00D+00 EMaxC= 1.00D-01 BMatC= 9.39D-09 BMatP= 7.87D-08
 IDIUse=1 WtCom= 1.00D+00 WtEn= 0.00D+00
 Coeff-Com: -0.131D-01 0.556D-01-0.151D+00 0.491D+00-0.110D+01 0.172D+01
 Coeff:     -0.131D-01 0.556D-01-0.151D+00 0.491D+00-0.110D+01 0.172D+01
 Gap=     0.501 Goal=   None    Shift=    0.000
 RMSDP=2.36D-05 MaxDP=1.78D-04 DE=-6.59D-07 OVMax= 1.92D-04

 Cycle   7  Pass 1  IDiag  3:
 E= -2.22055902681701     Delta-E=       -0.000000078668 Rises=F Damp=F
 DIIS: error= 2.36D-06 at cycle   7 NSaved=   7.
 NSaved= 7 IEnMin= 7 EnMin= -2.22055902681701     IErMin= 7 ErrMin= 2.36D-06
 ErrMax= 2.36D-06  0.00D+00 EMaxC= 1.00D-01 BMatC= 2.49D-10 BMatP= 9.39D-09
 IDIUse=1 WtCom= 1.00D+00 WtEn= 0.00D+00
 Coeff-Com:  0.175D-02-0.741D-02 0.203D-01-0.789D-01 0.241D+00-0.542D+00
 Coeff-Com:  0.137D+01
 Coeff:      0.175D-02-0.741D-02 0.203D-01-0.789D-01 0.241D+00-0.542D+00
 Coeff:      0.137D+01
 Gap=     0.501 Goal=   None    Shift=    0.000
 RMSDP=2.49D-06 MaxDP=1.70D-05 DE=-7.87D-08 OVMax= 1.26D-05

 Cycle   8  Pass 1  IDiag  3:
 E= -2.22055902817064     Delta-E=       -0.000000001354 Rises=F Damp=F
 DIIS: error= 6.27D-07 at cycle   8 NSaved=   8.
 NSaved= 8 IEnMin= 8 EnMin= -2.22055902817064     IErMin= 8 ErrMin= 6.27D-07
 ErrMax= 6.27D-07  0.00D+00 EMaxC= 1.00D-01 BMatC= 1.25D-11 BMatP= 2.49D-10
 IDIUse=1 WtCom= 1.00D+00 WtEn= 0.00D+00
 Coeff-Com: -0.550D-04 0.234D-03-0.724D-03 0.614D-02-0.296D-01 0.889D-01
 Coeff-Com: -0.377D+00 0.131D+01
 Coeff:     -0.550D-04 0.234D-03-0.724D-03 0.614D-02-0.296D-01 0.889D-01
 Coeff:     -0.377D+00 0.131D+01
 Gap=     0.501 Goal=   None    Shift=    0.000
 RMSDP=4.35D-07 MaxDP=2.56D-06 DE=-1.35D-09 OVMax= 3.59D-06

 Cycle   9  Pass 1  IDiag  3:
 E= -2.22055902823540     Delta-E=       -0.000000000065 Rises=F Damp=F
 DIIS: error= 2.42D-07 at cycle   9 NSaved=   9.
 NSaved= 9 IEnMin= 9 EnMin= -2.22055902823540     IErMin= 9 ErrMin= 2.42D-07
 ErrMax= 2.42D-07  0.00D+00 EMaxC= 1.00D-01 BMatC= 1.71D-12 BMatP= 1.25D-11
 IDIUse=1 WtCom= 1.00D+00 WtEn= 0.00D+00
 Coeff-Com: -0.423D-04 0.181D-03-0.494D-03 0.162D-02-0.368D-02 0.331D-02
 Coeff-Com:  0.519D-01-0.580D+00 0.153D+01
 Coeff:     -0.423D-04 0.181D-03-0.494D-03 0.162D-02-0.368D-02 0.331D-02
 Coeff:      0.519D-01-0.580D+00 0.153D+01
 Gap=     0.501 Goal=   None    Shift=    0.000
 RMSDP=1.88D-07 MaxDP=1.12D-06 DE=-6.48D-11 OVMax= 1.61D-06

 Cycle  10  Pass 1  IDiag  3:
 E= -2.22055902824492     Delta-E=       -0.000000000010 Rises=F Damp=F
 DIIS: error= 5.65D-08 at cycle  10 NSaved=  10.
 NSaved=10 IEnMin=10 EnMin= -2.22055902824492     IErMin=10 ErrMin= 5.65D-08
 ErrMax= 5.65D-08  0.00D+00 EMaxC= 1.00D-01 BMatC= 1.49D-13 BMatP= 1.71D-12
 IDIUse=1 WtCom= 1.00D+00 WtEn= 0.00D+00
 Coeff-Com:  0.150D-06-0.114D-05 0.153D-04-0.404D-03 0.205D-02-0.492D-02
 Coeff-Com: -0.129D-02 0.168D+00-0.725D+00 0.156D+01
 Coeff:      0.150D-06-0.114D-05 0.153D-04-0.404D-03 0.205D-02-0.492D-02
 Coeff:     -0.129D-02 0.168D+00-0.725D+00 0.156D+01
 Gap=     0.501 Goal=   None    Shift=    0.000
 RMSDP=6.03D-08 MaxDP=3.42D-07 DE=-9.52D-12 OVMax= 5.22D-07

 Cycle  11  Pass 1  IDiag  3:
 E= -2.22055902824557     Delta-E=       -0.000000000001 Rises=F Damp=F
 DIIS: error= 1.78D-08 at cycle  11 NSaved=  11.
 NSaved=11 IEnMin=11 EnMin= -2.22055902824557     IErMin=11 ErrMin= 1.78D-08
 ErrMax= 1.78D-08  0.00D+00 EMaxC= 1.00D-01 BMatC= 8.04D-15 BMatP= 1.49D-13
 IDIUse=1 WtCom= 1.00D+00 WtEn= 0.00D+00
 Coeff-Com:  0.369D-05-0.155D-04 0.338D-04 0.123D-03-0.107D-02 0.314D-02
 Coeff-Com: -0.488D-02-0.500D-01 0.300D+00-0.868D+00 0.162D+01
 Coeff:      0.369D-05-0.155D-04 0.338D-04 0.123D-03-0.107D-02 0.314D-02
 Coeff:     -0.488D-02-0.500D-01 0.300D+00-0.868D+00 0.162D+01
 Gap=     0.501 Goal=   None    Shift=    0.000
 RMSDP=1.38D-08 MaxDP=9.04D-08 DE=-6.54D-13 OVMax= 8.44D-08

 Cycle  12  Pass 1  IDiag  3:
 E= -2.22055902824569     Delta-E=        0.000000000000 Rises=F Damp=F
 DIIS: error= 2.66D-09 at cycle  12 NSaved=  12.
 NSaved=12 IEnMin=12 EnMin= -2.22055902824569     IErMin=12 ErrMin= 2.66D-09
 ErrMax= 2.66D-09  0.00D+00 EMaxC= 1.00D-01 BMatC= 1.91D-16 BMatP= 8.04D-15
 IDIUse=1 WtCom= 1.00D+00 WtEn= 0.00D+00
 Coeff-Com: -0.161D-05 0.674D-05-0.152D-04-0.380D-04 0.389D-03-0.116D-02
 Coeff-Com:  0.207D-02 0.159D-01-0.104D+00 0.317D+00-0.686D+00 0.146D+01
 Coeff:     -0.161D-05 0.674D-05-0.152D-04-0.380D-04 0.389D-03-0.116D-02
 Coeff:      0.207D-02 0.159D-01-0.104D+00 0.317D+00-0.686D+00 0.146D+01
 Gap=     0.501 Goal=   None    Shift=    0.000
 RMSDP=1.81D-09 MaxDP=1.39D-08 DE=-1.14D-13 OVMax= 9.15D-09

 Cycle  13  Pass 2  IDiag  1:
 SCF Done:  E(RAM1) =  -2.22055902825     A.U. after   13 cycles
            NFock= 12  Conv=0.18D-08     -V/T= 0.8778
 KE=-1.816842899297D+01 PE=-1.697143038066D+02 EE= 8.445281216506D+01
 Leave Link  502 at Mon Nov 23 13:23:28 2015, MaxMem=    33554432 cpu:         0.0
 (Enter /home/Applications/g09/g09/l701.exe)
 Compute integral first derivatives.
 ... and contract with generalized density number  0.
 Leave Link  701 at Mon Nov 23 13:23:28 2015, MaxMem=    33554432 cpu:         0.0
 (Enter /home/Applications/g09/g09/l702.exe)
 L702 exits ... SP integral derivatives will be done elsewhere.
 Leave Link  702 at Mon Nov 23 13:23:28 2015, MaxMem=    33554432 cpu:         0.0
 (Enter /home/Applications/g09/g09/l703.exe)
 Compute integral first derivatives, UseDBF=F ICtDFT=           0.
 Integral derivatives from FoFJK, PRISM(SPDF).
 Calling FoFJK, ICntrl=      2127 FMM=F ISym2X=0 I1Cent= 0 IOpClX= 0 NMat=1 NMatS=1 NMatT=0.
 FoFJK:  IHMeth= 8 ICntrl=    2127 DoSepK=F KAlg= 0 I1Cent=   0 FoldK=F
 IRaf=         0 NMat=   1 IRICut=       1 DoRegI=T DoRafI=F ISym2E= 0.
 FoFCou: FMM=F IPFlag=           0 FMFlag=      100000 FMFlg1=         800
         NFxFlg=           0 DoJE=F BraDBF=F KetDBF=F FulRan=T
         wScrn=  0.000000 ICntrl=    2127 IOpCl=  0 I1Cent=           0 NGrid=           0
         NMat0=    1 NMatS0=      1 NMatT0=    0 NMatD0=    1 NMtDS0=    0 NMtDT0=    0
 Symmetry not used in FoFCou.
 Leave Link  703 at Mon Nov 23 13:23:28 2015, MaxMem=    33554432 cpu:         0.0
 (Enter /home/Applications/g09/g09/l716.exe)
 Dipole        = 6.89591115D-03-3.52135975D-01-6.02178334D-03
 ***** Axes restored to original set *****
 -------------------------------------------------------------------
 Center     Atomic                   Forces (Hartrees/Bohr)
 Number     Number              X              Y              Z
 -------------------------------------------------------------------
      1        6           0.018775488   -0.008597380   -0.008591144
      2        6          -0.012968349   -0.014239935    0.022043315
      3        8          -0.001157732    0.009122412   -0.019283767
      4        6           0.000849546    0.000858770    0.010417030
      5        6          -0.000257631    0.012027392   -0.002615031
      6        1          -0.004516254   -0.001089255    0.000824169
      7        1           0.002483690   -0.009429571    0.000851609
      8        1           0.002256605    0.007578368   -0.002026531
      9        1          -0.005465364    0.003769200   -0.001619651
 -------------------------------------------------------------------
 Cartesian Forces:  Max     0.022043315 RMS     0.009242547
 Leave Link  716 at Mon Nov 23 13:23:28 2015, MaxMem=    33554432 cpu:         0.0
 (Enter /home/Applications/g09/g09/l103.exe)

 GradGradGradGradGradGradGradGradGradGradGradGradGradGradGradGradGradGrad
 Berny optimization.
 Using GEDIIS/GDIIS optimizer.
 FormGI is forming the generalized inverse of G from B-inverse, IUseBI=4.
 Internal  Forces:  Max     0.012020793 RMS     0.004675656
 Search for a local minimum.
 Step number   3 out of a maximum of   48
 All quantities printed in internal units (Hartrees-Bohrs-Radians)
 RMS Force = .46757D-02 SwitMx=.10000D-02 MixMth= 1
 Mixed Optimization -- RFO/linear search
 Update second derivatives using D2CorX and points    1    3    2
 DE=  5.16D-04 DEPred=-3.07D-03 R=-1.68D-01
 Trust test=-1.68D-01 RLast= 3.74D-01 DXMaxT set to 2.52D-01
 ITU= -1  1  0
 Use linear search instead of GDIIS.
 Energy rises -- skip Quadratic/GDIIS search.
 Quartic linear search produced a step of -0.54297.
 Iteration  1 RMS(Cart)=  0.01982472 RMS(Int)=  0.00099414
 Iteration  2 RMS(Cart)=  0.00083971 RMS(Int)=  0.00056231
 Iteration  3 RMS(Cart)=  0.00000054 RMS(Int)=  0.00056231
 ITry= 1 IFail=0 DXMaxC= 8.83D-02 DCOld= 1.00D+10 DXMaxT= 2.52D-01 DXLimC= 3.00D+00 Rises=T
 Variable       Old X    -DE/DX   Delta X   Delta X   Delta X     New X
                                 (Linear)    (Quad)   (Total)
[...]
 Coeff-Com: -0.119D-02 0.366D-02-0.368D-02-0.756D-01 0.583D+00-0.135D+01
 Coeff-Com:  0.184D+01
 Coeff:     -0.119D-02 0.366D-02-0.368D-02-0.756D-01 0.583D+00-0.135D+01
 Coeff:      0.184D+01
 Gap=     0.503 Goal=   None    Shift=    0.000
 RMSDP=1.78D-08 MaxDP=1.51D-07 DE=-3.55D-13 OVMax= 1.30D-07

 Cycle   8  Pass 1  IDiag  3:
 E= -2.22276996351147     Delta-E=        0.000000000000 Rises=F Damp=F
 DIIS: error= 4.77D-09 at cycle   8 NSaved=   8.
 NSaved= 8 IEnMin= 7 EnMin= -2.22276996351154     IErMin= 8 ErrMin= 4.77D-09
 ErrMax= 4.77D-09  0.00D+00 EMaxC= 1.00D-01 BMatC= 7.62D-16 BMatP= 8.07D-15
 IDIUse=1 WtCom= 1.00D+00 WtEn= 0.00D+00
 Coeff-Com:  0.842D-03-0.261D-02 0.315D-02 0.449D-01-0.365D+00 0.883D+00
 Coeff-Com: -0.142D+01 0.186D+01
 Coeff:      0.842D-03-0.261D-02 0.315D-02 0.449D-01-0.365D+00 0.883D+00
 Coeff:     -0.142D+01 0.186D+01
 Gap=     0.503 Goal=   None    Shift=    0.000
 RMSDP=5.43D-09 MaxDP=4.41D-08 DE= 7.11D-14 OVMax= 4.45D-08

 Cycle   9  Pass 2  IDiag  1:
 SCF Done:  E(RAM1) =  -2.22276996351     A.U. after    9 cycles
            NFock=  8  Conv=0.54D-08     -V/T= 0.8777
 KE=-1.817554964305D+01 PE=-1.696863070343D+02 EE= 8.443570566045D+01
 Leave Link  502 at Mon Nov 23 13:23:29 2015, MaxMem=    33554432 cpu:         0.0
 (Enter /home/Applications/g09/g09/l701.exe)
 Compute integral first derivatives.
 ... and contract with generalized density number  0.
 Leave Link  701 at Mon Nov 23 13:23:29 2015, MaxMem=    33554432 cpu:         0.0
 (Enter /home/Applications/g09/g09/l702.exe)
 L702 exits ... SP integral derivatives will be done elsewhere.
 Leave Link  702 at Mon Nov 23 13:23:29 2015, MaxMem=    33554432 cpu:         0.0
 (Enter /home/Applications/g09/g09/l703.exe)
 Compute integral first derivatives, UseDBF=F ICtDFT=           0.
 Integral derivatives from FoFJK, PRISM(SPDF).
 Calling FoFJK, ICntrl=      2127 FMM=F ISym2X=0 I1Cent= 0 IOpClX= 0 NMat=1 NMatS=1 NMatT=0.
 FoFJK:  IHMeth= 8 ICntrl=    2127 DoSepK=F KAlg= 0 I1Cent=   0 FoldK=F
 IRaf=         0 NMat=   1 IRICut=       1 DoRegI=T DoRafI=F ISym2E= 0.
 FoFCou: FMM=F IPFlag=           0 FMFlag=      100000 FMFlg1=         800
         NFxFlg=           0 DoJE=F BraDBF=F KetDBF=F FulRan=T
         wScrn=  0.000000 ICntrl=    2127 IOpCl=  0 I1Cent=           0 NGrid=           0
         NMat0=    1 NMatS0=      1 NMatT0=    0 NMatD0=    1 NMtDS0=    0 NMtDT0=    0
 Symmetry not used in FoFCou.
 Leave Link  703 at Mon Nov 23 13:23:29 2015, MaxMem=    33554432 cpu:         0.0
 (Enter /home/Applications/g09/g09/l716.exe)
 Dipole        = 4.15987289D-05-3.71357620D-01 5.75605064D-04
 ***** Axes restored to original set *****
 -------------------------------------------------------------------
 Center     Atomic                   Forces (Hartrees/Bohr)
 Number     Number              X              Y              Z
 -------------------------------------------------------------------
      1        6           0.000017595   -0.000005993   -0.000038405
      2        6          -0.000072642    0.000006845   -0.000014619
      3        8           0.000094573   -0.000006123    0.000018006
      4        6          -0.000026169    0.000041604   -0.000045901
      5        6           0.000000382   -0.000013093   -0.000021333
      6        1          -0.000025664    0.000010951    0.000031253
      7        1           0.000015241   -0.000027231    0.000027037
      8        1           0.000012342   -0.000011467    0.000022740
      9        1          -0.000015658    0.000004507    0.000021222
 -------------------------------------------------------------------
 Cartesian Forces:  Max     0.000094573 RMS     0.000031499
 Leave Link  716 at Mon Nov 23 13:23:29 2015, MaxMem=    33554432 cpu:         0.0
 (Enter /home/Applications/g09/g09/l103.exe)

 GradGradGradGradGradGradGradGradGradGradGradGradGradGradGradGradGradGrad
 Berny optimization.
 Using GEDIIS/GDIIS optimizer.
 FormGI is forming the generalized inverse of G from B-inverse, IUseBI=4.
 Internal  Forces:  Max     0.000044672 RMS     0.000019150
 Search for a local minimum.
 Step number  10 out of a maximum of   48
 All quantities printed in internal units (Hartrees-Bohrs-Radians)
 RMS Force = .19150D-04 SwitMx=.10000D-02 MixMth= 2
 Mixed Optimization -- En-DIIS/RFO-DIIS
 Swapping is turned off.
 Update second derivatives using D2CorX and points    1    3    2    4    6
                                                      5    7    8    9   10
 DE= -2.94D-07 DEPred=-4.55D-07 R= 6.47D-01
 Trust test= 6.47D-01 RLast= 4.76D-03 DXMaxT set to 1.42D-01
 ITU=  0  1  1  0 -1  1  0 -1  1  0
     Eigenvalues ---    0.01886   0.02271   0.02702   0.04030   0.08348
     Eigenvalues ---    0.08678   0.11788   0.14517   0.16040   0.16155
     Eigenvalues ---    0.21436   0.26077   0.36526   0.37969   0.38573
     Eigenvalues ---    0.39322   0.40211   0.41973   0.48765   0.51394
     Eigenvalues ---    0.60439
 En-DIIS/RFO-DIIS IScMMF=        0 using points:    10    9    8    7
 RFO step:  Lambda=-3.63092804D-08.
 NNeg= 0 NP= 4 Switch=  2.50D-03 Rises=F DC=  2.71D-05 SmlDif=  1.00D-05
 RMS Error=  0.5675153942D-04 NUsed= 4 EDIIS=F
 DidBck=T Rises=F RFO-DIIS coefs:    0.65236    0.27535    0.05900    0.01329
 Iteration  1 RMS(Cart)=  0.00020334 RMS(Int)=  0.00000019
 Iteration  2 RMS(Cart)=  0.00000006 RMS(Int)=  0.00000018
 ITry= 1 IFail=0 DXMaxC= 6.15D-04 DCOld= 1.00D+10 DXMaxT= 1.42D-01 DXLimC= 3.00D+00 Rises=F
 Variable       Old X    -DE/DX   Delta X   Delta X   Delta X     New X
                                 (Linear)    (Quad)   (Total)
    R1        2.59105   0.00001   0.00003   0.00000   0.00003   2.59108
    R2        2.66445   0.00001   0.00008  -0.00005   0.00003   2.66448
    R3        2.03833  -0.00002  -0.00012   0.00010  -0.00002   2.03831
    R4        2.61328  -0.00004  -0.00004  -0.00006  -0.00010   2.61318
    R5        2.04196   0.00001  -0.00003   0.00004   0.00001   2.04197
    R6        2.61322  -0.00003   0.00000  -0.00006  -0.00006   2.61316
    R7        2.59111  -0.00002  -0.00003   0.00000  -0.00003   2.59108
    R8        2.04204  -0.00003  -0.00007  -0.00002  -0.00009   2.04195
    R9        2.03832  -0.00001  -0.00005   0.00002  -0.00002   2.03829
    A1        1.86297   0.00000  -0.00003   0.00001  -0.00001   1.86296
    A2        2.23541   0.00000   0.00012  -0.00010   0.00002   2.23542
    A3        2.18481   0.00001  -0.00009   0.00009   0.00000   2.18480
    A4        1.92981  -0.00003  -0.00004  -0.00002  -0.00006   1.92975
    A5        2.27524   0.00000  -0.00002  -0.00007  -0.00008   2.27516
    A6        2.07813   0.00003   0.00005   0.00009   0.00014   2.07827
    A7        1.83923   0.00004   0.00009   0.00003   0.00012   1.83935
    A8        1.92983  -0.00002  -0.00006  -0.00001  -0.00007   1.92976
    A9        2.07825   0.00001   0.00016  -0.00011   0.00006   2.07831
   A10        2.27510   0.00001  -0.00010   0.00012   0.00002   2.27512
   A11        1.86293   0.00001   0.00004  -0.00001   0.00003   1.86296
   A12        2.18466   0.00002  -0.00006   0.00018   0.00012   2.18478
   A13        2.23560  -0.00003   0.00002  -0.00017  -0.00015   2.23545
    D1       -0.00006   0.00000  -0.00004   0.00011   0.00007   0.00001
    D2        3.14110   0.00002   0.00038   0.00016   0.00053  -3.14156
    D3       -3.14118  -0.00002  -0.00034  -0.00010  -0.00044   3.14157
    D4       -0.00002   0.00000   0.00008  -0.00005   0.00003   0.00001
    D5        0.00009  -0.00001   0.00000  -0.00010  -0.00009   0.00000
    D6       -3.14098  -0.00003  -0.00054  -0.00008  -0.00062   3.14159
    D7        3.14123   0.00002   0.00029   0.00010   0.00039  -3.14157
    D8        0.00016   0.00000  -0.00025   0.00012  -0.00013   0.00002
    D9        0.00000   0.00000   0.00006  -0.00007  -0.00002  -0.00001
   D10       -3.14121  -0.00001  -0.00030  -0.00012  -0.00042   3.14156
   D11        0.00006  -0.00001  -0.00006   0.00001  -0.00005   0.00001
   D12        3.14113   0.00002   0.00035   0.00010   0.00045   3.14158
   D13       -0.00009   0.00001   0.00003   0.00005   0.00009   0.00000
   D14        3.14096   0.00003   0.00059   0.00004   0.00063   3.14159
   D15       -3.14109  -0.00002  -0.00044  -0.00005  -0.00048  -3.14157
   D16       -0.00004   0.00000   0.00012  -0.00006   0.00006   0.00002
         Item               Value     Threshold  Converged?
 Maximum Force            0.000045     0.000450     YES
 RMS     Force            0.000019     0.000300     YES
 Maximum Displacement     0.000615     0.001800     YES
 RMS     Displacement     0.000203     0.001200     YES
 Predicted change in Energy=-6.104208D-08
 Optimization completed.
    -- Stationary point found.
                           ----------------------------
                           !   Optimized Parameters   !
                           ! (Angstroms and Degrees)  !
 --------------------------                            --------------------------
 ! Name  Definition              Value          Derivative Info.                !
 --------------------------------------------------------------------------------
 ! R1    R(1,2)                  1.3711         -DE/DX =    0.0                 !
 ! R2    R(1,5)                  1.41           -DE/DX =    0.0                 !
 ! R3    R(1,9)                  1.0786         -DE/DX =    0.0                 !
 ! R4    R(2,3)                  1.3829         -DE/DX =    0.0                 !
 ! R5    R(2,8)                  1.0806         -DE/DX =    0.0                 !
 ! R6    R(3,4)                  1.3829         -DE/DX =    0.0                 !
 ! R7    R(4,5)                  1.3712         -DE/DX =    0.0                 !
 ! R8    R(4,7)                  1.0806         -DE/DX =    0.0                 !
 ! R9    R(5,6)                  1.0786         -DE/DX =    0.0                 !
 ! A1    A(2,1,5)              106.7404         -DE/DX =    0.0                 !
 ! A2    A(2,1,9)              128.0795         -DE/DX =    0.0                 !
 ! A3    A(5,1,9)              125.1801         -DE/DX =    0.0                 !
 ! A4    A(1,2,3)              110.5702         -DE/DX =    0.0                 !
 ! A5    A(1,2,8)              130.3618         -DE/DX =    0.0                 !
 ! A6    A(3,2,8)              119.0681         -DE/DX =    0.0                 !
 ! A7    A(2,3,4)              105.3803         -DE/DX =    0.0                 !
 ! A8    A(3,4,5)              110.5711         -DE/DX =    0.0                 !
 ! A9    A(3,4,7)              119.0751         -DE/DX =    0.0                 !
 ! A10   A(5,4,7)              130.3538         -DE/DX =    0.0                 !
 ! A11   A(1,5,4)              106.7381         -DE/DX =    0.0                 !
 ! A12   A(1,5,6)              125.1717         -DE/DX =    0.0                 !
 ! A13   A(4,5,6)              128.0903         -DE/DX =    0.0                 !
 ! D1    D(5,1,2,3)             -0.0035         -DE/DX =    0.0                 !
 ! D2    D(5,1,2,8)           -180.0284         -DE/DX =    0.0                 !
 ! D3    D(9,1,2,3)            180.0239         -DE/DX =    0.0                 !
 ! D4    D(9,1,2,8)             -0.0011         -DE/DX =    0.0                 !
 ! D5    D(2,1,5,4)              0.0053         -DE/DX =    0.0                 !
 ! D6    D(2,1,5,6)            180.0352         -DE/DX =    0.0                 !
 ! D7    D(9,1,5,4)           -180.021          -DE/DX =    0.0                 !
 ! D8    D(9,1,5,6)              0.0089         -DE/DX =    0.0                 !
 ! D9    D(1,2,3,4)              0.0003         -DE/DX =    0.0                 !
 ! D10   D(8,2,3,4)            180.0221         -DE/DX =    0.0                 !
 ! D11   D(2,3,4,5)              0.0032         -DE/DX =    0.0                 !
 ! D12   D(2,3,4,7)            179.9733         -DE/DX =    0.0                 !
 ! D13   D(3,4,5,1)             -0.0053         -DE/DX =    0.0                 !
 ! D14   D(3,4,5,6)            179.9636         -DE/DX =    0.0                 !
 ! D15   D(7,4,5,1)           -179.971          -DE/DX =    0.0                 !
 ! D16   D(7,4,5,6)             -0.0021         -DE/DX =    0.0                 !
 --------------------------------------------------------------------------------
 Lowest energy point so far.  Saving SCF results.
 GradGradGradGradGradGradGradGradGradGradGradGradGradGradGradGradGradGrad

 Largest change from initial coordinates is atom    7       0.784 Angstoms.
 Leave Link  103 at Mon Nov 23 13:23:29 2015, MaxMem=    33554432 cpu:         0.0
 (Enter /home/Applications/g09/g09/l202.exe)
                          Input orientation:                          
 ---------------------------------------------------------------------
 Center     Atomic      Atomic             Coordinates (Angstroms)
 Number     Number       Type             X           Y           Z
 ---------------------------------------------------------------------
      1          6           0        0.963782   -0.681944   -0.000969
      2          6           0       -0.346496   -1.085848    0.003321
      3          8           0       -1.192231    0.008271   -0.001413
      4          6           0       -0.361618    1.113855   -0.008844
      5          6           0        0.954120    0.727968   -0.008844
      6          1           0        1.831546    1.355298   -0.014257
      7          1           0       -0.801283    2.100957   -0.014064
      8          1           0       -0.772671   -2.078796    0.009130
      9          1           0        1.849637   -1.297343    0.000697
 ---------------------------------------------------------------------
                    Distance matrix (angstroms):
                    1          2          3          4          5
     1  C    0.000000
     2  C    1.371126   0.000000
     3  O    2.263799   1.382890   0.000000
     4  C    2.231959   2.199789   1.382856   0.000000
     5  C    1.409967   2.231967   2.263811   1.371158   0.000000
     6  H    2.214394   3.271600   3.310267   2.206420   1.078632
     7  H    3.295476   3.219139   2.128928   1.080602   2.228579
     8  H    2.228580   1.080558   2.128846   3.219054   3.295459
     9  H    1.078637   2.206295   3.310225   3.271639   2.214481
                    6          7          8          9
     6  H    0.000000
     7  H    2.736383   0.000000
     8  H    4.309929   4.179915   0.000000
     9  H    2.652745   4.309993   2.736283   0.000000
 Stoichiometry    C4H4O
 Framework group  C1[X(C4H4O)]
 Deg. of freedom    21
 Full point group                 C1      NOp   1
 RotChk:  IX=0 Diff= 2.50D-14
 Largest Abelian subgroup         C1      NOp   1
 Largest concise Abelian subgroup C1      NOp   1
                         Standard orientation:                         
 ---------------------------------------------------------------------
 Center     Atomic      Atomic             Coordinates (Angstroms)
 Number     Number       Type             X           Y           Z
 ---------------------------------------------------------------------
      1          6           0       -0.705131    0.963631   -0.000095
      2          6           0       -1.099844   -0.349452   -0.000014
      3          8           0        0.000195   -1.187485   -0.000003
      4          6           0        1.099945   -0.349130   -0.000072
      5          6           0        0.704835    0.963868   -0.000054
      6          1           0        1.326010    1.845679    0.000444
      7          1           0        2.090123   -0.781854    0.000363
      8          1           0       -2.089792   -0.782589    0.000396
      9          1           0       -1.326735    1.845145    0.000231
 ---------------------------------------------------------------------
 Rotational constants (GHZ):      9.4795202      9.0558285      4.6314160
 Leave Link  202 at Mon Nov 23 13:23:29 2015, MaxMem=    33554432 cpu:         0.0
 (Enter /home/Applications/g09/g09/l601.exe)
 Copying SCF densities to generalized density rwf, IOpCl= 0 IROHF=0.

 **********************************************************************

            Population analysis using the SCF density.

 **********************************************************************

 Orbital symmetries:
       Occupied  (A) (A) (A) (A) (A) (A) (A) (A) (A) (A) (A) (A)
                 (A)
       Virtual   (A) (A) (A) (A) (A) (A) (A) (A) (A) (A) (A)
 The electronic state is 1-A.
 Alpha  occ. eigenvalues --   -1.54124  -1.12514  -1.09745  -0.86224  -0.82767
 Alpha  occ. eigenvalues --   -0.79444  -0.73517  -0.49099  -0.44004  -0.42802
 Alpha  occ. eigenvalues --   -0.42645  -0.39760  -0.32879
 Alpha virt. eigenvalues --    0.17407   0.19058   0.26820   0.29317   0.30758
 Alpha virt. eigenvalues --    0.32542   0.34395   0.36014   0.40430   0.41779
 Alpha virt. eigenvalues --    0.44844
          Condensed to atoms (all electrons):
               1          2          3          4          5          6
     1  C    4.292499   0.000000   0.000000   0.000000   0.000000   0.000000
     2  C    0.000000   4.052015   0.000000   0.000000   0.000000   0.000000
     3  O    0.000000   0.000000   5.890894   0.000000   0.000000   0.000000
     4  C    0.000000   0.000000   0.000000   4.051953   0.000000   0.000000
     5  C    0.000000   0.000000   0.000000   0.000000   4.292577   0.000000
     6  H    0.000000   0.000000   0.000000   0.000000   0.000000   0.849090
     7  H    0.000000   0.000000   0.000000   0.000000   0.000000   0.000000
     8  H    0.000000   0.000000   0.000000   0.000000   0.000000   0.000000
     9  H    0.000000   0.000000   0.000000   0.000000   0.000000   0.000000
               7          8          9
     1  C    0.000000   0.000000   0.000000
     2  C    0.000000   0.000000   0.000000
     3  O    0.000000   0.000000   0.000000
     4  C    0.000000   0.000000   0.000000
     5  C    0.000000   0.000000   0.000000
     6  H    0.000000   0.000000   0.000000
     7  H    0.860940   0.000000   0.000000
     8  H    0.000000   0.860931   0.000000
     9  H    0.000000   0.000000   0.849102
 Mulliken charges:
               1
     1  C   -0.292499
     2  C   -0.052015
     3  O    0.109106
     4  C   -0.051953
     5  C   -0.292577
     6  H    0.150910
     7  H    0.139060
     8  H    0.139069
     9  H    0.150898
 Sum of Mulliken charges =   0.00000
 Mulliken charges with hydrogens summed into heavy atoms:
               1
     1  C   -0.141601
     2  C    0.087054
     3  O    0.109106
     4  C    0.087107
     5  C   -0.141667
 Charge=              0.0000 electrons
 Dipole moment (field-independent basis, Debye):
    X=              0.0001    Y=             -0.9439    Z=              0.0015  Tot=              0.9439
 N-N= 1.012033810534D+02 E-N=-1.696863070402D+02  KE=-1.817554964305D+01
 Leave Link  601 at Mon Nov 23 13:23:29 2015, MaxMem=    33554432 cpu:         0.0
 (Enter /home/Applications/g09/g09/l9999.exe)
 1\1\GINC-DUSTIN-DESKTOP\FOpt\RAM1\ZDO\C4H4O1\DUSTIN\23-Nov-2015\0\\#P 
 AM1(Input,print) Opt\\AM1-Reparam Input\\0,1\C,0.9637822514,-0.6819438
 008,-0.0009692521\C,-0.3464961589,-1.0858476113,0.0033212743\O,-1.1922
 30511,0.0082707784,-0.0014128488\C,-0.361617882,1.1138554073,-0.008844
 3247\C,0.9541199067,0.7279678723,-0.0088443777\H,1.8315455783,1.355297
 5903,-0.0142569529\H,-0.8012830583,2.1009566755,-0.0140642689\H,-0.772
 6714888,-2.0787956544,0.0091296161\H,1.8496373626,-1.2973432572,0.0006
 971347\\Version=ES64L-G09RevD.01\State=1-A\HF=-2.22277\RMSD=5.427e-09\
 RMSF=3.150e-05\Dipole=-0.3713492,-0.0025655,0.00004\PG=C01 [X(C4H4O1)]
 \\@


  DISAPPOINTMENT IS THE NURSE OF WISDOM.               
                              SIR BOYLE ROCHE                 
 Job cpu time:       0 days  0 hours  0 minutes  1.6 seconds.
 File lengths (MBytes):  RWF=      5 Int=      0 D2E=      0 Chk=      2 Scr=      1
 Normal termination of Gaussian 09 at Mon Nov 23 13:23:29 2015.
