 Entering Gaussian System, Link 0=g09
 Input=FuranRM1.com
 Output=FuranRM1.log
 Initial command:
 /opt/g09/g09/l1.exe "/opt/g09/scratch/Gau-30921.inp" -scrdir="/opt/g09/scratch/"
 Entering Link 1 = /opt/g09/g09/l1.exe PID=     30922.
  
 Copyright (c) 1988,1990,1992,1993,1995,1998,2003,2009,2013,
            Gaussian, Inc.  All Rights Reserved.
  
 This is part of the Gaussian(R) 09 program.  It is based on
 the Gaussian(R) 03 system (copyright 2003, Gaussian, Inc.),
 the Gaussian(R) 98 system (copyright 1998, Gaussian, Inc.),
 the Gaussian(R) 94 system (copyright 1995, Gaussian, Inc.),
 the Gaussian 92(TM) system (copyright 1992, Gaussian, Inc.),
 the Gaussian 90(TM) system (copyright 1990, Gaussian, Inc.),
 the Gaussian 88(TM) system (copyright 1988, Gaussian, Inc.),
 the Gaussian 86(TM) system (copyright 1986, Carnegie Mellon
 University), and the Gaussian 82(TM) system (copyright 1983,
 Carnegie Mellon University). Gaussian is a federally registered
 trademark of Gaussian, Inc.
  
 This software contains proprietary and confidential information,
 including trade secrets, belonging to Gaussian, Inc.
  
 This software is provided under written license and may be
 used, copied, transmitted, or stored only in accord with that
 written license.
  
 The following legend is applicable only to US Government
 contracts under FAR:
  
                    RESTRICTED RIGHTS LEGEND
  
 Use, reproduction and disclosure by the US Government is
 subject to restrictions as set forth in subparagraphs (a)
 and (c) of the Commercial Computer Software - Restricted
 Rights clause in FAR 52.227-19.
  
 Gaussian, Inc.
 340 Quinnipiac St., Bldg. 40, Wallingford CT 06492
  
  
 ---------------------------------------------------------------
 Warning -- This program may not be used in any manner that
 competes with the business of Gaussian, Inc. or will provide
 assistance to any competitor of Gaussian, Inc.  The licensee
 of this program is prohibited from giving any competitor of
 Gaussian, Inc. access to this program.  By using this program,
 the user acknowledges that Gaussian, Inc. is engaged in the
 business of creating and licensing software in the field of
 computational chemistry and represents and warrants to the
 licensee that it is not a competitor of Gaussian, Inc. and that
 it will not use this program in any manner prohibited above.
 ---------------------------------------------------------------
  

 Cite this work as:
 Gaussian 09, Revision D.01,
 M. J. Frisch, G. W. Trucks, H. B. Schlegel, G. E. Scuseria, 
 M. A. Robb, J. R. Cheeseman, G. Scalmani, V. Barone, B. Mennucci, 
 G. A. Petersson, H. Nakatsuji, M. Caricato, X. Li, H. P. Hratchian, 
 A. F. Izmaylov, J. Bloino, G. Zheng, J. L. Sonnenberg, M. Hada, 
 M. Ehara, K. Toyota, R. Fukuda, J. Hasegawa, M. Ishida, T. Nakajima, 
 Y. Honda, O. Kitao, H. Nakai, T. Vreven, J. A. Montgomery, Jr., 
 J. E. Peralta, F. Ogliaro, M. Bearpark, J. J. Heyd, E. Brothers, 
 K. N. Kudin, V. N. Staroverov, T. Keith, R. Kobayashi, J. Normand, 
 K. Raghavachari, A. Rendell, J. C. Burant, S. S. Iyengar, J. Tomasi, 
 M. Cossi, N. Rega, J. M. Millam, M. Klene, J. E. Knox, J. B. Cross, 
 V. Bakken, C. Adamo, J. Jaramillo, R. Gomperts, R. E. Stratmann, 
 O. Yazyev, A. J. Austin, R. Cammi, C. Pomelli, J. W. Ochterski, 
 R. L. Martin, K. Morokuma, V. G. Zakrzewski, G. A. Voth, 
 P. Salvador, J. J. Dannenberg, S. Dapprich, A. D. Daniels, 
 O. Farkas, J. B. Foresman, J. V. Ortiz, J. Cioslowski, 
 and D. J. Fox, Gaussian, Inc., Wallingford CT, 2013.
 
 ******************************************
 Gaussian 09:  ES64L-G09RevD.01 24-Apr-2013
                 7-Jan-2016 
 ******************************************
 ------------------------------------------------------------
 #P AM1(Input,print) CIS(Singlets,NStates=15) pop(full) force
 ------------------------------------------------------------
 1/10=7,30=1,38=1/1,3;
 2/12=2,17=6,18=5,40=1/2;
 3/5=2,16=1,25=1,41=700000,71=1,135=100,136=1/1,2,8,3;
 4/35=1/1;
 5/5=2,35=1,38=5/2;
 8/6=1,10=1,108=15/1;
 9/15=2,41=15,42=1,48=1,49=10/14;
 10/5=4/2;
 6/7=3,18=1/1;
 7/12=6,13=5,29=1/1,2,3,16;
 1/10=7,30=1/3;
 99//99;
 Leave Link    1 at Thu Jan  7 16:47:17 2016, MaxMem=           0 cpu:         0.0
 (Enter /opt/g09/g09/l101.exe)
 -----------------
 AM1-Reparam Input
 -----------------
 Symbolic Z-matrix:
 Charge =  0 Multiplicity = 1
 6                     0.95548  -0.71596   0. 
 6                    -0.34563  -1.09282   0. 
 8                    -1.15731   0.        0. 
 6                    -0.34563   1.09282   0. 
 6                     0.95548   0.71596   0. 
 1                     1.81044   1.36938   0. 
 1                    -0.84031   2.04688   0. 
 1                    -0.84031  -2.04688   0. 
 1                     1.81044  -1.36938   0. 
 
 NAtoms=      9 NQM=        9 NQMF=       0 NMMI=      0 NMMIF=      0
                NMic=       0 NMicF=      0.
                    Isotopes and Nuclear Properties:
 (Nuclear quadrupole moments (NQMom) in fm**2, nuclear magnetic moments (NMagM)
  in nuclear magnetons)

  Atom         1           2           3           4           5           6           7           8           9
 IAtWgt=          12          12          16          12          12           1           1           1           1
 AtmWgt=  12.0000000  12.0000000  15.9949146  12.0000000  12.0000000   1.0078250   1.0078250   1.0078250   1.0078250
 NucSpn=           0           0           0           0           0           1           1           1           1
 AtZEff=   0.0000000   0.0000000   0.0000000   0.0000000   0.0000000   0.0000000   0.0000000   0.0000000   0.0000000
 NQMom=    0.0000000   0.0000000   0.0000000   0.0000000   0.0000000   0.0000000   0.0000000   0.0000000   0.0000000
 NMagM=    0.0000000   0.0000000   0.0000000   0.0000000   0.0000000   2.7928460   2.7928460   2.7928460   2.7928460
 AtZNuc=   6.0000000   6.0000000   8.0000000   6.0000000   6.0000000   1.0000000   1.0000000   1.0000000   1.0000000
 Leave Link  101 at Thu Jan  7 16:47:17 2016, MaxMem=    33554432 cpu:         0.0
 (Enter /opt/g09/g09/l103.exe)

 GradGradGradGradGradGradGradGradGradGradGradGradGradGradGradGradGradGrad
 Berny optimization.
 Initialization pass.
 Trust Radius=3.00D-01 FncErr=1.00D-07 GrdErr=1.00D-07
 Number of steps in this run=      2 maximum allowed number of steps=      2.
 GradGradGradGradGradGradGradGradGradGradGradGradGradGradGradGradGradGrad

 Leave Link  103 at Thu Jan  7 16:47:17 2016, MaxMem=    33554432 cpu:         0.0
 (Enter /opt/g09/g09/l202.exe)
                          Input orientation:                          
 ---------------------------------------------------------------------
 Center     Atomic      Atomic             Coordinates (Angstroms)
 Number     Number       Type             X           Y           Z
 ---------------------------------------------------------------------
      1          6           0        0.955475   -0.715963    0.000000
      2          6           0       -0.345627   -1.092818    0.000000
      3          8           0       -1.157305    0.000000    0.000000
      4          6           0       -0.345627    1.092818    0.000000
      5          6           0        0.955475    0.715963    0.000000
      6          1           0        1.810438    1.369382    0.000000
      7          1           0       -0.840307    2.046884    0.000000
      8          1           0       -0.840307   -2.046884    0.000000
      9          1           0        1.810438   -1.369382    0.000000
 ---------------------------------------------------------------------
                    Distance matrix (angstroms):
                    1          2          3          4          5
     1  C    0.000000
     2  C    1.354580   0.000000
     3  O    2.230794   1.361276   0.000000
     4  C    2.228128   2.185636   1.361276   0.000000
     5  C    1.431926   2.228128   2.230794   1.354580   0.000000
     6  H    2.253802   3.272773   3.268441   2.173730   1.076066
     7  H    3.295172   3.178433   2.071285   1.074686   2.235214
     8  H    2.235214   1.074686   2.071285   3.178433   3.295172
     9  H    1.076066   2.173730   3.268441   3.272773   2.253802
                    6          7          8          9
     6  H    0.000000
     7  H    2.735957   0.000000
     8  H    4.324040   4.093768   0.000000
     9  H    2.738764   4.324040   2.735957   0.000000
 Stoichiometry    C4H4O
 Framework group  C2V[C2(O),SGV(C4H4)]
 Deg. of freedom     8
 Full point group                 C2V     NOp   4
 Largest Abelian subgroup         C2V     NOp   4
 Largest concise Abelian subgroup C2      NOp   2
                         Standard orientation:                         
 ---------------------------------------------------------------------
 Center     Atomic      Atomic             Coordinates (Angstroms)
 Number     Number       Type             X           Y           Z
 ---------------------------------------------------------------------
      1          6           0        0.000000    0.715963   -0.955475
      2          6           0        0.000000    1.092818    0.345627
      3          8           0        0.000000    0.000000    1.157305
      4          6           0        0.000000   -1.092818    0.345627
      5          6           0        0.000000   -0.715963   -0.955475
      6          1           0        0.000000   -1.369382   -1.810438
      7          1           0        0.000000   -2.046884    0.840307
      8          1           0        0.000000    2.046884    0.840307
      9          1           0        0.000000    1.369382   -1.810438
 ---------------------------------------------------------------------
 Rotational constants (GHZ):      9.5015164      9.3284592      4.7070963
 Leave Link  202 at Thu Jan  7 16:47:17 2016, MaxMem=    33554432 cpu:         0.0
 (Enter /opt/g09/g09/l301.exe)

 Semi-emprical parameters in input format:
 Method=8 CoreType=1 PeptideFC=0.0114505045 RIJScale=0.5291772086
 ****
 H       
 PQN=1 NValence=1 F0ss=0.5138736446 ZetaOverlap=1.0826737000 U=-0.4395468110
 Beta=-0.2118762033 CoreKO=0.9730018200 KON=0,0,0,0.9730018200 KON=1,0,1,1.0589197790
 KON=0,1,1,0.9730018200 KON=2,1,1,1.0589197790 EISol=-0.4395468110 EHeat=0.0830298228
 Alpha=1.6237060390
 GCore=0.0071452321,1.6526506619,2.2204505049
 GCore=0.0044844511,1.7971829010,3.6631297957
 GCore=-0.0024774154,0.7854047496,3.0926358381
 ****
 C       
 PQN=2,2 NValence=4 F0ss=0.4796935160 F0sp=0.4165460293 F0pp=0.3723813969 F2pp=0.1879094681
 G1sp=0.1711215396
 ZetaOverlap=1.8501880000,1.7683009000
 U=-1.9008794468,-1.4481913012
 Beta=-0.5681197391,-0.3026706191 DDN=0,1,0.7967571300 DDN=1,1,0.6926111205
 CoreKO=1.0423321900 KON=0,0,0,1.0423321900 KON=1,0,1,0.9808908700 KON=0,1,1,1.0423321900
 KON=2,1,1,0.7558858400 EISol=-4.3315453857 EHeat=0.2723305520 Alpha=1.4778972280
 DipHyp=1.5934225837
 GCore=0.0051822600,1.6071441515,1.9728170130
 GCore=0.0008174160,1.9389223038,3.1399608166
 GCore=0.0025838555,1.7534236006,3.0832529699
 GCore=-0.0001879630,2.5202671079,5.2828786928
 ****
 O       
 PQN=2,2 NValence=6 F0ss=0.5145797792 F0sp=0.5496321127 F0pp=0.4844989583 F2pp=0.2207863333
 G1sp=0.4335139609
 ZetaOverlap=3.1793691000,2.5536191000
 U=-3.5628280133,-2.8624391247
 Beta=-1.0970045571,-1.0712800661 DDN=0,1,0.4886700600 DDN=1,1,0.4796114166
 CoreKO=0.9716666100 KON=0,0,0,0.9716666100 KON=1,0,1,0.4967410600 KON=0,1,1,0.9716666100
 KON=2,1,1,0.5584555600 EISol=-11.4672725099 EHeat=0.0949133088 Alpha=2.2077101260
 DipHyp=0.9772838928
 GCore=0.0160375838,1.4612692876,1.7076238079
 GCore=0.0040694547,2.0804240743,2.8677465230
 ****
 
 Standard basis: VSTO-6G (5D, 7F)
 Ernie: Thresh=  0.10000D-02 Tol=  0.10000D-05 Strict=F.
  NNHCO=     0 NNPyr=     0 NCTC=     0               EPep=         0.000000000
    EC=        69.578821623  ECS=         1.561316165   EG=         0.563176227
   EHC=         0.000000000  EAt=       -30.551641297  AtH=         1.516354808
 EPDDG=         0.000000000  ECC=        71.703314016 EAtT=        32.067996105
 There are    10 symmetry adapted cartesian basis functions of A1  symmetry.
 There are     2 symmetry adapted cartesian basis functions of A2  symmetry.
 There are     3 symmetry adapted cartesian basis functions of B1  symmetry.
 There are     9 symmetry adapted cartesian basis functions of B2  symmetry.
 There are    10 symmetry adapted basis functions of A1  symmetry.
 There are     2 symmetry adapted basis functions of A2  symmetry.
 There are     3 symmetry adapted basis functions of B1  symmetry.
 There are     9 symmetry adapted basis functions of B2  symmetry.
    24 basis functions,   144 primitive gaussians,    24 cartesian basis functions
    13 alpha electrons       13 beta electrons
       nuclear repulsion energy       103.7713101205 Hartrees.
 IExCor=    0 DFT=F Ex=HF Corr=None ExCW=0 ScaHFX=  1.000000
 ScaDFX=  1.000000  1.000000  1.000000  1.000000 ScalE2=  1.000000  1.000000
 IRadAn=      0 IRanWt=     -1 IRanGd=            0 ICorTp=0 IEmpDi=  4
 Integral buffers will be    131072 words long.
 Regular integral format.
 Two-electron integral symmetry is turned off.
 Leave Link  301 at Thu Jan  7 16:47:17 2016, MaxMem=    33554432 cpu:         0.0
 (Enter /opt/g09/g09/l302.exe)
 Do NDO integrals.
 NPDir=0 NMtPBC=     1 NCelOv=     1 NCel=       1 NClECP=     1 NCelD=      1
         NCelK=      1 NCelE2=     1 NClLst=     1 CellRange=     0.0.
 One-electron integrals computed using PRISM.
 NBasis=    24 RedAO= T EigKep=  1.00D+00  NBF=    10     2     3     9
 NBsUse=    24 1.00D-06 EigRej= -1.00D+00 NBFU=    10     2     3     9
 Leave Link  302 at Thu Jan  7 16:47:17 2016, MaxMem=    33554432 cpu:         0.0
 (Enter /opt/g09/g09/l308.exe)
 Leave Link  308 at Thu Jan  7 16:47:17 2016, MaxMem=    33554432 cpu:         0.0
 (Enter /opt/g09/g09/l303.exe)
 DipDrv:  MaxL=1.
 Leave Link  303 at Thu Jan  7 16:47:17 2016, MaxMem=    33554432 cpu:         0.0
 (Enter /opt/g09/g09/l401.exe)
 Simple Huckel Guess.
 JPrj=0 DoOrth=F DoCkMO=F.
 Initial guess orbital symmetries:
       Occupied  (A1) (A1) (B2) (B2) (A1) (A1) (B1) (B2) (A1) (B2)
                 (A1) (B1) (A2)
       Virtual   (B1) (A2) (B2) (B2) (A1) (A1) (B2) (B2) (A1) (A1)
                 (B2)
 The electronic state of the initial guess is 1-A1.
 Leave Link  401 at Thu Jan  7 16:47:17 2016, MaxMem=    33554432 cpu:         0.0
 (Enter /opt/g09/g09/l502.exe)
 Closed shell SCF:
 Using DIIS extrapolation, IDIIS=  1040.
 Overlap will be assumed to be unity.
 Two-electron integral symmetry not used.
 Keep J ints in memory in canonical form, NReq=888094.
 IVT=       79487 IEndB=       79487 NGot=    33554432 MDV=    33473461
 LenX=    33473461 LenY=    33472444
 Requested convergence on RMS density matrix=1.00D-08 within 128 cycles.
 Requested convergence on MAX density matrix=1.00D-06.
 Requested convergence on             energy=1.00D-06.
 No special actions if energy rises.
 FoFCou: FMM=F IPFlag=           0 FMFlag=           0 FMFlg1=           0
         NFxFlg=           0 DoJE=F BraDBF=F KetDBF=F FulRan=T
         wScrn=  0.000000 ICntrl=     600 IOpCl=  2 I1Cent=           0 NGrid=           0
         NMat0=    1 NMatS0=     54 NMatT0=    0 NMatD0=    1 NMtDS0=    0 NMtDT0=    0
 Symmetry not used in FoFCou.

 Cycle   1  Pass 1  IDiag  1:
 E= 0.250552471077981    
 DIIS: error= 4.86D-02 at cycle   1 NSaved=   1.
 NSaved= 1 IEnMin= 1 EnMin= 0.250552471077981     IErMin= 1 ErrMin= 4.86D-02
 ErrMax= 4.86D-02  0.00D+00 EMaxC= 1.00D-01 BMatC= 8.48D-02 BMatP= 8.48D-02
 IDIUse=3 WtCom= 5.14D-01 WtEn= 4.86D-01
 Coeff-Com:  0.100D+01
 Coeff-En:   0.100D+01
 Coeff:      0.100D+01
 GapD=    2.000 DampG=2.000 DampE=0.500 DampFc=1.0000 IDamp=-1.
 RMSDP=1.77D-02 MaxDP=1.58D-01              OVMax= 0.00D+00

 Cycle   2  Pass 1  IDiag  1:
 E= 0.231042872335081E-01 Delta-E=       -0.227448183844 Rises=F Damp=F
 DIIS: error= 2.08D-02 at cycle   2 NSaved=   2.
 NSaved= 2 IEnMin= 2 EnMin= 0.231042872335081E-01 IErMin= 2 ErrMin= 2.08D-02
 ErrMax= 2.08D-02  0.00D+00 EMaxC= 1.00D-01 BMatC= 8.82D-03 BMatP= 8.48D-02
 IDIUse=3 WtCom= 7.92D-01 WtEn= 2.08D-01
 Coeff-Com: -0.396D+00 0.140D+01
 Coeff-En:   0.000D+00 0.100D+01
 Coeff:     -0.314D+00 0.131D+01
 RMSDP=8.31D-03 MaxDP=8.00D-02 DE=-2.27D-01 OVMax= 0.00D+00

 Cycle   3  Pass 1  IDiag  1:
 E=-0.722400534577616E-02 Delta-E=       -0.030328292579 Rises=F Damp=F
 DIIS: error= 4.14D-03 at cycle   3 NSaved=   3.
 NSaved= 3 IEnMin= 3 EnMin=-0.722400534577616E-02 IErMin= 3 ErrMin= 4.14D-03
 ErrMax= 4.14D-03  0.00D+00 EMaxC= 1.00D-01 BMatC= 4.03D-04 BMatP= 8.82D-03
 IDIUse=3 WtCom= 9.59D-01 WtEn= 4.14D-02
 Coeff-Com:  0.112D+00-0.498D+00 0.139D+01
 Coeff-En:   0.000D+00 0.000D+00 0.100D+01
 Coeff:      0.107D+00-0.477D+00 0.137D+01
 RMSDP=2.53D-03 MaxDP=3.06D-02 DE=-3.03D-02 OVMax= 0.00D+00

 Cycle   4  Pass 1  IDiag  3:
 E=-0.941019785408059E-02 Delta-E=       -0.002186192508 Rises=F Damp=F
 DIIS: error= 1.30D-03 at cycle   4 NSaved=   4.
 NSaved= 4 IEnMin= 4 EnMin=-0.941019785408059E-02 IErMin= 4 ErrMin= 1.30D-03
 ErrMax= 1.30D-03  0.00D+00 EMaxC= 1.00D-01 BMatC= 3.97D-05 BMatP= 4.03D-04
 IDIUse=3 WtCom= 9.87D-01 WtEn= 1.30D-02
 Coeff-Com:  0.243D-01-0.749D-01-0.260D+00 0.131D+01
 Coeff-En:   0.000D+00 0.000D+00 0.000D+00 0.100D+01
 Coeff:      0.240D-01-0.739D-01-0.256D+00 0.131D+01
 Fock symm off for IB=2 I1=    1 I=   11 J=    6 Cut=1.00D-07 Err=2.02D-03
 Fock matrix is not symmetric: symmetry in diagonalization turned off.
 Gap=     0.378 Goal=   None    Shift=    0.000
 RMSDP=1.01D-03 MaxDP=1.31D-02 DE=-2.19D-03 OVMax= 1.41D-02

 Cycle   5  Pass 1  IDiag  3:
 E=-0.965570402405547E-02 Delta-E=       -0.000245506170 Rises=F Damp=F
 DIIS: error= 1.97D-04 at cycle   5 NSaved=   5.
 NSaved= 5 IEnMin= 5 EnMin=-0.965570402405547E-02 IErMin= 5 ErrMin= 1.97D-04
 ErrMax= 1.97D-04  0.00D+00 EMaxC= 1.00D-01 BMatC= 1.84D-06 BMatP= 3.97D-05
 IDIUse=3 WtCom= 9.98D-01 WtEn= 1.97D-03
 Coeff-Com: -0.101D-01 0.318D-01 0.768D-01-0.560D+00 0.146D+01
 Coeff-En:   0.000D+00 0.000D+00 0.000D+00 0.000D+00 0.100D+01
 Coeff:     -0.101D-01 0.318D-01 0.767D-01-0.559D+00 0.146D+01
 Gap=     0.378 Goal=   None    Shift=    0.000
 RMSDP=2.40D-04 MaxDP=2.11D-03 DE=-2.46D-04 OVMax= 2.46D-03

 Cycle   6  Pass 1  IDiag  3:
 E=-0.966864844269821E-02 Delta-E=       -0.000012944419 Rises=F Damp=F
 DIIS: error= 8.46D-05 at cycle   6 NSaved=   6.
 NSaved= 6 IEnMin= 6 EnMin=-0.966864844269821E-02 IErMin= 6 ErrMin= 8.46D-05
 ErrMax= 8.46D-05  0.00D+00 EMaxC= 1.00D-01 BMatC= 1.59D-07 BMatP= 1.84D-06
 IDIUse=1 WtCom= 1.00D+00 WtEn= 0.00D+00
 Coeff-Com:  0.339D-02-0.956D-02-0.238D-01 0.197D+00-0.729D+00 0.156D+01
 Coeff:      0.339D-02-0.956D-02-0.238D-01 0.197D+00-0.729D+00 0.156D+01
 Gap=     0.378 Goal=   None    Shift=    0.000
 RMSDP=8.78D-05 MaxDP=7.23D-04 DE=-1.29D-05 OVMax= 1.23D-03

 Cycle   7  Pass 1  IDiag  3:
 E=-0.967008572212080E-02 Delta-E=       -0.000001437279 Rises=F Damp=F
 DIIS: error= 3.38D-05 at cycle   7 NSaved=   7.
 NSaved= 7 IEnMin= 7 EnMin=-0.967008572212080E-02 IErMin= 7 ErrMin= 3.38D-05
 ErrMax= 3.38D-05  0.00D+00 EMaxC= 1.00D-01 BMatC= 1.59D-08 BMatP= 1.59D-07
 IDIUse=1 WtCom= 1.00D+00 WtEn= 0.00D+00
 Coeff-Com: -0.527D-03 0.237D-03 0.102D-01-0.583D-01 0.240D+00-0.775D+00
 Coeff-Com:  0.158D+01
 Coeff:     -0.527D-03 0.237D-03 0.102D-01-0.583D-01 0.240D+00-0.775D+00
 Coeff:      0.158D+01
 Gap=     0.378 Goal=   None    Shift=    0.000
 RMSDP=3.24D-05 MaxDP=3.11D-04 DE=-1.44D-06 OVMax= 3.94D-04

 Cycle   8  Pass 1  IDiag  3:
 E=-0.967024242572734E-02 Delta-E=       -0.000000156704 Rises=F Damp=F
 DIIS: error= 8.04D-06 at cycle   8 NSaved=   8.
 NSaved= 8 IEnMin= 8 EnMin=-0.967024242572734E-02 IErMin= 8 ErrMin= 8.04D-06
 ErrMax= 8.04D-06  0.00D+00 EMaxC= 1.00D-01 BMatC= 1.11D-09 BMatP= 1.59D-08
 IDIUse=1 WtCom= 1.00D+00 WtEn= 0.00D+00
 Coeff-Com: -0.955D-04 0.128D-02-0.548D-02 0.204D-01-0.852D-01 0.333D+00
 Coeff-Com: -0.932D+00 0.167D+01
 Coeff:     -0.955D-04 0.128D-02-0.548D-02 0.204D-01-0.852D-01 0.333D+00
 Coeff:     -0.932D+00 0.167D+01
 Gap=     0.378 Goal=   None    Shift=    0.000
 RMSDP=9.10D-06 MaxDP=8.81D-05 DE=-1.57D-07 OVMax= 1.15D-04

 Cycle   9  Pass 1  IDiag  3:
 E=-0.967025297175894E-02 Delta-E=       -0.000000010546 Rises=F Damp=F
 DIIS: error= 8.82D-07 at cycle   9 NSaved=   9.
 NSaved= 9 IEnMin= 9 EnMin=-0.967025297175894E-02 IErMin= 9 ErrMin= 8.82D-07
 ErrMax= 8.82D-07  0.00D+00 EMaxC= 1.00D-01 BMatC= 4.34D-11 BMatP= 1.11D-09
 IDIUse=1 WtCom= 1.00D+00 WtEn= 0.00D+00
 Coeff-Com:  0.980D-04-0.752D-03 0.214D-02-0.646D-02 0.279D-01-0.125D+00
 Coeff-Com:  0.392D+00-0.842D+00 0.155D+01
 Coeff:      0.980D-04-0.752D-03 0.214D-02-0.646D-02 0.279D-01-0.125D+00
 Coeff:      0.392D+00-0.842D+00 0.155D+01
 Gap=     0.378 Goal=   None    Shift=    0.000
 RMSDP=1.40D-06 MaxDP=1.09D-05 DE=-1.05D-08 OVMax= 1.84D-05

 Cycle  10  Pass 1  IDiag  3:
 E=-0.967025327197746E-02 Delta-E=       -0.000000000300 Rises=F Damp=F
 DIIS: error= 1.56D-07 at cycle  10 NSaved=  10.
 NSaved=10 IEnMin=10 EnMin=-0.967025327197746E-02 IErMin=10 ErrMin= 1.56D-07
 ErrMax= 1.56D-07  0.00D+00 EMaxC= 1.00D-01 BMatC= 1.40D-12 BMatP= 4.34D-11
 IDIUse=1 WtCom= 1.00D+00 WtEn= 0.00D+00
 Coeff-Com: -0.300D-04 0.213D-03-0.540D-03 0.154D-02-0.635D-02 0.302D-01
 Coeff-Com: -0.971D-01 0.214D+00-0.505D+00 0.136D+01
 Coeff:     -0.300D-04 0.213D-03-0.540D-03 0.154D-02-0.635D-02 0.302D-01
 Coeff:     -0.971D-01 0.214D+00-0.505D+00 0.136D+01
 Gap=     0.378 Goal=   None    Shift=    0.000
 RMSDP=1.96D-07 MaxDP=1.13D-06 DE=-3.00D-10 OVMax= 1.62D-06

 Cycle  11  Pass 1  IDiag  3:
 E=-0.967025327948079E-02 Delta-E=       -0.000000000008 Rises=F Damp=F
 DIIS: error= 2.43D-08 at cycle  11 NSaved=  11.
 NSaved=11 IEnMin=11 EnMin=-0.967025327948079E-02 IErMin=11 ErrMin= 2.43D-08
 ErrMax= 2.43D-08  0.00D+00 EMaxC= 1.00D-01 BMatC= 4.41D-14 BMatP= 1.40D-12
 IDIUse=1 WtCom= 1.00D+00 WtEn= 0.00D+00
 Coeff-Com:  0.307D-05-0.235D-04 0.590D-04-0.191D-03 0.664D-03-0.317D-02
 Coeff-Com:  0.999D-02-0.206D-01 0.637D-01-0.323D+00 0.127D+01
 Coeff:      0.307D-05-0.235D-04 0.590D-04-0.191D-03 0.664D-03-0.317D-02
 Coeff:      0.999D-02-0.206D-01 0.637D-01-0.323D+00 0.127D+01
 Gap=     0.378 Goal=   None    Shift=    0.000
 RMSDP=3.02D-08 MaxDP=2.85D-07 DE=-7.50D-12 OVMax= 2.45D-07

 Cycle  12  Pass 1  IDiag  3:
 E=-0.967025327952342E-02 Delta-E=        0.000000000000 Rises=F Damp=F
 DIIS: error= 5.19D-09 at cycle  12 NSaved=  12.
 NSaved=12 IEnMin=12 EnMin=-0.967025327952342E-02 IErMin=12 ErrMin= 5.19D-09
 ErrMax= 5.19D-09  0.00D+00 EMaxC= 1.00D-01 BMatC= 1.62D-15 BMatP= 4.41D-14
 IDIUse=1 WtCom= 1.00D+00 WtEn= 0.00D+00
 Coeff-Com: -0.185D-06 0.151D-05-0.127D-05 0.925D-05 0.534D-05 0.446D-04
 Coeff-Com: -0.133D-03-0.311D-03-0.507D-02 0.725D-01-0.471D+00 0.140D+01
 Coeff:     -0.185D-06 0.151D-05-0.127D-05 0.925D-05 0.534D-05 0.446D-04
 Coeff:     -0.133D-03-0.311D-03-0.507D-02 0.725D-01-0.471D+00 0.140D+01
 Gap=     0.378 Goal=   None    Shift=    0.000
 RMSDP=5.53D-09 MaxDP=3.55D-08 DE=-4.26D-14 OVMax= 4.21D-08

 Cycle  13  Pass 2  IDiag  1:
 SCF Done:  E(RAM1) = -0.967025327952E-02 A.U. after   13 cycles
            NFock= 12  Conv=0.55D-08     -V/T= 0.9994
 KE=-1.628988187854D+01 PE=-1.727178250513D+02 EE= 8.522672655614D+01
 Leave Link  502 at Thu Jan  7 16:47:17 2016, MaxMem=    33554432 cpu:         0.0
 (Enter /opt/g09/g09/l801.exe)
 Range of M.O.s used for correlation:     1    24
 NBasis=    24 NAE=    13 NBE=    13 NFC=     0 NFV=     0
 NROrb=     24 NOA=    13 NOB=    13 NVA=    11 NVB=    11
 Leave Link  801 at Thu Jan  7 16:47:17 2016, MaxMem=    33554432 cpu:         0.0
 (Enter /opt/g09/g09/l914.exe)
 RHF ground state
 MDV=    33554432 DFT=F DoStab=F Mixed=F DoRPA=F DoScal=F NonHer=F
 Making orbital integer symmetry assigments:
 Orbital symmetries:
       Occupied  (A1) (A1) (B2) (B2) (A1) (A1) (B1) (B2) (B2) (A1)
                 (A1) (B1) (A2)
       Virtual   (B1) (A2) (A1) (B2) (A1) (B2) (B2) (A1) (A1) (B2)
                 (B2)
    60 initial guesses have been made.
 Convergence on wavefunction:    0.000001000000000
 Davidson Disk Diagonalization:  ConvIn= 1.00D-06 SkipCon=T Conv= 1.00D-06.
 Max sub-space:   240 roots to seek:    60 dimension of matrix:          286
 Iteration     1 Dimension    60 NMult     0 NNew     60
 CISAX will form    60 AO SS matrices at one time.
 NMat=    60 NSing=    60 JSym2X= 0.
 FoFJK:  IHMeth= 8 ICntrl=       0 DoSepK=F KAlg= 0 I1Cent=   0 FoldK=F
 IRaf=         1 NMat= 120 IRICut=       1 DoRegI=T DoRafI=F ISym2E= 0.
 FoFCou: FMM=F IPFlag=           0 FMFlag=      100000 FMFlg1=           0
         NFxFlg=           0 DoJE=F BraDBF=F KetDBF=F FulRan=T
         wScrn=  0.000000 ICntrl=       0 IOpCl=  0 I1Cent=           0 NGrid=           0
         NMat0=  120 NMatS0=     60 NMatT0=    0 NMatD0=  120 NMtDS0=    0 NMtDT0=    0
 Symmetry not used in FoFCou.
 New state      3 was old state      5
 New state      4 was old state      3
 New state      5 was old state      7
 New state      6 was old state      4
 New state      7 was old state      9
 New state      9 was old state      6
 New state     10 was old state     14
 New state     11 was old state     13
 New state     12 was old state     20
 New state     13 was old state     15
 New state     14 was old state     26
 New state     15 was old state     10
 Excitation Energies [eV] at current iteration:
 Root      1 :     4.193599710718353
 Root      2 :     4.923998073962172
 Root      3 :     5.188525287345546
 Root      4 :     6.115078912173106
 Root      5 :     6.149253636924065
 Root      6 :     6.176896054069370
 Root      7 :     6.250552509248527
 Root      8 :     6.277362308354915
 Root      9 :     6.562044268724225
 Root     10 :     7.109248572141864
 Root     11 :     7.153821896510602
 Root     12 :     7.437752733683585
 Root     13 :     7.499565863236157
 Root     14 :     7.574914374495197
 Root     15 :     7.625865275307272
 Root     16 :     7.705534369560129
 Root     17 :     7.719347677440473
 Root     18 :     7.992475075764232
 Root     19 :     8.161008835420324
 Root     20 :     8.398411899533784
 Root     21 :     8.652597015748944
 Root     22 :     8.870235432766510
 Root     23 :     8.878495703785218
 Root     24 :     9.087490152627502
 Root     25 :     9.360019142310184
 Root     26 :     9.475238979603340
 Root     27 :     9.621280694459529
 Root     28 :     9.674844838656703
 Root     29 :     9.685355601457246
 Root     30 :     9.699910100586846
 Root     31 :     9.723223800371333
 Root     32 :     9.824069459703400
 Root     33 :     9.839756728502662
 Root     34 :    10.269939432973690
 Root     35 :    10.296620573431200
 Root     36 :    10.561721901617510
 Root     37 :    10.612608349518180
 Root     38 :    10.671750862934200
 Root     39 :    10.704036759770240
 Root     40 :    10.738164137498930
 Root     41 :    10.966098477757540
 Root     42 :    11.152776801586390
 Root     43 :    11.290465247559250
 Root     44 :    11.402509789686000
 Root     45 :    11.413518302303340
 Root     46 :    11.482063078917280
 Root     47 :    11.668642239480440
 Root     48 :    11.785434639565620
 Root     49 :    11.898647505895350
 Root     50 :    12.163587829633310
 Root     51 :    12.304044912430850
 Root     52 :    12.581722424437020
 Root     53 :    12.788635574536370
 Root     54 :    12.987599673554780
 Root     55 :    13.097713520696360
 Root     56 :    13.293707355026370
 Root     57 :    13.363661139138910
 Root     58 :    13.470188799977800
 Root     59 :    13.777850955344920
 Root     60 :    13.907049450720960
 Iteration     2 Dimension   111 NMult    60 NNew     51
 CISAX will form    51 AO SS matrices at one time.
 NMat=    51 NSing=    51 JSym2X= 0.
 Root      1 not converged, maximum delta is    0.034220926098675
 Root      2 not converged, maximum delta is    0.016118633137424
 Root      3 not converged, maximum delta is    0.034213149132954
 Root      4 not converged, maximum delta is    0.037954966139244
 Root      5 not converged, maximum delta is    0.167682848624733
 New state      6 was old state      8
 Root      6 not converged, maximum delta is    0.062504366608216
 New state      7 was old state      6
 Root      7 not converged, maximum delta is    0.033269160355263
 New state      8 was old state      7
 Root      8 not converged, maximum delta is    0.153084685671919
 Root      9 not converged, maximum delta is    0.055260492751893
 Root     10 not converged, maximum delta is    0.064213698703456
 Root     11 not converged, maximum delta is    0.030291632961012
 Root     12 not converged, maximum delta is    0.096945425404319
 Root     13 not converged, maximum delta is    0.089590003943731
 Root     14 not converged, maximum delta is    0.112102541718775
 New state     15 was old state     16
 Root     15 not converged, maximum delta is    0.075743483658310
 Excitation Energies [eV] at current iteration:
 Root      1 :     4.120890655059670   Change is   -0.072709055658684
 Root      2 :     4.911593667728285   Change is   -0.012404406233887
 Root      3 :     5.152411839976523   Change is   -0.036113447369023
 Root      4 :     5.984957923913175   Change is   -0.130120988259932
 Root      5 :     6.056767425720841   Change is   -0.092486211203225
 Root      6 :     6.119901955618325   Change is   -0.157460352736590
 Root      7 :     6.122404715988977   Change is   -0.054491338080394
 Root      8 :     6.136028311336211   Change is   -0.114524197912316
 Root      9 :     6.498382253821706   Change is   -0.063662014902520
 Root     10 :     6.988499872945096   Change is   -0.120748699196768
 Root     11 :     7.107898977937685   Change is   -0.045922918572917
 Root     12 :     7.311891686870807   Change is   -0.125861046812778
 Root     13 :     7.341381337273837   Change is   -0.158184525962320
 Root     14 :     7.537996740571772   Change is   -0.036917633923424
 Root     15 :     7.563202705388707   Change is   -0.142331664171423
 Root     16 :     7.571838827886042   Change is   -0.054026447421231
 Root     17 :     7.671882075831778   Change is   -0.047465601608695
 Root     18 :     7.901703445148899   Change is   -0.090771630615333
 Root     19 :     8.056187438992021   Change is   -0.104821396428303
 Root     20 :     8.139474592775800   Change is   -0.258937306757985
 Root     21 :     8.581915730422207   Change is   -0.296579973363012
 Root     22 :     8.632712806479194   Change is   -0.019884209269750
 Root     23 :     8.844739764127793   Change is   -0.025495668638718
 Root     24 :     8.916939763309673   Change is   -0.170550389317829
 Root     25 :     9.079443737012630   Change is   -0.643780063358702
 Root     26 :     9.252080658727463   Change is   -0.107938483582721
 Root     27 :     9.286464128184676   Change is   -0.398891473272570
 Root     28 :     9.434516292721634   Change is   -0.405240435781028
 Root     29 :     9.469503191202204   Change is   -0.005735788401136
 Root     30 :     9.492343753814128   Change is   -0.128936940645401
 Root     31 :     9.508551329505979   Change is   -0.761388103467715
 Root     32 :     9.539858813525354   Change is   -0.284210646178046
 Root     33 :     9.586437089455506   Change is   -0.088407749201196
 Root     34 :     9.603886760891399   Change is   -0.096023339695448
 Root     35 :     9.747447933125065   Change is   -0.549172640306135
 Root     36 :     9.826679224347236   Change is   -0.845071638586965
 Root     37 :     9.917291806925787   Change is   -0.644430094691726
 Root     38 :    10.093037518909220   Change is   -0.519570830608961
 Root     39 :    10.255015901105240   Change is   -0.483148236393684
 Root     40 :    10.462205935461610   Change is   -0.951312366841725
 Root     41 :    10.597131605285670   Change is   -0.106905154484563
 Root     42 :    10.660816177046450   Change is   -0.305282300711089
 Root     43 :    10.764594464453780   Change is   -0.637915325232224
 Root     44 :    10.963081928092650   Change is   -0.189694873493739
 Root     45 :    11.022363471199250   Change is   -0.459699607718039
 Root     46 :    11.273893726378280   Change is   -0.016571521180976
 Root     47 :    11.393426325459300   Change is   -0.275215914021141
 Root     48 :    11.493532286357630   Change is   -0.291902353207992
 Root     49 :    11.651220261476860   Change is   -0.512367568156457
 Root     50 :    11.685842283276800   Change is   -0.212805222618553
 Root     51 :    11.905150277730330   Change is   -0.676572146706685
 Root     52 :    11.939811965293710   Change is   -0.364232947137141
 Root     53 :    12.458504779258520   Change is   -0.639208741437843
 Root     54 :    12.474309219068330   Change is   -0.513290454486452
 Root     55 :    12.486875264102040
 Root     56 :    12.738139926809220   Change is   -0.050495647727147
 Root     57 :    12.947536948279630   Change is   -0.346170406746741
 Root     58 :    12.976387298627180   Change is   -0.387273840511729
 Root     59 :    13.210122256095950   Change is   -0.567728699248974
 Root     60 :    13.331866631173890   Change is   -0.138322168803904
 Iteration     3 Dimension   115 NMult   111 NNew      4
 CISAX will form     4 AO SS matrices at one time.
 NMat=     4 NSing=     4 JSym2X= 0.
 Root      1 not converged, maximum delta is    0.002608375648396
 Root      2 not converged, maximum delta is    0.000497277705943
 Root      3 has converged.
 Root      4 not converged, maximum delta is    0.001754219006247
 Root      5 has converged.
 Root      6 has converged.
 Root      7 not converged, maximum delta is    0.004176602594330
 Root      8 has converged.
 Root      9 has converged.
 Root     10 has converged.
 Root     11 has converged.
 Root     12 has converged.
 Root     13 has converged.
 Root     14 has converged.
 Root     15 has converged.
 Excitation Energies [eV] at current iteration:
 Root      1 :     4.120309498123905   Change is   -0.000581156935766
 Root      2 :     4.911556440055943   Change is   -0.000037227672343
 Root      3 :     5.152411839976469   Change is   -0.000000000000054
 Root      4 :     5.984245615797717   Change is   -0.000712308115458
 Root      5 :     6.056767425720871   Change is    0.000000000000030
 Root      6 :     6.119901955618318   Change is   -0.000000000000006
 Root      7 :     6.121730968387637   Change is   -0.000673747601340
 Root      8 :     6.136028311336187   Change is   -0.000000000000024
 Root      9 :     6.498382253821736   Change is    0.000000000000030
 Root     10 :     6.988499872945101   Change is    0.000000000000006
 Root     11 :     7.107898977937685   Change is    0.000000000000000
 Root     12 :     7.311891686870807   Change is    0.000000000000000
 Root     13 :     7.341381337273831   Change is   -0.000000000000006
 Root     14 :     7.537996740571779   Change is    0.000000000000006
 Root     15 :     7.563202705388713   Change is    0.000000000000006
 Iteration     4 Dimension   119 NMult   115 NNew      4
 CISAX will form     4 AO SS matrices at one time.
 NMat=     4 NSing=     4 JSym2X= 0.
 Root      1 not converged, maximum delta is    0.000130848407842
 Root      2 not converged, maximum delta is    0.000031932415029
 Root      3 has converged.
 Root      4 not converged, maximum delta is    0.000145050403425
 Root      5 has converged.
 Root      6 has converged.
 Root      7 not converged, maximum delta is    0.000289956434553
 Root      8 has converged.
 Root      9 has converged.
 Root     10 has converged.
 Root     11 has converged.
 Root     12 has converged.
 Root     13 has converged.
 Root     14 has converged.
 Root     15 has converged.
 Excitation Energies [eV] at current iteration:
 Root      1 :     4.120305386713953   Change is   -0.000004111409952
 Root      2 :     4.911556265183646   Change is   -0.000000174872297
 Root      3 :     5.152411839976510   Change is    0.000000000000042
 Root      4 :     5.984241248495427   Change is   -0.000004367302290
 Root      5 :     6.056767425720871   Change is    0.000000000000000
 Root      6 :     6.119901955618313   Change is   -0.000000000000006
 Root      7 :     6.121715744713720   Change is   -0.000015223673917
 Root      8 :     6.136028311336222   Change is    0.000000000000036
 Root      9 :     6.498382253821706   Change is   -0.000000000000030
 Root     10 :     6.988499872945096   Change is   -0.000000000000006
 Root     11 :     7.107898977937667   Change is   -0.000000000000018
 Root     12 :     7.311891686870800   Change is   -0.000000000000006
 Root     13 :     7.341381337273843   Change is    0.000000000000012
 Root     14 :     7.537996740571772   Change is   -0.000000000000006
 Root     15 :     7.563202705388743   Change is    0.000000000000030
 Iteration     5 Dimension   123 NMult   119 NNew      4
 CISAX will form     4 AO SS matrices at one time.
 NMat=     4 NSing=     4 JSym2X= 0.
 Root      1 not converged, maximum delta is    0.000013233332558
 Root      2 not converged, maximum delta is    0.000003125523820
 Root      3 has converged.
 Root      4 not converged, maximum delta is    0.000020514555799
 Root      5 has converged.
 Root      6 has converged.
 Root      7 not converged, maximum delta is    0.000042339333948
 Root      8 has converged.
 Root      9 has converged.
 Root     10 has converged.
 Root     11 has converged.
 Root     12 has converged.
 Root     13 has converged.
 Root     14 has converged.
 Root     15 has converged.
 Excitation Energies [eV] at current iteration:
 Root      1 :     4.120305350342282   Change is   -0.000000036371671
 Root      2 :     4.911556263632012   Change is   -0.000000001551634
 Root      3 :     5.152411839976499   Change is   -0.000000000000012
 Root      4 :     5.984241178327446   Change is   -0.000000070167981
 Root      5 :     6.056767425720829   Change is   -0.000000000000042
 Root      6 :     6.119901955618325   Change is    0.000000000000012
 Root      7 :     6.121715549688122   Change is   -0.000000195025598
 Root      8 :     6.136028311336252   Change is    0.000000000000030
 Root      9 :     6.498382253821681   Change is   -0.000000000000024
 Root     10 :     6.988499872945077   Change is   -0.000000000000018
 Root     11 :     7.107898977937685   Change is    0.000000000000018
 Root     12 :     7.311891686870813   Change is    0.000000000000012
 Root     13 :     7.341381337273843   Change is    0.000000000000000
 Root     14 :     7.537996740571779   Change is    0.000000000000006
 Root     15 :     7.563202705388743   Change is    0.000000000000000
 Iteration     6 Dimension   127 NMult   123 NNew      4
 CISAX will form     4 AO SS matrices at one time.
 NMat=     4 NSing=     4 JSym2X= 0.
 Root      1 not converged, maximum delta is    0.000001346656697
 Root      2 has converged.
 Root      3 has converged.
 Root      4 not converged, maximum delta is    0.000001864502028
 Root      5 has converged.
 Root      6 has converged.
 Root      7 not converged, maximum delta is    0.000006753372951
 Root      8 has converged.
 Root      9 has converged.
 Root     10 has converged.
 Root     11 has converged.
 Root     12 has converged.
 Root     13 has converged.
 Root     14 has converged.
 Root     15 has converged.
 Excitation Energies [eV] at current iteration:
 Root      1 :     4.120305350065069   Change is   -0.000000000277213
 Root      2 :     4.911556263617269   Change is   -0.000000000014743
 Root      3 :     5.152411839976469   Change is   -0.000000000000030
 Root      4 :     5.984241177510965   Change is   -0.000000000816481
 Root      5 :     6.056767425720829   Change is    0.000000000000000
 Root      6 :     6.119901955618331   Change is    0.000000000000006
 Root      7 :     6.121715545978779   Change is   -0.000000003709343
 Root      8 :     6.136028311336204   Change is   -0.000000000000048
 Root      9 :     6.498382253821730   Change is    0.000000000000048
 Root     10 :     6.988499872945083   Change is    0.000000000000006
 Root     11 :     7.107898977937667   Change is   -0.000000000000018
 Root     12 :     7.311891686870800   Change is   -0.000000000000012
 Root     13 :     7.341381337273855   Change is    0.000000000000012
 Root     14 :     7.537996740571779   Change is    0.000000000000000
 Root     15 :     7.563202705388713   Change is   -0.000000000000030
 Iteration     7 Dimension   130 NMult   127 NNew      3
 CISAX will form     3 AO SS matrices at one time.
 NMat=     3 NSing=     3 JSym2X= 0.
 Root      1 has converged.
 Root      2 has converged.
 Root      3 has converged.
 Root      4 has converged.
 Root      5 has converged.
 Root      6 has converged.
 Root      7 has converged.
 Root      8 has converged.
 Root      9 has converged.
 Root     10 has converged.
 Root     11 has converged.
 Root     12 has converged.
 Root     13 has converged.
 Root     14 has converged.
 Root     15 has converged.
 Excitation Energies [eV] at current iteration:
 Root      1 :     4.120305350062470   Change is   -0.000000000002598
 Root      2 :     4.911556263617287   Change is    0.000000000000018
 Root      3 :     5.152411839976504   Change is    0.000000000000036
 Root      4 :     5.984241177508651   Change is   -0.000000000002314
 Root      5 :     6.056767425720823   Change is   -0.000000000000006
 Root      6 :     6.119901955618343   Change is    0.000000000000012
 Root      7 :     6.121715545931547   Change is   -0.000000000047231
 Root      8 :     6.136028311336187   Change is   -0.000000000000018
 Root      9 :     6.498382253821748   Change is    0.000000000000018
 Root     10 :     6.988499872945077   Change is   -0.000000000000006
 Root     11 :     7.107898977937679   Change is    0.000000000000012
 Root     12 :     7.311891686870800   Change is    0.000000000000000
 Root     13 :     7.341381337273837   Change is   -0.000000000000018
 Root     14 :     7.537996740571767   Change is   -0.000000000000012
 Root     15 :     7.563202705388701   Change is   -0.000000000000012
 Convergence achieved on expansion vectors.
 ***********************************************************************
 Excited states from <AA,BB:AA,BB> singles matrix:
 ***********************************************************************
 
 1PDM for each excited state written to RWF  633
 Ground to excited state transition densities written to RWF  633
 Ground to excited state transition electric dipole moments (Au):
       state          X           Y           Z        Dip. S.      Osc.
         1         0.0000     -0.8079      0.0000      0.6526      0.0659
         2         0.0000      0.0000      0.2155      0.0465      0.0056
         3         0.0000      0.0000      0.0000      0.0000      0.0000
         4         0.0000      0.0000     -1.6583      2.7501      0.4032
         5         0.1495      0.0000      0.0000      0.0224      0.0033
         6         0.0000      0.0000      0.0000      0.0000      0.0000
         7         0.0000     -0.9649      0.0000      0.9310      0.1396
         8        -0.0206      0.0000      0.0000      0.0004      0.0001
         9         0.0312      0.0000      0.0000      0.0010      0.0002
        10         0.0000      0.0000      0.0000      0.0000      0.0000
        11         0.1218      0.0000      0.0000      0.0148      0.0026
        12         0.0000      0.0000      0.0000      0.0000      0.0000
        13         0.0000      0.0000      0.0000      0.0000      0.0000
        14         0.0018      0.0000      0.0000      0.0000      0.0000
        15         0.0000      0.0000      0.0000      0.0000      0.0000
 Ground to excited state transition velocity dipole moments (Au):
       state          X           Y           Z        Dip. S.      Osc.
         1         0.0000      0.0397      0.0000      0.0016      0.0070
         2         0.0000      0.0000     -0.0104      0.0001      0.0004
         3         0.0000      0.0000      0.0000      0.0000      0.0000
         4         0.0000      0.0000      0.3292      0.1083      0.3284
         5        -0.0740      0.0000      0.0000      0.0055      0.0164
         6         0.0000      0.0000      0.0000      0.0000      0.0000
         7         0.0000      0.1595      0.0000      0.0254      0.0754
         8         0.0627      0.0000      0.0000      0.0039      0.0116
         9        -0.2075      0.0000      0.0000      0.0431      0.1202
        10         0.0000      0.0000      0.0000      0.0000      0.0000
        11         0.0048      0.0000      0.0000      0.0000      0.0001
        12         0.0000      0.0000      0.0000      0.0000      0.0000
        13         0.0000      0.0000      0.0000      0.0000      0.0000
        14        -0.0726      0.0000      0.0000      0.0053      0.0127
        15         0.0000      0.0000      0.0000      0.0000      0.0000
 Ground to excited state transition magnetic dipole moments (Au):
       state          X           Y           Z
         1         0.6645      0.0000      0.0000
         2         0.0000      0.0000      0.0000
         3         0.0000      0.0000     -0.5664
         4         0.0000      0.0000      0.0000
         5         0.0000     -0.1706      0.0000
         6         0.0000      0.0000     -0.0571
         7         0.1245      0.0000      0.0000
         8         0.0000     -0.1355      0.0000
         9         0.0000      0.0546      0.0000
        10         0.0000      0.0000      1.0105
        11         0.0000     -1.7769      0.0000
        12         0.0000      0.0000      0.7838
        13         0.0000      0.0000      0.0973
        14         0.0000      0.8609      0.0000
        15         0.0000      0.0000      0.0705
 Ground to excited state transition velocity quadrupole moments (Au):
       state          XX          YY          ZZ          XY          XZ          YZ
         1         0.0000      0.0000      0.0000      0.0000      0.0000      0.5285
         2        -0.0716     -0.1011      0.1513      0.0000      0.0000      0.0000
         3         0.0000      0.0000      0.0000     -0.1900      0.0000      0.0000
         4        -0.0352      0.4846     -0.3111      0.0000      0.0000      0.0000
         5         0.0000      0.0000      0.0000      0.0000     -0.2570      0.0000
         6         0.0000      0.0000      0.0000     -0.1048      0.0000      0.0000
         7         0.0000      0.0000      0.0000      0.0000      0.0000     -0.5073
         8         0.0000      0.0000      0.0000      0.0000     -0.0455      0.0000
         9         0.0000      0.0000      0.0000      0.0000     -0.0778      0.0000
        10         0.0000      0.0000      0.0000     -0.3574      0.0000      0.0000
        11         0.0000      0.0000      0.0000      0.0000      0.1463      0.0000
        12         0.0000      0.0000      0.0000      0.2420      0.0000      0.0000
        13         0.0000      0.0000      0.0000      0.0465      0.0000      0.0000
        14         0.0000      0.0000      0.0000      0.0000      0.5774      0.0000
        15         0.0000      0.0000      0.0000     -0.0525      0.0000      0.0000
 <0|del|b> * <b|rxdel|0> + <0|del|b> * <b|delr+rdel|0>
 Rotatory Strengths (R) in cgs (10**-40 erg-esu-cm/Gauss)
       state          XX          YY          ZZ    R(velocity)    E-M Angle
         1         0.0000      0.0000      0.0000      0.0000       90.00
         2         0.0000      0.0000      0.0000      0.0000       90.00
         3         0.0000      0.0000      0.0000      0.0000       90.00
         4         0.0000      0.0000      0.0000      0.0000       90.00
         5         0.0000      0.0000      0.0000      0.0000       90.00
         6         0.0000      0.0000      0.0000      0.0000       90.00
         7         0.0000      0.0000      0.0000      0.0000       90.00
         8         0.0000      0.0000      0.0000      0.0000       90.00
         9         0.0000      0.0000      0.0000      0.0000       90.00
        10         0.0000      0.0000      0.0000      0.0000       90.00
        11         0.0000      0.0000      0.0000      0.0000       90.00
        12         0.0000      0.0000      0.0000      0.0000       90.00
        13         0.0000      0.0000      0.0000      0.0000       90.00
        14         0.0000      0.0000      0.0000      0.0000       90.00
        15         0.0000      0.0000      0.0000      0.0000       90.00
 1/2[<0|r|b>*<b|rxdel|0> + (<0|rxdel|b>*<b|r|0>)*]
 Rotatory Strengths (R) in cgs (10**-40 erg-esu-cm/Gauss)
       state          XX          YY          ZZ     R(length)
         1         0.0000      0.0000      0.0000      0.0000
         2         0.0000      0.0000      0.0000      0.0000
         3         0.0000      0.0000      0.0000      0.0000
         4         0.0000      0.0000      0.0000      0.0000
         5         0.0000      0.0000      0.0000      0.0000
         6         0.0000      0.0000      0.0000      0.0000
         7         0.0000      0.0000      0.0000      0.0000
         8         0.0000      0.0000      0.0000      0.0000
         9         0.0000      0.0000      0.0000      0.0000
        10         0.0000      0.0000      0.0000      0.0000
        11         0.0000      0.0000      0.0000      0.0000
        12         0.0000      0.0000      0.0000      0.0000
        13         0.0000      0.0000      0.0000      0.0000
        14         0.0000      0.0000      0.0000      0.0000
        15         0.0000      0.0000      0.0000      0.0000
  1/2[<0|del|b>*<b|r|0> + (<0|r|b>*<b|del|0>)*] (Au)
       state          X           Y           Z        Dip. S.   Osc.(frdel)
         1         0.0000     -0.0321      0.0000      0.0321      0.0214
         2         0.0000      0.0000     -0.0022      0.0022      0.0015
         3         0.0000      0.0000      0.0000      0.0000      0.0000
         4         0.0000      0.0000     -0.5458      0.5458      0.3639
         5        -0.0111      0.0000      0.0000      0.0111      0.0074
         6         0.0000      0.0000      0.0000      0.0000      0.0000
         7         0.0000     -0.1539      0.0000      0.1539      0.1026
         8        -0.0013      0.0000      0.0000      0.0013      0.0009
         9        -0.0065      0.0000      0.0000      0.0065      0.0043
        10         0.0000      0.0000      0.0000      0.0000      0.0000
        11         0.0006      0.0000      0.0000     -0.0006     -0.0004
        12         0.0000      0.0000      0.0000      0.0000      0.0000
        13         0.0000      0.0000      0.0000      0.0000      0.0000
        14        -0.0001      0.0000      0.0000      0.0001      0.0001
        15         0.0000      0.0000      0.0000      0.0000      0.0000

 Excitation energies and oscillator strengths:
 
 Excited State   1:      Singlet-B2     4.1203 eV  300.91 nm  f=0.0659  <S**2>=0.000
      12 -> 15        -0.25750
      13 -> 14         0.64966
 This state for optimization and/or second-order correction.
 Total Energy, E(CIS) =  0.141748188766    
 Copying the excited state density for this state as the 1-particle RhoCI density.
 
 Excited State   2:      Singlet-A1     4.9116 eV  252.43 nm  f=0.0056  <S**2>=0.000
      12 -> 14         0.42304
      13 -> 15         0.56195
 
 Excited State   3:      Singlet-A2     5.1524 eV  240.63 nm  f=0.0000  <S**2>=0.000
      13 -> 16         0.68923
      13 -> 22        -0.10038
 
 Excited State   4:      Singlet-A1     5.9842 eV  207.18 nm  f=0.4032  <S**2>=0.000
      10 -> 16        -0.11319
      12 -> 14         0.53707
      13 -> 15        -0.40655
 
 Excited State   5:      Singlet-B1     6.0568 eV  204.70 nm  f=0.0033  <S**2>=0.000
      12 -> 16        -0.33548
      12 -> 22         0.23823
      13 -> 17        -0.10606
      13 -> 19         0.46606
      13 -> 23         0.22709
 
 Excited State   6:      Singlet-A2     6.1199 eV  202.59 nm  f=0.0000  <S**2>=0.000
      12 -> 19         0.23634
      12 -> 23         0.16115
      12 -> 24        -0.12158
      13 -> 18         0.43204
      13 -> 21        -0.16628
      13 -> 22         0.40518
 
 Excited State   7:      Singlet-B2     6.1217 eV  202.53 nm  f=0.1396  <S**2>=0.000
      12 -> 15         0.64856
      13 -> 14         0.24969
 
 Excited State   8:      Singlet-B1     6.1360 eV  202.06 nm  f=0.0001  <S**2>=0.000
       7 -> 16        -0.17104
      12 -> 16         0.56154
      12 -> 18         0.17181
      12 -> 21        -0.13054
      13 -> 19         0.22160
      13 -> 23         0.17110
      13 -> 24        -0.10971
 
 Excited State   9:      Singlet-B1     6.4984 eV  190.79 nm  f=0.0002  <S**2>=0.000
      12 -> 18        -0.12071
      13 -> 17         0.63437
      13 -> 19         0.21818
      13 -> 20         0.10068
 
 Excited State  10:      Singlet-A2     6.9885 eV  177.41 nm  f=0.0000  <S**2>=0.000
      12 -> 17         0.46460
      12 -> 19         0.28521
      12 -> 20         0.20905
      13 -> 18        -0.27949
      13 -> 22         0.24359
 
 Excited State  11:      Singlet-B1     7.1079 eV  174.43 nm  f=0.0026  <S**2>=0.000
       9 -> 15        -0.31075
      10 -> 14         0.56039
      11 -> 14         0.24779
 
 Excited State  12:      Singlet-A2     7.3119 eV  169.57 nm  f=0.0000  <S**2>=0.000
       8 -> 14         0.12493
       9 -> 14         0.43286
      10 -> 15        -0.12301
      11 -> 15        -0.35455
      12 -> 17        -0.14557
      12 -> 20        -0.22007
      12 -> 23         0.14665
      13 -> 18        -0.16560
      13 -> 22         0.14699
 
 Excited State  13:      Singlet-A2     7.3414 eV  168.88 nm  f=0.0000  <S**2>=0.000
       9 -> 14         0.35165
      10 -> 15        -0.17372
      12 -> 17         0.15741
      12 -> 19        -0.19196
      12 -> 20         0.31384
      12 -> 23        -0.13034
      13 -> 18         0.33547
      13 -> 21         0.18611
 
 Excited State  14:      Singlet-B1     7.5380 eV  164.48 nm  f=0.0000  <S**2>=0.000
       7 -> 16        -0.13864
      12 -> 18        -0.28572
      12 -> 21        -0.22014
      12 -> 22        -0.27931
      13 -> 17        -0.16516
      13 -> 19         0.32989
      13 -> 20        -0.16692
      13 -> 23        -0.18455
      13 -> 24         0.24437
 
 Excited State  15:      Singlet-A2     7.5632 eV  163.93 nm  f=0.0000  <S**2>=0.000
      11 -> 15         0.13094
      12 -> 19        -0.35260
      12 -> 23         0.13423
      13 -> 18        -0.10253
      13 -> 21         0.37837
      13 -> 22         0.39072
 SavETr:  write IOETrn=   770 NScale= 10 NData=  16 NLR=1 NState=   15 LETran=     280.
 The selected state is a singlet
 CISAX will form     1 AO SS matrices at one time.
 NMat=     1 NSing=     1 JSym2X= 0.
 Leave Link  914 at Thu Jan  7 16:47:17 2016, MaxMem=    33554432 cpu:         0.1
 (Enter /opt/g09/g09/l1002.exe)
 Minotr:  Closed shell wavefunction.
          Computing CIS/TD-HF/TD-KS derivatives.
          Using Z-Vector for PSCF gradient.
          Skipping F1 and S1 gradient terms here.
          IDoAtm=111111111
          Direct CPHF calculation.
          Differentiating once with respect to electric field.
                with respect to dipole field.
          Differentiating once with respect to nuclear coordinates.
          Electric field/nuclear overlap derivatives assumed to be zero.
          Requested convergence is 1.0D-10 RMS, and 1.0D-09 maximum.
          NewPWx=T KeepS1=F KeepF1=F KeepIn=T MapXYZ=F SortEE=F KeepMc=T.
          MDV=      33495423 using IRadAn=       0.
 Keep J ints in memory in canonical form, NReq=871758.
 FoFCou: FMM=F IPFlag=           0 FMFlag=           0 FMFlg1=           0
         NFxFlg=           0 DoJE=F BraDBF=F KetDBF=F FulRan=T
         wScrn=  0.000000 ICntrl=     600 IOpCl=  2 I1Cent=           0 NGrid=           0
         NMat0=    1 NMatS0=     54 NMatT0=    0 NMatD0=    1 NMtDS0=    0 NMtDT0=    0
 Symmetry not used in FoFCou.
          Solving linear equations separately, MaxMat=       0.
          There are     1 degrees of freedom in the 1st order CPHF.  IDoFFX=0 NUNeed=     1.
 LinEq1:  Iter=  0 NonCon=     1 RMS=9.74D-03 Max=7.23D-02 NDo=     1
 AX will form     1 AO Fock derivatives at one time.
 LinEq1:  Iter=  1 NonCon=     1 RMS=1.78D-03 Max=1.26D-02 NDo=     1
 LinEq1:  Iter=  2 NonCon=     1 RMS=2.72D-04 Max=2.08D-03 NDo=     1
 LinEq1:  Iter=  3 NonCon=     1 RMS=3.40D-05 Max=1.85D-04 NDo=     1
 LinEq1:  Iter=  4 NonCon=     1 RMS=2.77D-06 Max=1.18D-05 NDo=     1
 LinEq1:  Iter=  5 NonCon=     1 RMS=3.17D-07 Max=1.28D-06 NDo=     1
 LinEq1:  Iter=  6 NonCon=     1 RMS=3.62D-08 Max=1.38D-07 NDo=     1
 LinEq1:  Iter=  7 NonCon=     1 RMS=3.84D-09 Max=1.58D-08 NDo=     1
 LinEq1:  Iter=  8 NonCon=     1 RMS=3.83D-10 Max=1.65D-09 NDo=     1
 LinEq1:  Iter=  9 NonCon=     0 RMS=4.27D-11 Max=1.50D-10 NDo=     1
 Linear equations converged to 1.000D-10 1.000D-09 after     9 iterations.
 End of Minotr F.D. properties file   721 does not exist.
 End of Minotr F.D. properties file   722 does not exist.
 End of Minotr F.D. properties file   788 does not exist.
 Leave Link 1002 at Thu Jan  7 16:47:17 2016, MaxMem=    33554432 cpu:         0.0
 (Enter /opt/g09/g09/l601.exe)
 Copying SCF densities to generalized density rwf, IOpCl= 0 IROHF=0.

 **********************************************************************

            Population analysis using the SCF density.

 **********************************************************************

 Orbital symmetries:
       Occupied  (A1) (A1) (B2) (B2) (A1) (A1) (B1) (B2) (B2) (A1)
                 (A1) (B1) (A2)
       Virtual   (B1) (A2) (A1) (B2) (A1) (B2) (B2) (A1) (A1) (B2)
                 (B2)
 The electronic state is 1-A1.
 Alpha  occ. eigenvalues --   -1.46973  -1.16435  -1.04113  -0.79140  -0.77838
 Alpha  occ. eigenvalues --   -0.67370  -0.57912  -0.55343  -0.50312  -0.50084
 Alpha  occ. eigenvalues --   -0.49440  -0.38500  -0.34251
 Alpha virt. eigenvalues --    0.03596   0.06965   0.11314   0.15213   0.16262
 Alpha virt. eigenvalues --    0.16376   0.18881   0.19049   0.20131   0.21955
 Alpha virt. eigenvalues --    0.22902
     Molecular Orbital Coefficients:
                           1         2         3         4         5
                        (A1)--O   (A1)--O   (B2)--O   (B2)--O   (A1)--O
     Eigenvalues --    -1.46973  -1.16435  -1.04113  -0.79140  -0.77838
   1 1   C  1S          0.26721  -0.47176   0.28376  -0.34010  -0.24343
   2        1PX         0.00000   0.00000   0.00000   0.00000   0.00000
   3        1PY        -0.06128   0.08648   0.14950  -0.19289   0.19940
   4        1PZ         0.10722  -0.03975   0.12156   0.01502   0.27979
   5 2   C  1S          0.35917  -0.13473   0.50887   0.10069   0.38401
   6        1PX         0.00000   0.00000   0.00000   0.00000   0.00000
   7        1PY        -0.18234  -0.05062   0.01137  -0.08728   0.14630
   8        1PZ         0.01922   0.23532  -0.02122   0.36859   0.00514
   9 3   O  1S          0.65939   0.56996   0.00000   0.00000  -0.28302
  10        1PX         0.00000   0.00000   0.00000   0.00000   0.00000
  11        1PY         0.00000   0.00000   0.34009   0.51176   0.00000
  12        1PZ        -0.20150   0.03112   0.00000   0.00000  -0.16685
  13 4   C  1S          0.35917  -0.13473  -0.50887  -0.10069   0.38401
  14        1PX         0.00000   0.00000   0.00000   0.00000   0.00000
  15        1PY         0.18234   0.05062   0.01137  -0.08728  -0.14630
  16        1PZ         0.01922   0.23532   0.02122  -0.36859   0.00514
  17 5   C  1S          0.26721  -0.47176  -0.28376   0.34010  -0.24343
  18        1PX         0.00000   0.00000   0.00000   0.00000   0.00000
  19        1PY         0.06128  -0.08648   0.14950  -0.19289  -0.19940
  20        1PZ         0.10722  -0.03975  -0.12156  -0.01502   0.27979
  21 6   H  1S          0.06738  -0.16782  -0.12198   0.22942  -0.17523
  22 7   H  1S          0.09214  -0.03493  -0.22388  -0.09852   0.26293
  23 8   H  1S          0.09214  -0.03493   0.22388   0.09852   0.26293
  24 9   H  1S          0.06738  -0.16782   0.12198  -0.22942  -0.17523
                           6         7         8         9        10
                        (A1)--O   (B1)--O   (B2)--O   (B2)--O   (A1)--O
     Eigenvalues --    -0.67370  -0.57912  -0.55343  -0.50312  -0.50084
   1 1   C  1S          0.07439   0.00000   0.18018  -0.01566   0.04956
   2        1PX         0.00000   0.22465   0.00000   0.00000   0.00000
   3        1PY         0.19324   0.00000   0.07417  -0.06964  -0.09810
   4        1PZ        -0.23936   0.00000  -0.16400   0.41608   0.33752
   5 2   C  1S          0.07256   0.00000  -0.13839   0.09648  -0.04466
   6        1PX         0.00000   0.38153   0.00000   0.00000   0.00000
   7        1PY         0.36220   0.00000  -0.39511  -0.26691   0.10166
   8        1PZ         0.10557   0.00000   0.07538  -0.29799  -0.28702
   9 3   O  1S          0.18728   0.00000   0.00000   0.00000   0.21216
  10        1PX         0.00000   0.77970   0.00000   0.00000   0.00000
  11        1PY         0.00000   0.00000   0.44753   0.01747   0.00000
  12        1PZ         0.46385   0.00000   0.00000   0.00000   0.62806
  13 4   C  1S          0.07256   0.00000   0.13839  -0.09648  -0.04466
  14        1PX         0.00000   0.38153   0.00000   0.00000   0.00000
  15        1PY        -0.36220   0.00000  -0.39511  -0.26691  -0.10166
  16        1PZ         0.10557   0.00000  -0.07538   0.29799  -0.28702
  17 5   C  1S          0.07439   0.00000  -0.18018   0.01566   0.04956
  18        1PX         0.00000   0.22465   0.00000   0.00000   0.00000
  19        1PY        -0.19324   0.00000   0.07417  -0.06964   0.09810
  20        1PZ        -0.23936   0.00000   0.16400  -0.41608   0.33752
  21 6   H  1S          0.23246   0.00000  -0.23448   0.30883  -0.23454
  22 7   H  1S          0.27033   0.00000   0.31474   0.23856  -0.06744
  23 8   H  1S          0.27033   0.00000  -0.31474  -0.23856  -0.06744
  24 9   H  1S          0.23246   0.00000   0.23448  -0.30883  -0.23454
                          11        12        13        14        15
                        (A1)--O   (B1)--O   (A2)--O   (B1)--V   (A2)--V
     Eigenvalues --    -0.49440  -0.38500  -0.34251   0.03596   0.06965
   1 1   C  1S         -0.01915   0.00000   0.00000   0.00000   0.00000
   2        1PX         0.00000   0.58112   0.38726  -0.33441   0.59163
   3        1PY         0.55618   0.00000   0.00000   0.00000   0.00000
   4        1PZ         0.07535   0.00000   0.00000   0.00000   0.00000
   5 2   C  1S         -0.03511   0.00000   0.00000   0.00000   0.00000
   6        1PX         0.00000   0.17922   0.59163   0.56773  -0.38726
   7        1PY        -0.12162   0.00000   0.00000   0.00000   0.00000
   8        1PZ        -0.26811   0.00000   0.00000   0.00000   0.00000
   9 3   O  1S          0.08923   0.00000   0.00000   0.00000   0.00000
  10        1PX         0.00000  -0.51025   0.00000  -0.36291   0.00000
  11        1PY         0.00000   0.00000   0.00000   0.00000   0.00000
  12        1PZ        -0.03917   0.00000   0.00000   0.00000   0.00000
  13 4   C  1S         -0.03511   0.00000   0.00000   0.00000   0.00000
  14        1PX         0.00000   0.17922  -0.59163   0.56773   0.38726
  15        1PY         0.12162   0.00000   0.00000   0.00000   0.00000
  16        1PZ        -0.26811   0.00000   0.00000   0.00000   0.00000
  17 5   C  1S         -0.01915   0.00000   0.00000   0.00000   0.00000
  18        1PX         0.00000   0.58112  -0.38726  -0.33441  -0.59163
  19        1PY        -0.55618   0.00000   0.00000   0.00000   0.00000
  20        1PZ         0.07535   0.00000   0.00000   0.00000   0.00000
  21 6   H  1S          0.20578   0.00000   0.00000   0.00000   0.00000
  22 7   H  1S         -0.22276   0.00000   0.00000   0.00000   0.00000
  23 8   H  1S         -0.22276   0.00000   0.00000   0.00000   0.00000
  24 9   H  1S          0.20578   0.00000   0.00000   0.00000   0.00000
                          16        17        18        19        20
                        (A1)--V   (B2)--V   (A1)--V   (B2)--V   (B2)--V
     Eigenvalues --     0.11314   0.15213   0.16262   0.16376   0.18881
   1 1   C  1S         -0.04520  -0.21396  -0.00827   0.24816  -0.32020
   2        1PX         0.00000   0.00000   0.00000   0.00000   0.00000
   3        1PY        -0.00312   0.28294   0.00579   0.32448   0.26549
   4        1PZ         0.06684   0.01312   0.32208   0.04663   0.32780
   5 2   C  1S          0.27856   0.18538  -0.29455  -0.31651  -0.20417
   6        1PX         0.00000   0.00000   0.00000   0.00000   0.00000
   7        1PY        -0.23190   0.34368  -0.26755   0.16813  -0.07292
   8        1PZ         0.34480   0.05072   0.11576   0.03317  -0.09353
   9 3   O  1S         -0.23887   0.00000  -0.06088   0.00000   0.00000
  10        1PX         0.00000   0.00000   0.00000   0.00000   0.00000
  11        1PY         0.00000   0.10818   0.00000   0.33955   0.15242
  12        1PZ         0.48735   0.00000   0.10178   0.00000   0.00000
  13 4   C  1S          0.27856  -0.18538  -0.29455   0.31651   0.20417
  14        1PX         0.00000   0.00000   0.00000   0.00000   0.00000
  15        1PY         0.23190   0.34368   0.26755   0.16813  -0.07292
  16        1PZ         0.34480  -0.05072   0.11576  -0.03317   0.09353
  17 5   C  1S         -0.04520   0.21396  -0.00827  -0.24816   0.32020
  18        1PX         0.00000   0.00000   0.00000   0.00000   0.00000
  19        1PY         0.00312   0.28294  -0.00579   0.32448   0.26549
  20        1PZ         0.06684  -0.01312   0.32208  -0.04663  -0.32780
  21 6   H  1S          0.13681  -0.03526   0.25413   0.36600  -0.32406
  22 7   H  1S         -0.27789   0.46027   0.39090  -0.09901  -0.21715
  23 8   H  1S         -0.27789  -0.46027   0.39090   0.09901   0.21715
  24 9   H  1S          0.13681   0.03526   0.25413  -0.36600   0.32406
                          21        22        23        24
                        (A1)--V   (A1)--V   (B2)--V   (B2)--V
     Eigenvalues --     0.19049   0.20131   0.21955   0.22902
   1 1   C  1S         -0.27510   0.24625   0.22984  -0.09159
   2        1PX         0.00000   0.00000   0.00000   0.00000
   3        1PY        -0.27893   0.12191  -0.34413  -0.23631
   4        1PZ         0.17020   0.30754   0.36861  -0.19825
   5 2   C  1S          0.06747  -0.16728  -0.15412  -0.04971
   6        1PX         0.00000   0.00000   0.00000   0.00000
   7        1PY         0.23946   0.32213   0.26684   0.20492
   8        1PZ        -0.13260   0.35910   0.18540  -0.47161
   9 3   O  1S          0.08953   0.05844   0.00000   0.00000
  10        1PX         0.00000   0.00000   0.00000   0.00000
  11        1PY         0.00000   0.00000   0.13481   0.50344
  12        1PZ        -0.14470  -0.22502   0.00000   0.00000
  13 4   C  1S          0.06747  -0.16728   0.15412   0.04971
  14        1PX         0.00000   0.00000   0.00000   0.00000
  15        1PY        -0.23946  -0.32213   0.26684   0.20492
  16        1PZ        -0.13260   0.35910  -0.18540   0.47161
  17 5   C  1S         -0.27510   0.24625  -0.22984   0.09159
  18        1PX         0.00000   0.00000   0.00000   0.00000
  19        1PY         0.27893  -0.12191  -0.34413  -0.23631
  20        1PZ         0.17020   0.30754  -0.36861   0.19825
  21 6   H  1S          0.44743  -0.04136  -0.20069  -0.04051
  22 7   H  1S         -0.15300  -0.20118   0.11905  -0.03495
  23 8   H  1S         -0.15300  -0.20118  -0.11905   0.03495
  24 9   H  1S          0.44743  -0.04136   0.20069   0.04051
     Density Matrix:
                           1         2         3         4         5
   1 1   C  1S          1.18093
   2        1PX         0.00000   1.07628
   3        1PY         0.03126   0.00000   0.95440
   4        1PZ        -0.05981   0.00000  -0.03508   0.96653
   5 2   C  1S          0.30723   0.00000   0.16291   0.48485   1.20131
   6        1PX         0.00000   0.83795   0.00000   0.00000   0.00000
   7        1PY        -0.12049   0.00000   0.07233  -0.16867   0.09890
   8        1PZ        -0.44299   0.00000  -0.25657  -0.56319  -0.01160
   9 3   O  1S         -0.00212   0.00000   0.03491   0.00473   0.10468
  10        1PX         0.00000  -0.24272   0.00000   0.00000   0.00000
  11        1PY         0.00563   0.00000  -0.03178  -0.03420   0.32867
  12        1PZ         0.07695   0.00000  -0.02399   0.05696  -0.26731
  13 4   C  1S         -0.02760   0.00000   0.00423  -0.01999   0.01113
  14        1PX         0.00000  -0.07852   0.00000   0.00000   0.00000
  15        1PY        -0.01591   0.00000  -0.04105  -0.01606   0.00481
  16        1PZ         0.00953   0.00000  -0.06487  -0.02962   0.03987
  17 5   C  1S          0.26535   0.00000  -0.45865  -0.03310  -0.02760
  18        1PX         0.00000   0.47639   0.00000   0.00000   0.00000
  19        1PY         0.45865   0.00000  -0.67476  -0.06838  -0.00423
  20        1PZ        -0.03310   0.00000   0.06838   0.10645  -0.01999
  21 6   H  1S         -0.03633   0.00000   0.05483   0.00229   0.04583
  22 7   H  1S          0.04216   0.00000  -0.05803  -0.00095   0.04966
  23 8   H  1S         -0.04966   0.00000  -0.02709  -0.07673   0.62721
  24 9   H  1S          0.60255   0.00000   0.46038  -0.61999  -0.04727
                           6         7         8         9        10
   6        1PX         1.05542
   7        1PY         0.00000   0.89727
   8        1PZ         0.00000   0.08868   0.90393
   9 3   O  1S          0.00000  -0.22389   0.16060   1.85561
  10        1PX         0.41207   0.00000   0.00000   0.00000   1.73660
  11        1PY         0.00000  -0.44458   0.41988   0.00000   0.00000
  12        1PZ         0.00000   0.49476  -0.23640   0.29743   0.00000
  13 4   C  1S          0.00000  -0.00481   0.03987   0.10468   0.00000
  14        1PX        -0.34469   0.00000   0.00000   0.00000   0.41207
  15        1PY         0.00000   0.04314  -0.01933   0.22389   0.00000
  16        1PZ         0.00000   0.01933  -0.01922   0.16060   0.00000
  17 5   C  1S          0.00000   0.01591   0.00953  -0.00212   0.00000
  18        1PX        -0.07852   0.00000   0.00000   0.00000  -0.24272
  19        1PY         0.00000  -0.04105   0.06487  -0.03491   0.00000
  20        1PZ         0.00000   0.01606  -0.02962   0.00473   0.00000
  21 6   H  1S          0.00000  -0.01059  -0.04993   0.02102   0.00000
  22 7   H  1S          0.00000  -0.08079   0.04719  -0.03425   0.00000
  23 8   H  1S          0.00000   0.64713   0.36290  -0.03425   0.00000
  24 9   H  1S          0.00000   0.03418   0.04029   0.02102   0.00000
                          11        12        13        14        15
  11        1PY         1.15630
  12        1PZ         0.00000   1.36113
  13 4   C  1S         -0.32867  -0.26731   1.20131
  14        1PX         0.00000   0.00000   0.00000   1.05542
  15        1PY        -0.44458  -0.49476  -0.09890   0.00000   0.89727
  16        1PZ        -0.41988  -0.23640  -0.01160   0.00000  -0.08868
  17 5   C  1S         -0.00563   0.07695   0.30723   0.00000   0.12049
  18        1PX         0.00000   0.00000   0.00000   0.83795   0.00000
  19        1PY        -0.03178   0.02399  -0.16291   0.00000   0.07233
  20        1PZ         0.03420   0.05696   0.48485   0.00000   0.16867
  21 6   H  1S         -0.04724  -0.07421  -0.04727   0.00000  -0.03418
  22 7   H  1S          0.03694   0.05647   0.62721   0.00000  -0.64713
  23 8   H  1S         -0.03694   0.05647   0.04966   0.00000   0.08079
  24 9   H  1S          0.04724  -0.07421   0.04583   0.00000   0.01059
                          16        17        18        19        20
  16        1PZ         0.90393
  17 5   C  1S         -0.44299   1.18093
  18        1PX         0.00000   0.00000   1.07628
  19        1PY         0.25657  -0.03126   0.00000   0.95440
  20        1PZ        -0.56319  -0.05981   0.00000   0.03508   0.96653
  21 6   H  1S          0.04029   0.60255   0.00000  -0.46038  -0.61999
  22 7   H  1S          0.36290  -0.04966   0.00000   0.02709  -0.07673
  23 8   H  1S          0.04719   0.04216   0.00000   0.05803  -0.00095
  24 9   H  1S         -0.04993  -0.03633   0.00000  -0.05483   0.00229
                          21        22        23        24
  21 6   H  1S          0.86533
  22 7   H  1S          0.00678   0.84379
  23 8   H  1S         -0.01153  -0.01942   0.84379
  24 9   H  1S         -0.00614  -0.01153   0.00678   0.86533
    Full Mulliken population analysis:
                           1         2         3         4         5
   1 1   C  1S          1.18093
   2        1PX         0.00000   1.07628
   3        1PY         0.00000   0.00000   0.95440
   4        1PZ         0.00000   0.00000   0.00000   0.96653
   5 2   C  1S          0.00000   0.00000   0.00000   0.00000   1.20131
   6        1PX         0.00000   0.00000   0.00000   0.00000   0.00000
   7        1PY         0.00000   0.00000   0.00000   0.00000   0.00000
   8        1PZ         0.00000   0.00000   0.00000   0.00000   0.00000
   9 3   O  1S          0.00000   0.00000   0.00000   0.00000   0.00000
  10        1PX         0.00000   0.00000   0.00000   0.00000   0.00000
  11        1PY         0.00000   0.00000   0.00000   0.00000   0.00000
  12        1PZ         0.00000   0.00000   0.00000   0.00000   0.00000
  13 4   C  1S          0.00000   0.00000   0.00000   0.00000   0.00000
  14        1PX         0.00000   0.00000   0.00000   0.00000   0.00000
  15        1PY         0.00000   0.00000   0.00000   0.00000   0.00000
  16        1PZ         0.00000   0.00000   0.00000   0.00000   0.00000
  17 5   C  1S          0.00000   0.00000   0.00000   0.00000   0.00000
  18        1PX         0.00000   0.00000   0.00000   0.00000   0.00000
  19        1PY         0.00000   0.00000   0.00000   0.00000   0.00000
  20        1PZ         0.00000   0.00000   0.00000   0.00000   0.00000
  21 6   H  1S          0.00000   0.00000   0.00000   0.00000   0.00000
  22 7   H  1S          0.00000   0.00000   0.00000   0.00000   0.00000
  23 8   H  1S          0.00000   0.00000   0.00000   0.00000   0.00000
  24 9   H  1S          0.00000   0.00000   0.00000   0.00000   0.00000
                           6         7         8         9        10
   6        1PX         1.05542
   7        1PY         0.00000   0.89727
   8        1PZ         0.00000   0.00000   0.90393
   9 3   O  1S          0.00000   0.00000   0.00000   1.85561
  10        1PX         0.00000   0.00000   0.00000   0.00000   1.73660
  11        1PY         0.00000   0.00000   0.00000   0.00000   0.00000
  12        1PZ         0.00000   0.00000   0.00000   0.00000   0.00000
  13 4   C  1S          0.00000   0.00000   0.00000   0.00000   0.00000
  14        1PX         0.00000   0.00000   0.00000   0.00000   0.00000
  15        1PY         0.00000   0.00000   0.00000   0.00000   0.00000
  16        1PZ         0.00000   0.00000   0.00000   0.00000   0.00000
  17 5   C  1S          0.00000   0.00000   0.00000   0.00000   0.00000
  18        1PX         0.00000   0.00000   0.00000   0.00000   0.00000
  19        1PY         0.00000   0.00000   0.00000   0.00000   0.00000
  20        1PZ         0.00000   0.00000   0.00000   0.00000   0.00000
  21 6   H  1S          0.00000   0.00000   0.00000   0.00000   0.00000
  22 7   H  1S          0.00000   0.00000   0.00000   0.00000   0.00000
  23 8   H  1S          0.00000   0.00000   0.00000   0.00000   0.00000
  24 9   H  1S          0.00000   0.00000   0.00000   0.00000   0.00000
                          11        12        13        14        15
  11        1PY         1.15630
  12        1PZ         0.00000   1.36113
  13 4   C  1S          0.00000   0.00000   1.20131
  14        1PX         0.00000   0.00000   0.00000   1.05542
  15        1PY         0.00000   0.00000   0.00000   0.00000   0.89727
  16        1PZ         0.00000   0.00000   0.00000   0.00000   0.00000
  17 5   C  1S          0.00000   0.00000   0.00000   0.00000   0.00000
  18        1PX         0.00000   0.00000   0.00000   0.00000   0.00000
  19        1PY         0.00000   0.00000   0.00000   0.00000   0.00000
  20        1PZ         0.00000   0.00000   0.00000   0.00000   0.00000
  21 6   H  1S          0.00000   0.00000   0.00000   0.00000   0.00000
  22 7   H  1S          0.00000   0.00000   0.00000   0.00000   0.00000
  23 8   H  1S          0.00000   0.00000   0.00000   0.00000   0.00000
  24 9   H  1S          0.00000   0.00000   0.00000   0.00000   0.00000
                          16        17        18        19        20
  16        1PZ         0.90393
  17 5   C  1S          0.00000   1.18093
  18        1PX         0.00000   0.00000   1.07628
  19        1PY         0.00000   0.00000   0.00000   0.95440
  20        1PZ         0.00000   0.00000   0.00000   0.00000   0.96653
  21 6   H  1S          0.00000   0.00000   0.00000   0.00000   0.00000
  22 7   H  1S          0.00000   0.00000   0.00000   0.00000   0.00000
  23 8   H  1S          0.00000   0.00000   0.00000   0.00000   0.00000
  24 9   H  1S          0.00000   0.00000   0.00000   0.00000   0.00000
                          21        22        23        24
  21 6   H  1S          0.86533
  22 7   H  1S          0.00000   0.84379
  23 8   H  1S          0.00000   0.00000   0.84379
  24 9   H  1S          0.00000   0.00000   0.00000   0.86533
     Gross orbital populations:
                           1
   1 1   C  1S          1.18093
   2        1PX         1.07628
   3        1PY         0.95440
   4        1PZ         0.96653
   5 2   C  1S          1.20131
   6        1PX         1.05542
   7        1PY         0.89727
   8        1PZ         0.90393
   9 3   O  1S          1.85561
  10        1PX         1.73660
  11        1PY         1.15630
  12        1PZ         1.36113
  13 4   C  1S          1.20131
  14        1PX         1.05542
  15        1PY         0.89727
  16        1PZ         0.90393
  17 5   C  1S          1.18093
  18        1PX         1.07628
  19        1PY         0.95440
  20        1PZ         0.96653
  21 6   H  1S          0.86533
  22 7   H  1S          0.84379
  23 8   H  1S          0.84379
  24 9   H  1S          0.86533
          Condensed to atoms (all electrons):
               1          2          3          4          5          6
     1  C    4.178140   0.000000   0.000000   0.000000   0.000000   0.000000
     2  C    0.000000   4.057928   0.000000   0.000000   0.000000   0.000000
     3  O    0.000000   0.000000   6.109626   0.000000   0.000000   0.000000
     4  C    0.000000   0.000000   0.000000   4.057928   0.000000   0.000000
     5  C    0.000000   0.000000   0.000000   0.000000   4.178140   0.000000
     6  H    0.000000   0.000000   0.000000   0.000000   0.000000   0.865333
     7  H    0.000000   0.000000   0.000000   0.000000   0.000000   0.000000
     8  H    0.000000   0.000000   0.000000   0.000000   0.000000   0.000000
     9  H    0.000000   0.000000   0.000000   0.000000   0.000000   0.000000
               7          8          9
     1  C    0.000000   0.000000   0.000000
     2  C    0.000000   0.000000   0.000000
     3  O    0.000000   0.000000   0.000000
     4  C    0.000000   0.000000   0.000000
     5  C    0.000000   0.000000   0.000000
     6  H    0.000000   0.000000   0.000000
     7  H    0.843786   0.000000   0.000000
     8  H    0.000000   0.843786   0.000000
     9  H    0.000000   0.000000   0.865333
 Mulliken charges:
               1
     1  C   -0.178140
     2  C   -0.057928
     3  O   -0.109626
     4  C   -0.057928
     5  C   -0.178140
     6  H    0.134667
     7  H    0.156214
     8  H    0.156214
     9  H    0.134667
 Sum of Mulliken charges =   0.00000
 Mulliken charges with hydrogens summed into heavy atoms:
               1
     1  C   -0.043473
     2  C    0.098286
     3  O   -0.109626
     4  C    0.098286
     5  C   -0.043473
 Charge=              0.0000 electrons
 Dipole moment (field-independent basis, Debye):
    X=              0.0000    Y=              0.0000    Z=             -0.4081  Tot=              0.4081
 N-N= 1.037713101205D+02 E-N=-1.727178249586D+02  KE=-1.628988187854D+01
 Symmetry A1   KE=-8.851721866976D+00
 Symmetry A2   KE=-6.441477764297D-01
 Symmetry B1   KE=-1.626674704962D+00
 Symmetry B2   KE=-5.167337530176D+00
 Orbital energies and kinetic energies (alpha):
                                 1                 2
   1         (A1)--O          -1.469733         -1.249245
   2         (A1)--O          -1.164350         -1.012995
   3         (B2)--O          -1.041134         -0.937081
   4         (B2)--O          -0.791404         -0.690412
   5         (A1)--O          -0.778381         -0.712372
   6         (A1)--O          -0.673704         -0.604181
   7         (B1)--O          -0.579116         -0.470585
   8         (B2)--O          -0.553428         -0.506552
   9         (B2)--O          -0.503118         -0.449624
  10         (A1)--O          -0.500844         -0.415061
  11         (A1)--O          -0.494401         -0.432008
  12         (B1)--O          -0.385002         -0.342752
  13         (A2)--O          -0.342512         -0.322074
  14         (B1)--V           0.035962         -0.204745
  15         (A2)--V           0.069648         -0.202771
  16         (A1)--V           0.113137         -0.184431
  17         (B2)--V           0.152130         -0.228300
  18         (A1)--V           0.162622         -0.220116
  19         (B2)--V           0.163759         -0.199517
  20         (B2)--V           0.188809         -0.195245
  21         (A1)--V           0.190487         -0.211642
  22         (A1)--V           0.201312         -0.121973
  23         (B2)--V           0.219551         -0.123474
  24         (B2)--V           0.229017         -0.051105
 Total kinetic energy from orbitals=-1.628988187854D+01
 Leave Link  601 at Thu Jan  7 16:47:17 2016, MaxMem=    33554432 cpu:         0.0
 (Enter /opt/g09/g09/l701.exe)
 Compute integral first derivatives.
 ... and contract with generalized density number  6.
 Leave Link  701 at Thu Jan  7 16:47:17 2016, MaxMem=    33554432 cpu:         0.0
 (Enter /opt/g09/g09/l702.exe)
 L702 exits ... SP integral derivatives will be done elsewhere.
 Leave Link  702 at Thu Jan  7 16:47:17 2016, MaxMem=    33554432 cpu:         0.0
 (Enter /opt/g09/g09/l703.exe)
 Compute integral first derivatives, UseDBF=F ICtDFT=           0.
 Integral derivatives from FoFJK, PRISM(SPDF).
 Calling FoFJK, ICntrl=  10005127 FMM=F ISym2X=1 I1Cent= 0 IOpClX= 0 NMat=1 NMatS=1 NMatT=0.
 FoFJK:  IHMeth= 8 ICntrl=10005127 DoSepK=F KAlg= 0 I1Cent=   0 FoldK=F
 IRaf=         0 NMat=   1 IRICut=       1 DoRegI=T DoRafI=F ISym2E= 1.
 FoFCou: FMM=F IPFlag=           0 FMFlag=      100000 FMFlg1=         800
         NFxFlg=           0 DoJE=F BraDBF=F KetDBF=F FulRan=T
         wScrn=  0.000000 ICntrl=10005127 IOpCl=  0 I1Cent=           0 NGrid=           0
         NMat0=    1 NMatS0=      1 NMatT0=    0 NMatD0=    1 NMtDS0=    0 NMtDT0=    0
 Symmetry not used in FoFCou.
 Leave Link  703 at Thu Jan  7 16:47:17 2016, MaxMem=    33554432 cpu:         0.0
 (Enter /opt/g09/g09/l716.exe)
 Dipole        =-3.25805732D-16-3.10862447D-15-2.56914757D-01
 ***** Axes restored to original set *****
 -------------------------------------------------------------------
 Center     Atomic                   Forces (Hartrees/Bohr)
 Number     Number              X              Y              Z
 -------------------------------------------------------------------
      1        6           0.071532883    0.033437167    0.000000000
      2        6          -0.045687730   -0.031159024    0.000000000
      3        8          -0.054620154    0.000000000    0.000000000
      4        6          -0.045687730    0.031159024    0.000000000
      5        6           0.071532883   -0.033437167    0.000000000
      6        1           0.005028599    0.000099220    0.000000000
      7        1          -0.003563676    0.004532429    0.000000000
      8        1          -0.003563676   -0.004532429    0.000000000
      9        1           0.005028599   -0.000099220    0.000000000
 -------------------------------------------------------------------
 Cartesian Forces:  Max     0.071532883 RMS     0.028341137
 Z-matrix is all fixed cartesians, so copy forces.
 Force constants in Cartesian coordinates: 
                1             2             3             4             5 
      1  0.924213D+00
      2 -0.280496D-01  0.794695D+00
      3  0.000000D+00  0.000000D+00  0.206887D+00
      4 -0.512400D+00 -0.107252D+00  0.000000D+00  0.940723D+00
      5 -0.840374D-01 -0.216108D+00  0.000000D+00  0.222648D-01  0.891463D+00
      6  0.000000D+00  0.000000D+00 -0.105153D+00  0.000000D+00  0.000000D+00
      7 -0.847936D-02  0.292752D-01  0.000000D+00 -0.289302D+00  0.168432D+00
      8 -0.629794D-02  0.217438D-01  0.000000D+00  0.212644D+00 -0.374940D+00
      9  0.000000D+00  0.000000D+00  0.744560D-02  0.000000D+00  0.000000D+00
     10  0.100412D-01  0.000000D+00  0.000000D+00  0.243474D-01  0.180838D-01
     11  0.346676D-01  0.000000D+00  0.000000D+00 -0.180838D-01 -0.134315D-01
     12  0.000000D+00  0.000000D+00 -0.114437D-02  0.000000D+00  0.000000D+00
     13 -0.167385D+00  0.115645D-01  0.000000D+00  0.100412D-01 -0.346676D-01
     14 -0.115645D-01 -0.407138D+00  0.000000D+00  0.000000D+00  0.000000D+00
     15  0.000000D+00  0.000000D+00 -0.812287D-01  0.000000D+00  0.000000D+00
     16  0.176569D-01  0.000000D+00  0.000000D+00  0.000000D+00  0.000000D+00
     17 -0.231031D-01  0.000000D+00  0.000000D+00  0.000000D+00  0.000000D+00
     18  0.000000D+00  0.000000D+00  0.180027D-01  0.000000D+00  0.000000D+00
     19  0.000000D+00  0.000000D+00  0.000000D+00  0.000000D+00  0.000000D+00
     20  0.000000D+00  0.000000D+00  0.000000D+00  0.000000D+00  0.000000D+00
     21  0.000000D+00  0.000000D+00  0.703148D-02  0.000000D+00  0.000000D+00
     22  0.760156D-02 -0.262446D-01  0.000000D+00 -0.168217D+00 -0.108004D+00
     23 -0.394138D-02  0.136077D-01  0.000000D+00 -0.102778D+00 -0.310441D+00
     24  0.000000D+00  0.000000D+00  0.295845D-01  0.000000D+00  0.000000D+00
     25 -0.271249D+00  0.120707D+00  0.000000D+00 -0.519280D-02  0.179283D-01
     26  0.122326D+00 -0.206800D+00  0.000000D+00 -0.679449D-02  0.234582D-01
     27  0.000000D+00  0.000000D+00 -0.814255D-01  0.000000D+00  0.000000D+00
                6             7             8             9            10 
      6  0.197193D+00
      7  0.000000D+00  0.551909D+00
      8  0.000000D+00  0.000000D+00  0.723204D+00
      9 -0.472115D-01  0.000000D+00  0.000000D+00  0.567211D-01
     10  0.000000D+00 -0.289302D+00 -0.212644D+00  0.000000D+00  0.940723D+00
     11  0.000000D+00 -0.168432D+00 -0.374940D+00  0.000000D+00 -0.222648D-01
     12 -0.169673D-02  0.000000D+00  0.000000D+00 -0.472115D-01  0.000000D+00
     13  0.000000D+00 -0.847936D-02  0.629794D-02  0.000000D+00 -0.512400D+00
     14  0.000000D+00 -0.292752D-01  0.217438D-01  0.000000D+00  0.107252D+00
     15 -0.114437D-02  0.000000D+00  0.000000D+00  0.744560D-02  0.000000D+00
     16  0.000000D+00  0.000000D+00  0.000000D+00  0.000000D+00 -0.519280D-02
     17  0.000000D+00  0.000000D+00  0.000000D+00  0.000000D+00  0.679449D-02
     18  0.419500D-02  0.000000D+00  0.000000D+00  0.682264D-02  0.000000D+00
     19  0.000000D+00  0.218269D-01 -0.162117D-01  0.000000D+00 -0.168217D+00
     20  0.000000D+00  0.113172D-01 -0.840572D-02  0.000000D+00  0.102778D+00
     21  0.490261D-02  0.000000D+00  0.000000D+00  0.458270D-02  0.000000D+00
     22  0.000000D+00  0.218269D-01  0.162117D-01  0.000000D+00  0.000000D+00
     23  0.000000D+00 -0.113172D-01 -0.840572D-02  0.000000D+00  0.000000D+00
     24 -0.772883D-01  0.000000D+00  0.000000D+00  0.458270D-02  0.000000D+00
     25  0.000000D+00  0.000000D+00  0.000000D+00  0.000000D+00  0.000000D+00
     26  0.000000D+00  0.000000D+00  0.000000D+00  0.000000D+00  0.000000D+00
     27  0.262030D-01  0.000000D+00  0.000000D+00  0.682264D-02  0.000000D+00
               11            12            13            14            15 
     11  0.891463D+00
     12  0.000000D+00  0.197193D+00
     13  0.840374D-01  0.000000D+00  0.924213D+00
     14 -0.216108D+00  0.000000D+00  0.280496D-01  0.794695D+00
     15  0.000000D+00 -0.105153D+00  0.000000D+00  0.000000D+00  0.206887D+00
     16 -0.179283D-01  0.000000D+00 -0.271249D+00 -0.120707D+00  0.000000D+00
     17  0.234582D-01  0.000000D+00 -0.122326D+00 -0.206800D+00  0.000000D+00
     18  0.000000D+00  0.262030D-01  0.000000D+00  0.000000D+00 -0.814255D-01
     19  0.108004D+00  0.000000D+00  0.760156D-02  0.262446D-01  0.000000D+00
     20 -0.310441D+00  0.000000D+00  0.394138D-02  0.136077D-01  0.000000D+00
     21  0.000000D+00 -0.772883D-01  0.000000D+00  0.000000D+00  0.295845D-01
     22  0.000000D+00  0.000000D+00  0.000000D+00  0.000000D+00  0.000000D+00
     23  0.000000D+00  0.000000D+00  0.000000D+00  0.000000D+00  0.000000D+00
     24  0.000000D+00  0.490261D-02  0.000000D+00  0.000000D+00  0.703148D-02
     25  0.000000D+00  0.000000D+00  0.176569D-01  0.000000D+00  0.000000D+00
     26  0.000000D+00  0.000000D+00  0.231031D-01  0.000000D+00  0.000000D+00
     27  0.000000D+00  0.419500D-02  0.000000D+00  0.000000D+00  0.180027D-01
               16            17            18            19            20 
     16  0.258784D+00
     17  0.138635D+00  0.183342D+00
     18  0.000000D+00  0.000000D+00  0.437604D-01
     19  0.000000D+00  0.000000D+00  0.000000D+00  0.138789D+00
     20  0.000000D+00  0.000000D+00  0.000000D+00 -0.118037D+00  0.305239D+00
     21  0.000000D+00  0.000000D+00 -0.111742D-01  0.000000D+00  0.000000D+00
     22  0.000000D+00  0.000000D+00  0.000000D+00  0.000000D+00  0.000000D+00
     23  0.000000D+00  0.000000D+00  0.000000D+00  0.000000D+00  0.000000D+00
     24  0.000000D+00  0.000000D+00  0.000000D+00  0.000000D+00  0.000000D+00
     25  0.000000D+00  0.000000D+00  0.000000D+00  0.000000D+00  0.000000D+00
     26  0.000000D+00  0.000000D+00  0.000000D+00  0.000000D+00  0.000000D+00
     27  0.000000D+00  0.000000D+00 -0.638405D-02  0.000000D+00  0.000000D+00
               21            22            23            24            25 
     21  0.423613D-01
     22  0.000000D+00  0.138789D+00
     23  0.000000D+00  0.118037D+00  0.305239D+00
     24  0.000000D+00  0.000000D+00  0.000000D+00  0.423613D-01
     25  0.000000D+00  0.000000D+00  0.000000D+00  0.000000D+00  0.258784D+00
     26  0.000000D+00  0.000000D+00  0.000000D+00  0.000000D+00 -0.138635D+00
     27  0.000000D+00  0.000000D+00  0.000000D+00 -0.111742D-01  0.000000D+00
               26            27 
     26  0.183342D+00
     27  0.000000D+00  0.437604D-01
 Leave Link  716 at Thu Jan  7 16:47:17 2016, MaxMem=    33554432 cpu:         0.0
 (Enter /opt/g09/g09/l103.exe)

 GradGradGradGradGradGradGradGradGradGradGradGradGradGradGradGradGradGrad
 Berny optimization.
 Search for a local minimum.
 Step number   1 out of a maximum of    2
 All quantities printed in internal units (Hartrees-Bohrs-Radians)
 Second derivative matrix not updated -- first step.
 ITU=  0
     Eigenvalues ---    0.01909   0.03141   0.07126   0.07691   0.07808
     Eigenvalues ---    0.08747   0.13104   0.14637   0.16226   0.24533
     Eigenvalues ---    0.26538   0.31677   0.39564   0.44355   0.64083
     Eigenvalues ---    0.84260   1.09116   1.36585   1.42549   1.55968
     Eigenvalues ---    1.63590
 Angle between quadratic step and forces=  46.49 degrees.
 ClnCor:  largest displacement from symmetrization is 8.10D-15 for atom     9.
 Linear search not attempted -- first point.
 ClnCor:  largest displacement from symmetrization is 4.44D-16 for atom     5.
 TrRot= -0.012186  0.000000  0.000000  0.000000  0.000000  0.000000
 Variable       Old X    -DE/DX   Delta X   Delta X   Delta X     New X
                                 (Linear)    (Quad)   (Total)
    X1        1.80559   0.07153   0.00000   0.09527   0.08309   1.88867
    Y1       -1.35297   0.03344   0.00000   0.02115   0.02115  -1.33182
    Z1        0.00000   0.00000   0.00000   0.00000   0.00000   0.00000
    X2       -0.65314  -0.04569   0.00000  -0.04729  -0.05948  -0.71262
    Y2       -2.06513  -0.03116   0.00000  -0.00541  -0.00541  -2.07054
    Z2        0.00000   0.00000   0.00000   0.00000   0.00000   0.00000
    X3       -2.18699  -0.05462   0.00000  -0.14186  -0.15405  -2.34104
    Y3        0.00000   0.00000   0.00000   0.00000   0.00000   0.00000
    Z3        0.00000   0.00000   0.00000   0.00000   0.00000   0.00000
    X4       -0.65314  -0.04569   0.00000  -0.04729  -0.05948  -0.71262
    Y4        2.06513   0.03116   0.00000   0.00541   0.00541   2.07054
    Z4        0.00000   0.00000   0.00000   0.00000   0.00000   0.00000
    X5        1.80559   0.07153   0.00000   0.09527   0.08309   1.88867
    Y5        1.35297  -0.03344   0.00000  -0.02115  -0.02115   1.33182
    Z5        0.00000   0.00000   0.00000   0.00000   0.00000   0.00000
    X6        3.42123   0.00503   0.00000   0.12404   0.11185   3.53308
    Y6        2.58776   0.00010   0.00000  -0.04048  -0.04048   2.54728
    Z6        0.00000   0.00000   0.00000   0.00000   0.00000   0.00000
    X7       -1.58795  -0.00356   0.00000  -0.04625  -0.05843  -1.64638
    Y7        3.86805   0.00453   0.00000   0.02337   0.02337   3.89142
    Z7        0.00000   0.00000   0.00000   0.00000   0.00000   0.00000
    X8       -1.58795  -0.00356   0.00000  -0.04625  -0.05843  -1.64638
    Y8       -3.86805  -0.00453   0.00000  -0.02337  -0.02337  -3.89142
    Z8        0.00000   0.00000   0.00000   0.00000   0.00000   0.00000
    X9        3.42123   0.00503   0.00000   0.12404   0.11185   3.53308
    Y9       -2.58776  -0.00010   0.00000   0.04048   0.04048  -2.54728
    Z9        0.00000   0.00000   0.00000   0.00000   0.00000   0.00000
         Item               Value     Threshold  Converged?
 Maximum Force            0.071533     0.000450     NO 
 RMS     Force            0.028341     0.000300     NO 
 Maximum Displacement     0.154046     0.001800     NO 
 RMS     Displacement     0.055037     0.001200     NO 
 Predicted change in Energy=-1.461648D-02
 GradGradGradGradGradGradGradGradGradGradGradGradGradGradGradGradGradGrad

 Leave Link  103 at Thu Jan  7 16:47:17 2016, MaxMem=    33554432 cpu:         0.0
 (Enter /opt/g09/g09/l9999.exe)
 1\1\GINC-LINUX-CBNE\Force\RAM1-FC\STO-3G\C4H4O1\DUSTIN\07-Jan-2016\0\\
 #P AM1(Input,print) CIS(Singlets,NStates=15) pop(full) force\\AM1-Repa
 ram Input\\0,1\C,0.955475,-0.715963,0.\C,-0.345627,-1.092818,0.\O,-1.1
 57305,0.,0.\C,-0.345627,1.092818,0.\C,0.955475,0.715963,0.\H,1.810438,
 1.369382,0.\H,-0.840307,2.046884,0.\H,-0.840307,-2.046884,0.\H,1.81043
 8,-1.369382,0.\\Version=ES64L-G09RevD.01\State=1-A1\HF=-0.0096703\RMSD
 =5.527e-09\RMSF=2.834e-02\Dipole=0.2569148,0.,0.\PG=C02V [C2(O1),SGV(C
 4H4)]\\@


 ERWIN WITH HIS PSI CAN DO
 CALCULATIONS QUITE A FEW.
 BUT ONE THING HAS NOT BEEN SEEN
 JUST WHAT DOES PSI REALLY MEAN.
 -- WALTER HUCKEL, TRANS. BY FELIX BLOCH
 Job cpu time:       0 days  0 hours  0 minutes  0.3 seconds.
 File lengths (MBytes):  RWF=      7 Int=      0 D2E=      0 Chk=      2 Scr=      1
 Normal termination of Gaussian 09 at Thu Jan  7 16:47:17 2016.
