 Entering Gaussian System, Link 0=g09
 Input=FuranAM1_freq.com
 Output=FuranAM1_freq.log
 Initial command:
 /opt/g09/g09/l1.exe "/opt/g09/scratch/Gau-881.inp" -scrdir="/opt/g09/scratch/"
 Entering Link 1 = /opt/g09/g09/l1.exe PID=       882.
  
 Copyright (c) 1988,1990,1992,1993,1995,1998,2003,2009,2013,
            Gaussian, Inc.  All Rights Reserved.
  
 This is part of the Gaussian(R) 09 program.  It is based on
 the Gaussian(R) 03 system (copyright 2003, Gaussian, Inc.),
 the Gaussian(R) 98 system (copyright 1998, Gaussian, Inc.),
 the Gaussian(R) 94 system (copyright 1995, Gaussian, Inc.),
 the Gaussian 92(TM) system (copyright 1992, Gaussian, Inc.),
 the Gaussian 90(TM) system (copyright 1990, Gaussian, Inc.),
 the Gaussian 88(TM) system (copyright 1988, Gaussian, Inc.),
 the Gaussian 86(TM) system (copyright 1986, Carnegie Mellon
 University), and the Gaussian 82(TM) system (copyright 1983,
 Carnegie Mellon University). Gaussian is a federally registered
 trademark of Gaussian, Inc.
  
 This software contains proprietary and confidential information,
 including trade secrets, belonging to Gaussian, Inc.
  
 This software is provided under written license and may be
 used, copied, transmitted, or stored only in accord with that
 written license.
  
 The following legend is applicable only to US Government
 contracts under FAR:
  
                    RESTRICTED RIGHTS LEGEND
  
 Use, reproduction and disclosure by the US Government is
 subject to restrictions as set forth in subparagraphs (a)
 and (c) of the Commercial Computer Software - Restricted
 Rights clause in FAR 52.227-19.
  
 Gaussian, Inc.
 340 Quinnipiac St., Bldg. 40, Wallingford CT 06492
  
  
 ---------------------------------------------------------------
 Warning -- This program may not be used in any manner that
 competes with the business of Gaussian, Inc. or will provide
 assistance to any competitor of Gaussian, Inc.  The licensee
 of this program is prohibited from giving any competitor of
 Gaussian, Inc. access to this program.  By using this program,
 the user acknowledges that Gaussian, Inc. is engaged in the
 business of creating and licensing software in the field of
 computational chemistry and represents and warrants to the
 licensee that it is not a competitor of Gaussian, Inc. and that
 it will not use this program in any manner prohibited above.
 ---------------------------------------------------------------
  

 Cite this work as:
 Gaussian 09, Revision D.01,
 M. J. Frisch, G. W. Trucks, H. B. Schlegel, G. E. Scuseria, 
 M. A. Robb, J. R. Cheeseman, G. Scalmani, V. Barone, B. Mennucci, 
 G. A. Petersson, H. Nakatsuji, M. Caricato, X. Li, H. P. Hratchian, 
 A. F. Izmaylov, J. Bloino, G. Zheng, J. L. Sonnenberg, M. Hada, 
 M. Ehara, K. Toyota, R. Fukuda, J. Hasegawa, M. Ishida, T. Nakajima, 
 Y. Honda, O. Kitao, H. Nakai, T. Vreven, J. A. Montgomery, Jr., 
 J. E. Peralta, F. Ogliaro, M. Bearpark, J. J. Heyd, E. Brothers, 
 K. N. Kudin, V. N. Staroverov, T. Keith, R. Kobayashi, J. Normand, 
 K. Raghavachari, A. Rendell, J. C. Burant, S. S. Iyengar, J. Tomasi, 
 M. Cossi, N. Rega, J. M. Millam, M. Klene, J. E. Knox, J. B. Cross, 
 V. Bakken, C. Adamo, J. Jaramillo, R. Gomperts, R. E. Stratmann, 
 O. Yazyev, A. J. Austin, R. Cammi, C. Pomelli, J. W. Ochterski, 
 R. L. Martin, K. Morokuma, V. G. Zakrzewski, G. A. Voth, 
 P. Salvador, J. J. Dannenberg, S. Dapprich, A. D. Daniels, 
 O. Farkas, J. B. Foresman, J. V. Ortiz, J. Cioslowski, 
 and D. J. Fox, Gaussian, Inc., Wallingford CT, 2013.
 
 ******************************************
 Gaussian 09:  ES64L-G09RevD.01 24-Apr-2013
                10-Jan-2016 
 ******************************************
 ------------------------
 #P AM1(Input,print) Freq
 ------------------------
 1/10=4,30=1,38=1/1,3;
 2/12=2,17=6,18=5,40=1/2;
 3/5=2,16=1,25=1,41=700000,71=2,135=100,136=1,140=1/1,2,3;
 4/35=1/1;
 5/5=2,35=1,38=5,98=1/2;
 8/6=4,10=90,11=11/1;
 11/6=1,8=1,9=11,15=111,16=1/1,2,10;
 10/6=1/2;
 6/7=2,8=2,9=2,10=2,18=1,28=1/1;
 7/8=1,10=1,25=1/1,2,3,16;
 1/10=4,30=1/3;
 99//99;
 Leave Link    1 at Sun Jan 10 14:42:37 2016, MaxMem=           0 cpu:         0.0
 (Enter /opt/g09/g09/l101.exe)
 -----------------
 Furan freq at AM1
 -----------------
 Symbolic Z-matrix:
 Charge =  0 Multiplicity = 1
 6                     0.95548  -0.71596   0. 
 6                    -0.34563  -1.09282   0. 
 8                    -1.15731   0.        0. 
 6                    -0.34563   1.09282   0. 
 6                     0.95548   0.71596   0. 
 1                     1.81044   1.36938   0. 
 1                    -0.84031   2.04688   0. 
 1                    -0.84031  -2.04688   0. 
 1                     1.81044  -1.36938   0. 
 
 NAtoms=      9 NQM=        9 NQMF=       0 NMMI=      0 NMMIF=      0
                NMic=       0 NMicF=      0.
                    Isotopes and Nuclear Properties:
 (Nuclear quadrupole moments (NQMom) in fm**2, nuclear magnetic moments (NMagM)
  in nuclear magnetons)

  Atom         1           2           3           4           5           6           7           8           9
 IAtWgt=          12          12          16          12          12           1           1           1           1
 AtmWgt=  12.0000000  12.0000000  15.9949146  12.0000000  12.0000000   1.0078250   1.0078250   1.0078250   1.0078250
 NucSpn=           0           0           0           0           0           1           1           1           1
 AtZEff=   0.0000000   0.0000000   0.0000000   0.0000000   0.0000000   0.0000000   0.0000000   0.0000000   0.0000000
 NQMom=    0.0000000   0.0000000   0.0000000   0.0000000   0.0000000   0.0000000   0.0000000   0.0000000   0.0000000
 NMagM=    0.0000000   0.0000000   0.0000000   0.0000000   0.0000000   2.7928460   2.7928460   2.7928460   2.7928460
 AtZNuc=   6.0000000   6.0000000   8.0000000   6.0000000   6.0000000   1.0000000   1.0000000   1.0000000   1.0000000
 Leave Link  101 at Sun Jan 10 14:42:37 2016, MaxMem=    33554432 cpu:         0.0
 (Enter /opt/g09/g09/l103.exe)

 GradGradGradGradGradGradGradGradGradGradGradGradGradGradGradGradGradGrad
 Berny optimization.
 Initialization pass.
 Trust Radius=3.00D-01 FncErr=1.00D-07 GrdErr=1.00D-07
 Number of steps in this run=      2 maximum allowed number of steps=      2.
 GradGradGradGradGradGradGradGradGradGradGradGradGradGradGradGradGradGrad

 Leave Link  103 at Sun Jan 10 14:42:37 2016, MaxMem=    33554432 cpu:         0.0
 (Enter /opt/g09/g09/l202.exe)
                          Input orientation:                          
 ---------------------------------------------------------------------
 Center     Atomic      Atomic             Coordinates (Angstroms)
 Number     Number       Type             X           Y           Z
 ---------------------------------------------------------------------
      1          6           0        0.955475   -0.715963    0.000000
      2          6           0       -0.345627   -1.092818    0.000000
      3          8           0       -1.157305    0.000000    0.000000
      4          6           0       -0.345627    1.092818    0.000000
      5          6           0        0.955475    0.715963    0.000000
      6          1           0        1.810438    1.369382    0.000000
      7          1           0       -0.840307    2.046884    0.000000
      8          1           0       -0.840307   -2.046884    0.000000
      9          1           0        1.810438   -1.369382    0.000000
 ---------------------------------------------------------------------
                    Distance matrix (angstroms):
                    1          2          3          4          5
     1  C    0.000000
     2  C    1.354580   0.000000
     3  O    2.230794   1.361276   0.000000
     4  C    2.228128   2.185636   1.361276   0.000000
     5  C    1.431926   2.228128   2.230794   1.354580   0.000000
     6  H    2.253802   3.272773   3.268441   2.173730   1.076066
     7  H    3.295172   3.178433   2.071285   1.074686   2.235214
     8  H    2.235214   1.074686   2.071285   3.178433   3.295172
     9  H    1.076066   2.173730   3.268441   3.272773   2.253802
                    6          7          8          9
     6  H    0.000000
     7  H    2.735957   0.000000
     8  H    4.324040   4.093768   0.000000
     9  H    2.738764   4.324040   2.735957   0.000000
 Stoichiometry    C4H4O
 Framework group  C2V[C2(O),SGV(C4H4)]
 Deg. of freedom     8
 Full point group                 C2V     NOp   4
 Largest Abelian subgroup         C2V     NOp   4
 Largest concise Abelian subgroup C2      NOp   2
                         Standard orientation:                         
 ---------------------------------------------------------------------
 Center     Atomic      Atomic             Coordinates (Angstroms)
 Number     Number       Type             X           Y           Z
 ---------------------------------------------------------------------
      1          6           0        0.000000    0.715963   -0.955475
      2          6           0        0.000000    1.092818    0.345627
      3          8           0        0.000000    0.000000    1.157305
      4          6           0        0.000000   -1.092818    0.345627
      5          6           0        0.000000   -0.715963   -0.955475
      6          1           0        0.000000   -1.369382   -1.810438
      7          1           0        0.000000   -2.046884    0.840307
      8          1           0        0.000000    2.046884    0.840307
      9          1           0        0.000000    1.369382   -1.810438
 ---------------------------------------------------------------------
 Rotational constants (GHZ):      9.5015164      9.3284592      4.7070963
 Leave Link  202 at Sun Jan 10 14:42:37 2016, MaxMem=    33554432 cpu:         0.0
 (Enter /opt/g09/g09/l301.exe)

 Semi-emprical parameters in input format:
 Method=8 CoreType=1 PeptideFC=0.0113500000 RIJScale=0.4540090000
 ****
 H       
 PQN=1 NValence=1 F0ss=0.3850620000 ZetaOverlap=1.1880780000 U=-0.3976450000
 Beta=-0.2268830000 CoreKO=1.1295100000 KON=0,0,0,1.1873090000 KON=1,0,1,1.0589200000
 KON=0,1,1,1.1480630000 KON=2,1,1,1.0589200000 EISol=-0.4188110000 EHeat=0.0830298228
 Alpha=1.5252600000
 GCore=0.0085280000,1.7475780000,2.2676710000
 GCore=0.0003530000,1.3477920000,3.4015070000
 GCore=-0.0014080000,0.5600570000,3.9684250000
 ****
 C       
 PQN=2,2 NValence=4 F0ss=0.4355640000 F0sp=0.4215150000 F0pp=0.3768030000 F2pp=0.1898720000
 G1sp=0.2679030000
 ZetaOverlap=1.9477560000,1.6851160000
 U=-1.8315590000,-1.4557970000
 Beta=-0.5775440000,-0.2836780000 DDN=0,1,0.8236740000 DDN=1,1,0.7637030000
 CoreKO=1.1124280000 KON=0,0,0,1.0346010000 KON=1,0,1,0.8219700000 KON=0,1,1,1.1124280000
 KON=2,1,1,0.7783930000 EISol=-4.4398990000 EHeat=0.2723305520 Alpha=1.4014060000
 DipHyp=1.6472532266
 GCore=0.0007920000,1.4001430000,3.0235620000
 GCore=0.0031890000,1.3533880000,3.2542080000
 GCore=-0.0013930000,1.4001430000,3.8060660000
 GCore=-0.0000880000,1.4964390000,5.0077740000
 ****
 O       
 PQN=2,2 NValence=6 F0ss=0.6444150000 F0sp=0.5306620000 F0pp=0.4958710000 F2pp=0.2405590000
 G1sp=0.4308560000
 ZetaOverlap=4.0030490000,2.5183160000
 U=-3.6543820000,-2.9430660000
 Beta=-1.1722050000,-1.0757550000 DDN=0,1,0.4988900000 DDN=1,1,0.4852320000
 CoreKO=0.8801330000 KON=0,0,0,0.8987620000 KON=1,0,1,0.5019540000 KON=0,1,1,0.8822960000
 KON=2,1,1,0.5515580000 EISol=-11.6164440000 EHeat=0.0949133088 Alpha=2.3576810000
 DipHyp=0.9977225968
 GCore=0.0195120000,1.4001430000,1.5332710000
 GCore=0.0054260000,1.9833310000,2.7307880000
 ****
 
 Standard basis: VSTO-6G (5D, 7F)
 Ernie: Thresh=  0.10000D-02 Tol=  0.10000D-05 Strict=F.
  NNHCO=     0 NNPyr=     0 NCTC=     0               EPep=         0.000000000
    EC=        68.649897600  ECS=         1.826031257   EG=         0.350646519
   EHC=         0.000000000  EAt=       -31.051284000  AtH=         1.516354808
 EPDDG=         0.000000000  ECC=        70.826575375 EAtT=        32.567638808
 There are    10 symmetry adapted cartesian basis functions of A1  symmetry.
 There are     2 symmetry adapted cartesian basis functions of A2  symmetry.
 There are     3 symmetry adapted cartesian basis functions of B1  symmetry.
 There are     9 symmetry adapted cartesian basis functions of B2  symmetry.
 There are    10 symmetry adapted basis functions of A1  symmetry.
 There are     2 symmetry adapted basis functions of A2  symmetry.
 There are     3 symmetry adapted basis functions of B1  symmetry.
 There are     9 symmetry adapted basis functions of B2  symmetry.
    24 basis functions,   144 primitive gaussians,    24 cartesian basis functions
    13 alpha electrons       13 beta electrons
       nuclear repulsion energy       103.3942141831 Hartrees.
 IExCor=    0 DFT=F Ex=HF Corr=None ExCW=0 ScaHFX=  1.000000
 ScaDFX=  1.000000  1.000000  1.000000  1.000000 ScalE2=  1.000000  1.000000
 IRadAn=      0 IRanWt=     -1 IRanGd=            0 ICorTp=0 IEmpDi=  4
 Integral buffers will be    131072 words long.
 Regular integral format.
 Two-electron integral symmetry is turned off.
 Leave Link  301 at Sun Jan 10 14:42:37 2016, MaxMem=    33554432 cpu:         0.0
 (Enter /opt/g09/g09/l302.exe)
 Do NDO integrals.
 NPDir=0 NMtPBC=     1 NCelOv=     1 NCel=       1 NClECP=     1 NCelD=      1
         NCelK=      1 NCelE2=     1 NClLst=     1 CellRange=     0.0.
 One-electron integrals computed using PRISM.
 NBasis=    24 RedAO= T EigKep=  1.00D+00  NBF=    10     2     3     9
 NBsUse=    24 1.00D-06 EigRej= -1.00D+00 NBFU=    10     2     3     9
 Leave Link  302 at Sun Jan 10 14:42:37 2016, MaxMem=    33554432 cpu:         0.0
 (Enter /opt/g09/g09/l303.exe)
 DipDrv:  MaxL=1.
 Leave Link  303 at Sun Jan 10 14:42:37 2016, MaxMem=    33554432 cpu:         0.0
 (Enter /opt/g09/g09/l401.exe)
 Simple Huckel Guess.
 JPrj=0 DoOrth=F DoCkMO=F.
 Initial guess orbital symmetries:
       Occupied  (A1) (A1) (B2) (B2) (A1) (A1) (B1) (B2) (A1) (B2)
                 (A1) (B1) (A2)
       Virtual   (B1) (A2) (B2) (B2) (A1) (A1) (B2) (B2) (A1) (A1)
                 (B2)
 The electronic state of the initial guess is 1-A1.
 Leave Link  401 at Sun Jan 10 14:42:37 2016, MaxMem=    33554432 cpu:         0.0
 (Enter /opt/g09/g09/l502.exe)
 Closed shell SCF:
 Using DIIS extrapolation, IDIIS=  1040.
 Overlap will be assumed to be unity.
 Two-electron integral symmetry not used.
 Keep J ints in memory in canonical form, NReq=888094.
 IVT=       79487 IEndB=       79487 NGot=    33554432 MDV=    33473461
 LenX=    33473461 LenY=    33472444
 Requested convergence on RMS density matrix=1.00D-08 within 128 cycles.
 Requested convergence on MAX density matrix=1.00D-06.
 Requested convergence on             energy=1.00D-06.
 No special actions if energy rises.
 FoFCou: FMM=F IPFlag=           0 FMFlag=           0 FMFlg1=           0
         NFxFlg=           0 DoJE=F BraDBF=F KetDBF=F FulRan=T
         wScrn=  0.000000 ICntrl=     600 IOpCl=  2 I1Cent=           0 NGrid=           0
         NMat0=    1 NMatS0=     54 NMatT0=    0 NMatD0=    1 NMtDS0=    0 NMtDT0=    0
 Symmetry not used in FoFCou.

 Cycle   1  Pass 1  IDiag  1:
 E= 0.507591958896299    
 DIIS: error= 6.09D-02 at cycle   1 NSaved=   1.
 NSaved= 1 IEnMin= 1 EnMin= 0.507591958896299     IErMin= 1 ErrMin= 6.09D-02
 ErrMax= 6.09D-02  0.00D+00 EMaxC= 1.00D-01 BMatC= 1.02D-01 BMatP= 1.02D-01
 IDIUse=3 WtCom= 3.91D-01 WtEn= 6.09D-01
 Coeff-Com:  0.100D+01
 Coeff-En:   0.100D+01
 Coeff:      0.100D+01
 GapD=    2.000 DampG=2.000 DampE=0.500 DampFc=1.0000 IDamp=-1.
 RMSDP=1.92D-02 MaxDP=1.88D-01              OVMax= 0.00D+00

 Cycle   2  Pass 1  IDiag  1:
 E= 0.241403259268978     Delta-E=       -0.266188699627 Rises=F Damp=F
 DIIS: error= 2.12D-02 at cycle   2 NSaved=   2.
 NSaved= 2 IEnMin= 2 EnMin= 0.241403259268978     IErMin= 2 ErrMin= 2.12D-02
 ErrMax= 2.12D-02  0.00D+00 EMaxC= 1.00D-01 BMatC= 8.93D-03 BMatP= 1.02D-01
 IDIUse=3 WtCom= 7.88D-01 WtEn= 2.12D-01
 Coeff-Com: -0.348D+00 0.135D+01
 Coeff-En:   0.000D+00 0.100D+01
 Coeff:     -0.274D+00 0.127D+01
 RMSDP=7.95D-03 MaxDP=7.66D-02 DE=-2.66D-01 OVMax= 0.00D+00

 Cycle   3  Pass 1  IDiag  1:
 E= 0.212332777443280     Delta-E=       -0.029070481826 Rises=F Damp=F
 DIIS: error= 3.37D-03 at cycle   3 NSaved=   3.
 NSaved= 3 IEnMin= 3 EnMin= 0.212332777443280     IErMin= 3 ErrMin= 3.37D-03
 ErrMax= 3.37D-03  0.00D+00 EMaxC= 1.00D-01 BMatC= 3.90D-04 BMatP= 8.93D-03
 IDIUse=3 WtCom= 9.66D-01 WtEn= 3.37D-02
 Coeff-Com:  0.733D-01-0.389D+00 0.132D+01
 Coeff-En:   0.000D+00 0.000D+00 0.100D+01
 Coeff:      0.708D-01-0.376D+00 0.130D+01
 RMSDP=2.34D-03 MaxDP=2.76D-02 DE=-2.91D-02 OVMax= 0.00D+00

 Cycle   4  Pass 1  IDiag  3:
 E= 0.210337599862811     Delta-E=       -0.001995177580 Rises=F Damp=F
 DIIS: error= 1.25D-03 at cycle   4 NSaved=   4.
 NSaved= 4 IEnMin= 4 EnMin= 0.210337599862811     IErMin= 4 ErrMin= 1.25D-03
 ErrMax= 1.25D-03  0.00D+00 EMaxC= 1.00D-01 BMatC= 3.81D-05 BMatP= 3.90D-04
 IDIUse=3 WtCom= 9.88D-01 WtEn= 1.25D-02
 Coeff-Com:  0.193D-01-0.538D-01-0.323D+00 0.136D+01
 Coeff-En:   0.000D+00 0.000D+00 0.000D+00 0.100D+01
 Coeff:      0.191D-01-0.532D-01-0.318D+00 0.135D+01
 Fock symm off for IB=2 I1=    1 I=   11 J=    6 Cut=1.00D-07 Err=2.18D-03
 Fock matrix is not symmetric: symmetry in diagonalization turned off.
 Gap=     0.374 Goal=   None    Shift=    0.000
 RMSDP=9.97D-04 MaxDP=1.22D-02 DE=-2.00D-03 OVMax= 1.32D-02

 Cycle   5  Pass 1  IDiag  3:
 E= 0.210101872345305     Delta-E=       -0.000235727518 Rises=F Damp=F
 DIIS: error= 2.05D-04 at cycle   5 NSaved=   5.
 NSaved= 5 IEnMin= 5 EnMin= 0.210101872345305     IErMin= 5 ErrMin= 2.05D-04
 ErrMax= 2.05D-04  0.00D+00 EMaxC= 1.00D-01 BMatC= 1.61D-06 BMatP= 3.81D-05
 IDIUse=3 WtCom= 9.98D-01 WtEn= 2.05D-03
 Coeff-Com: -0.819D-02 0.243D-01 0.115D+00-0.618D+00 0.149D+01
 Coeff-En:   0.000D+00 0.000D+00 0.000D+00 0.000D+00 0.100D+01
 Coeff:     -0.817D-02 0.243D-01 0.114D+00-0.616D+00 0.149D+01
 Gap=     0.374 Goal=   None    Shift=    0.000
 RMSDP=2.36D-04 MaxDP=1.74D-03 DE=-2.36D-04 OVMax= 2.53D-03

 Cycle   6  Pass 1  IDiag  3:
 E= 0.210089797228946     Delta-E=       -0.000012075116 Rises=F Damp=F
 DIIS: error= 9.21D-05 at cycle   6 NSaved=   6.
 NSaved= 6 IEnMin= 6 EnMin= 0.210089797228946     IErMin= 6 ErrMin= 9.21D-05
 ErrMax= 9.21D-05  0.00D+00 EMaxC= 1.00D-01 BMatC= 1.32D-07 BMatP= 1.61D-06
 IDIUse=1 WtCom= 1.00D+00 WtEn= 0.00D+00
 Coeff-Com:  0.179D-02-0.413D-02-0.323D-01 0.172D+00-0.616D+00 0.148D+01
 Coeff:      0.179D-02-0.413D-02-0.323D-01 0.172D+00-0.616D+00 0.148D+01
 Gap=     0.374 Goal=   None    Shift=    0.000
 RMSDP=8.10D-05 MaxDP=7.46D-04 DE=-1.21D-05 OVMax= 1.09D-03

 Cycle   7  Pass 1  IDiag  3:
 E= 0.210088579733949     Delta-E=       -0.000001217495 Rises=F Damp=F
 DIIS: error= 3.03D-05 at cycle   7 NSaved=   7.
 NSaved= 7 IEnMin= 7 EnMin= 0.210088579733949     IErMin= 7 ErrMin= 3.03D-05
 ErrMax= 3.03D-05  0.00D+00 EMaxC= 1.00D-01 BMatC= 1.16D-08 BMatP= 1.32D-07
 IDIUse=1 WtCom= 1.00D+00 WtEn= 0.00D+00
 Coeff-Com: -0.560D-04-0.863D-03 0.741D-02-0.298D-01 0.149D+00-0.673D+00
 Coeff-Com:  0.155D+01
 Coeff:     -0.560D-04-0.863D-03 0.741D-02-0.298D-01 0.149D+00-0.673D+00
 Coeff:      0.155D+01
 Gap=     0.375 Goal=   None    Shift=    0.000
 RMSDP=2.86D-05 MaxDP=2.85D-04 DE=-1.22D-06 OVMax= 3.38D-04

 Cycle   8  Pass 1  IDiag  3:
 E= 0.210088468853925     Delta-E=       -0.000000110880 Rises=F Damp=F
 DIIS: error= 4.33D-06 at cycle   8 NSaved=   8.
 NSaved= 8 IEnMin= 8 EnMin= 0.210088468853925     IErMin= 8 ErrMin= 4.33D-06
 ErrMax= 4.33D-06  0.00D+00 EMaxC= 1.00D-01 BMatC= 3.69D-10 BMatP= 1.16D-08
 IDIUse=1 WtCom= 1.00D+00 WtEn= 0.00D+00
 Coeff-Com: -0.597D-04 0.704D-03-0.313D-02 0.984D-02-0.497D-01 0.257D+00
 Coeff-Com: -0.713D+00 0.150D+01
 Coeff:     -0.597D-04 0.704D-03-0.313D-02 0.984D-02-0.497D-01 0.257D+00
 Coeff:     -0.713D+00 0.150D+01
 Gap=     0.375 Goal=   None    Shift=    0.000
 RMSDP=4.24D-06 MaxDP=4.09D-05 DE=-1.11D-07 OVMax= 5.59D-05

 Cycle   9  Pass 1  IDiag  3:
 E= 0.210088466103457     Delta-E=       -0.000000002750 Rises=F Damp=F
 DIIS: error= 5.21D-07 at cycle   9 NSaved=   9.
 NSaved= 9 IEnMin= 9 EnMin= 0.210088466103457     IErMin= 9 ErrMin= 5.21D-07
 ErrMax= 5.21D-07  0.00D+00 EMaxC= 1.00D-01 BMatC= 1.16D-11 BMatP= 3.69D-10
 IDIUse=1 WtCom= 1.00D+00 WtEn= 0.00D+00
 Coeff-Com:  0.352D-04-0.344D-03 0.124D-02-0.360D-02 0.194D-01-0.110D+00
 Coeff-Com:  0.318D+00-0.746D+00 0.152D+01
 Coeff:      0.352D-04-0.344D-03 0.124D-02-0.360D-02 0.194D-01-0.110D+00
 Coeff:      0.318D+00-0.746D+00 0.152D+01
 Gap=     0.375 Goal=   None    Shift=    0.000
 RMSDP=6.33D-07 MaxDP=5.12D-06 DE=-2.75D-09 OVMax= 8.47D-06

 Cycle  10  Pass 1  IDiag  3:
 E= 0.210088466033866     Delta-E=       -0.000000000070 Rises=F Damp=F
 DIIS: error= 8.14D-08 at cycle  10 NSaved=  10.
 NSaved=10 IEnMin=10 EnMin= 0.210088466033866     IErMin=10 ErrMin= 8.14D-08
 ErrMax= 8.14D-08  0.00D+00 EMaxC= 1.00D-01 BMatC= 4.04D-13 BMatP= 1.16D-11
 IDIUse=1 WtCom= 1.00D+00 WtEn= 0.00D+00
 Coeff-Com: -0.106D-04 0.101D-03-0.340D-03 0.965D-03-0.493D-02 0.291D-01
 Coeff-Com: -0.858D-01 0.203D+00-0.517D+00 0.137D+01
 Coeff:     -0.106D-04 0.101D-03-0.340D-03 0.965D-03-0.493D-02 0.291D-01
 Coeff:     -0.858D-01 0.203D+00-0.517D+00 0.137D+01
 Gap=     0.375 Goal=   None    Shift=    0.000
 RMSDP=1.00D-07 MaxDP=7.82D-07 DE=-6.96D-11 OVMax= 8.27D-07

 Cycle  11  Pass 1  IDiag  3:
 E= 0.210088466031763     Delta-E=       -0.000000000002 Rises=F Damp=F
 DIIS: error= 1.74D-08 at cycle  11 NSaved=  11.
 NSaved=11 IEnMin=11 EnMin= 0.210088466031763     IErMin=11 ErrMin= 1.74D-08
 ErrMax= 1.74D-08  0.00D+00 EMaxC= 1.00D-01 BMatC= 1.84D-14 BMatP= 4.04D-13
 IDIUse=1 WtCom= 1.00D+00 WtEn= 0.00D+00
 Coeff-Com:  0.156D-05-0.143D-04 0.397D-04-0.106D-03 0.493D-03-0.343D-02
 Coeff-Com:  0.105D-01-0.233D-01 0.716D-01-0.357D+00 0.130D+01
 Coeff:      0.156D-05-0.143D-04 0.397D-04-0.106D-03 0.493D-03-0.343D-02
 Coeff:      0.105D-01-0.233D-01 0.716D-01-0.357D+00 0.130D+01
 Gap=     0.375 Goal=   None    Shift=    0.000
 RMSDP=1.98D-08 MaxDP=1.44D-07 DE=-2.10D-12 OVMax= 1.44D-07

 Cycle  12  Pass 1  IDiag  3:
 E= 0.210088466031777     Delta-E=        0.000000000000 Rises=F Damp=F
 DIIS: error= 3.08D-09 at cycle  12 NSaved=  12.
 NSaved=12 IEnMin=11 EnMin= 0.210088466031763     IErMin=12 ErrMin= 3.08D-09
 ErrMax= 3.08D-09  0.00D+00 EMaxC= 1.00D-01 BMatC= 7.56D-16 BMatP= 1.84D-14
 IDIUse=1 WtCom= 1.00D+00 WtEn= 0.00D+00
 Coeff-Com: -0.996D-07 0.796D-06 0.110D-05-0.573D-05 0.578D-04-0.104D-03
 Coeff-Com:  0.154D-03-0.110D-02-0.314D-02 0.770D-01-0.515D+00 0.144D+01
 Coeff:     -0.996D-07 0.796D-06 0.110D-05-0.573D-05 0.578D-04-0.104D-03
 Coeff:      0.154D-03-0.110D-02-0.314D-02 0.770D-01-0.515D+00 0.144D+01
 Gap=     0.375 Goal=   None    Shift=    0.000
 RMSDP=3.90D-09 MaxDP=2.28D-08 DE= 1.42D-14 OVMax= 2.42D-08

 Cycle  13  Pass 2  IDiag  1:
 SCF Done:  E(RAM1) =  0.210088466032     A.U. after   13 cycles
            NFock= 12  Conv=0.39D-08     -V/T= 1.0129
 KE=-1.628226590831D+01 PE=-1.709839420808D+02 EE= 8.408208227198D+01
 Leave Link  502 at Sun Jan 10 14:42:37 2016, MaxMem=    33554432 cpu:         0.0
 (Enter /opt/g09/g09/l801.exe)
 Range of M.O.s used for correlation:     1    24
 NBasis=    24 NAE=    13 NBE=    13 NFC=     0 NFV=     0
 NROrb=     24 NOA=    13 NOB=    13 NVA=    11 NVB=    11
 Leave Link  801 at Sun Jan 10 14:42:37 2016, MaxMem=    33554432 cpu:         0.0
 (Enter /opt/g09/g09/l1101.exe)
 Using compressed storage, NAtomX=     9.
 Will process     10 centers per pass.
 Leave Link 1101 at Sun Jan 10 14:42:37 2016, MaxMem=    33554432 cpu:         0.0
 (Enter /opt/g09/g09/l1102.exe)
 Symmetrizing basis deriv contribution to polar:
 IMax=3 JMax=2 DiffMx= 0.00D+00
 Leave Link 1102 at Sun Jan 10 14:42:37 2016, MaxMem=    33554432 cpu:         0.0
 (Enter /opt/g09/g09/l1110.exe)
 Forming Gx(P) for the SCF density, NAtomX=     9.
 Integral derivatives from FoFJK, PRISM(SPDF).
 Do as many integral derivatives as possible in FoFJK.
 G2DrvN: MDV=      33495365.
 G2DrvN: will do    10 centers at a time, making    1 passes.
 Calling FoFCou, ICntrl=  3107 FMM=F I1Cent=   0 AccDes= 0.00D+00.
 FoFJK:  IHMeth= 8 ICntrl=    3107 DoSepK=F KAlg= 0 I1Cent=   0 FoldK=F
 IRaf=         0 NMat=   1 IRICut=       1 DoRegI=T DoRafI=F ISym2E= 0.
 FoFCou: FMM=F IPFlag=           0 FMFlag=      100000 FMFlg1=           0
         NFxFlg=           0 DoJE=F BraDBF=F KetDBF=F FulRan=T
         wScrn=  0.000000 ICntrl=    3107 IOpCl=  0 I1Cent=           0 NGrid=           0
         NMat0=    1 NMatS0=      1 NMatT0=    0 NMatD0=    1 NMtDS0=    0 NMtDT0=    0
 Symmetry not used in FoFCou.
 End of G2Drv F.D. properties file   721 does not exist.
 End of G2Drv F.D. properties file   722 does not exist.
 End of G2Drv F.D. properties file   788 does not exist.
 Leave Link 1110 at Sun Jan 10 14:42:37 2016, MaxMem=    33554432 cpu:         0.0
 (Enter /opt/g09/g09/l1002.exe)
 Minotr:  Closed shell wavefunction.
          IDoAtm=111111111
          Direct CPHF calculation.
          Differentiating once with respect to electric field.
                with respect to dipole field.
          Differentiating once with respect to nuclear coordinates.
          Electric field/nuclear overlap derivatives assumed to be zero.
          Using symmetry in CPHF.
          Requested convergence is 1.0D-08 RMS, and 1.0D-07 maximum.
          NewPWx=T KeepS1=F KeepF1=F KeepIn=T MapXYZ=F SortEE=F KeepMc=T.
          MDV=      33495423 using IRadAn=       2.
 Keep J ints in memory in canonical form, NReq=871758.
 FoFCou: FMM=F IPFlag=           0 FMFlag=           0 FMFlg1=           0
         NFxFlg=           0 DoJE=F BraDBF=F KetDBF=F FulRan=T
         wScrn=  0.000000 ICntrl=     600 IOpCl=  2 I1Cent=           0 NGrid=           0
         NMat0=    1 NMatS0=     54 NMatT0=    0 NMatD0=    1 NMtDS0=    0 NMtDT0=    0
 Symmetry not used in FoFCou.
          Solving linear equations separately, MaxMat=       0.
          There are    18 degrees of freedom in the 1st order CPHF.  IDoFFX=4 NUNeed=    18.
 LinEq1:  Iter=  0 NonCon=    18 RMS=3.81D-01 Max=2.81D+00 NDo=    18
 AX will form    18 AO Fock derivatives at one time.
 LinEq1:  Iter=  1 NonCon=    18 RMS=6.04D-02 Max=2.95D-01 NDo=    18
 LinEq1:  Iter=  2 NonCon=    18 RMS=4.69D-03 Max=2.85D-02 NDo=    18
 LinEq1:  Iter=  3 NonCon=    18 RMS=5.43D-04 Max=2.82D-03 NDo=    18
 LinEq1:  Iter=  4 NonCon=    18 RMS=7.30D-05 Max=3.80D-04 NDo=    18
 LinEq1:  Iter=  5 NonCon=    18 RMS=7.31D-06 Max=3.69D-05 NDo=    18
 LinEq1:  Iter=  6 NonCon=    16 RMS=7.99D-07 Max=3.04D-06 NDo=    18
 LinEq1:  Iter=  7 NonCon=     7 RMS=8.34D-08 Max=3.71D-07 NDo=    18
 LinEq1:  Iter=  8 NonCon=     0 RMS=8.89D-09 Max=3.35D-08 NDo=    18
 Linear equations converged to 1.000D-08 1.000D-07 after     8 iterations.
 FullF1:  Do perturbations    1 to     3.
 Isotropic polarizability for W=    0.000000       32.98 Bohr**3.
 End of Minotr F.D. properties file   721 does not exist.
 End of Minotr F.D. properties file   722 does not exist.
 End of Minotr F.D. properties file   788 does not exist.
 Leave Link 1002 at Sun Jan 10 14:42:37 2016, MaxMem=    33554432 cpu:         0.0
 (Enter /opt/g09/g09/l601.exe)
 Copying SCF densities to generalized density rwf, IOpCl= 0 IROHF=0.

 **********************************************************************

            Population analysis using the SCF density.

 **********************************************************************

 Orbital symmetries:
       Occupied  (A1) (A1) (B2) (B2) (A1) (A1) (B1) (B2) (A1) (B2)
                 (A1) (B1) (A2)
       Virtual   (B1) (A2) (A1) (B2) (A1) (B2) (A1) (B2) (A1) (B2)
                 (B2)
 The electronic state is 1-A1.
 Alpha  occ. eigenvalues --   -1.41919  -1.18318  -1.05785  -0.83396  -0.81642
 Alpha  occ. eigenvalues --   -0.69858  -0.63615  -0.57483  -0.53393  -0.51673
 Alpha  occ. eigenvalues --   -0.51137  -0.41445  -0.35439
 Alpha virt. eigenvalues --    0.02012   0.05674   0.06669   0.12493   0.13822
 Alpha virt. eigenvalues --    0.14059   0.16211   0.17413   0.18688   0.20292
 Alpha virt. eigenvalues --    0.20746
          Condensed to atoms (all electrons):
               1          2          3          4          5          6
     1  C    4.160626   0.000000   0.000000   0.000000   0.000000   0.000000
     2  C    0.000000   3.950862   0.000000   0.000000   0.000000   0.000000
     3  O    0.000000   0.000000   6.278682   0.000000   0.000000   0.000000
     4  C    0.000000   0.000000   0.000000   3.950862   0.000000   0.000000
     5  C    0.000000   0.000000   0.000000   0.000000   4.160626   0.000000
     6  H    0.000000   0.000000   0.000000   0.000000   0.000000   0.887325
     7  H    0.000000   0.000000   0.000000   0.000000   0.000000   0.000000
     8  H    0.000000   0.000000   0.000000   0.000000   0.000000   0.000000
     9  H    0.000000   0.000000   0.000000   0.000000   0.000000   0.000000
               7          8          9
     1  C    0.000000   0.000000   0.000000
     2  C    0.000000   0.000000   0.000000
     3  O    0.000000   0.000000   0.000000
     4  C    0.000000   0.000000   0.000000
     5  C    0.000000   0.000000   0.000000
     6  H    0.000000   0.000000   0.000000
     7  H    0.861846   0.000000   0.000000
     8  H    0.000000   0.861846   0.000000
     9  H    0.000000   0.000000   0.887325
 Mulliken charges:
               1
     1  C   -0.160626
     2  C    0.049138
     3  O   -0.278682
     4  C    0.049138
     5  C   -0.160626
     6  H    0.112675
     7  H    0.138154
     8  H    0.138154
     9  H    0.112675
 Sum of Mulliken charges =   0.00000
 Mulliken charges with hydrogens summed into heavy atoms:
               1
     1  C   -0.047951
     2  C    0.187292
     3  O   -0.278682
     4  C    0.187292
     5  C   -0.047951
 APT charges:
               1
     1  C   -0.165498
     2  C    0.145995
     3  O   -0.494629
     4  C    0.145995
     5  C   -0.165498
     6  H    0.119630
     7  H    0.147188
     8  H    0.147188
     9  H    0.119630
 Sum of APT charges =   0.00000
 APT charges with hydrogens summed into heavy atoms:
               1
     1  C   -0.045867
     2  C    0.293182
     3  O   -0.494629
     4  C    0.293182
     5  C   -0.045867
 Charge=              0.0000 electrons
 Dipole moment (field-independent basis, Debye):
    X=              0.0000    Y=              0.0000    Z=             -0.8058  Tot=              0.8058
 N-N= 1.033942141831D+02 E-N=-1.709839420241D+02  KE=-1.628226590831D+01
 Symmetry A1   KE=-8.736118552299D+00
 Symmetry A2   KE=-6.261529569541D-01
 Symmetry B1   KE=-1.778625827408D+00
 Symmetry B2   KE=-5.141368571654D+00
  Exact polarizability:   7.455   0.000  45.416   0.000   0.000  46.071
 Approx polarizability:   5.301   0.000  33.374   0.000   0.000  40.628
 Leave Link  601 at Sun Jan 10 14:42:37 2016, MaxMem=    33554432 cpu:         0.0
 (Enter /opt/g09/g09/l701.exe)
 Compute integral second derivatives.
 ... and contract with generalized density number  0.
 Leave Link  701 at Sun Jan 10 14:42:37 2016, MaxMem=    33554432 cpu:         0.0
 (Enter /opt/g09/g09/l702.exe)
 L702 exits ... SP integral derivatives will be done elsewhere.
 Leave Link  702 at Sun Jan 10 14:42:37 2016, MaxMem=    33554432 cpu:         0.0
 (Enter /opt/g09/g09/l703.exe)
 Compute integral second derivatives, UseDBF=F ICtDFT=           0.
 Integral derivatives from FoFJK, PRISM(SPDF).
 Calling FoFJK, ICntrl=    100127 FMM=F ISym2X=1 I1Cent= 0 IOpClX= 0 NMat=1 NMatS=1 NMatT=0.
 FoFJK:  IHMeth= 8 ICntrl=  100127 DoSepK=F KAlg= 0 I1Cent=   0 FoldK=F
 IRaf=         0 NMat=   1 IRICut=       1 DoRegI=T DoRafI=F ISym2E= 1.
 FoFCou: FMM=F IPFlag=           0 FMFlag=      100000 FMFlg1=         800
         NFxFlg=           0 DoJE=F BraDBF=F KetDBF=F FulRan=T
         wScrn=  0.000000 ICntrl=  100127 IOpCl=  0 I1Cent=           0 NGrid=           0
         NMat0=    1 NMatS0=      1 NMatT0=    0 NMatD0=    1 NMtDS0=    0 NMtDT0=    0
 Symmetry not used in FoFCou.
 Leave Link  703 at Sun Jan 10 14:42:37 2016, MaxMem=    33554432 cpu:         0.0
 (Enter /opt/g09/g09/l716.exe)
 Dipole        = 8.68938619D-17 2.22044605D-15-3.17042744D-01
 Polarizability= 7.45455299D+00 7.68939871D-15 4.54159866D+01
                -7.53346653D-15-2.79776202D-14 4.60708053D+01
 HyperPolar    =-1.11059016D-14-5.33450279D-14-2.97462692D-15
                -3.57592214D-12-1.06166642D+00-1.18281390D-14
                 2.77954975D+01-6.60104333D-14 5.44327611D-13
                -2.01379708D+01
 Full mass-weighted force constant matrix:
 Low frequencies --- -112.5244 -104.3933  -93.1800   -0.0005   -0.0001    0.0069
 Low frequencies ---  474.9006  555.0242  862.4550
 Diagonal vibrational polarizability:
        4.1852702       0.5115792       1.7787809
 Harmonic frequencies (cm**-1), IR intensities (KM/Mole), Raman scattering
 activities (A**4/AMU), depolarization ratios for plane and unpolarized
 incident light, reduced masses (AMU), force constants (mDyne/A),
 and normal coordinates:
                      1                      2                      3
                     B1                     A2                     B1
 Frequencies --    469.2386               554.6262               862.2349
 Red. masses --      3.5815                 1.8848                 1.1510
 Frc consts  --      0.4646                 0.3416                 0.5042
 IR Inten    --     12.5120                 0.0000                72.9602
  Atom  AN      X      Y      Z        X      Y      Z        X      Y      Z
     1   6     0.08   0.00   0.00    -0.17   0.00   0.00     0.04   0.00   0.00
     2   6    -0.23   0.00   0.00     0.11   0.00   0.00     0.06   0.00   0.00
     3   8     0.29   0.00   0.00     0.00   0.00   0.00    -0.03   0.00   0.00
     4   6    -0.23   0.00   0.00    -0.11   0.00   0.00     0.06   0.00   0.00
     5   6     0.08   0.00   0.00     0.17   0.00   0.00     0.04   0.00   0.00
     6   1     0.17   0.00   0.00     0.55   0.00   0.00    -0.50   0.00   0.00
     7   1    -0.61   0.00   0.00    -0.40   0.00   0.00    -0.50   0.00   0.00
     8   1    -0.61   0.00   0.00     0.40   0.00   0.00    -0.50   0.00   0.00
     9   1     0.17   0.00   0.00    -0.55   0.00   0.00    -0.50   0.00   0.00
                      4                      5                      6
                     A2                     A1                     B1
 Frequencies --    890.6765               932.5552               936.8897
 Red. masses --      1.3360                 4.6551                 1.3866
 Frc consts  --      0.6245                 2.3852                 0.7171
 IR Inten    --      0.0000                 5.5264                 0.4907
  Atom  AN      X      Y      Z        X      Y      Z        X      Y      Z
     1   6     0.01   0.00   0.00     0.00  -0.08  -0.15    -0.09   0.00   0.00
     2   6     0.12   0.00   0.00     0.00  -0.26  -0.03     0.09   0.00   0.00
     3   8     0.00   0.00   0.00     0.00   0.00   0.32    -0.01   0.00   0.00
     4   6    -0.12   0.00   0.00     0.00   0.26  -0.03     0.09   0.00   0.00
     5   6    -0.01   0.00   0.00     0.00   0.08  -0.15    -0.09   0.00   0.00
     6   1     0.24   0.00   0.00     0.00  -0.30   0.12     0.52   0.00   0.00
     7   1     0.65   0.00   0.00     0.00   0.01  -0.50    -0.46   0.00   0.00
     8   1    -0.65   0.00   0.00     0.00  -0.01  -0.50    -0.46   0.00   0.00
     9   1    -0.24   0.00   0.00     0.00   0.30   0.12     0.52   0.00   0.00
                      7                      8                      9
                     B2                     A2                     A1
 Frequencies --    955.3594               996.3457              1123.1681
 Red. masses --      6.2249                 1.7246                 1.1217
 Frc consts  --      3.3474                 1.0087                 0.8337
 IR Inten    --      0.0796                 0.0000                14.2153
  Atom  AN      X      Y      Z        X      Y      Z        X      Y      Z
     1   6     0.00  -0.27   0.29     0.17   0.00   0.00     0.00  -0.05   0.02
     2   6     0.00   0.18   0.20    -0.06   0.00   0.00     0.00   0.02  -0.01
     3   8     0.00   0.12   0.00     0.00   0.00   0.00     0.00   0.00   0.05
     4   6     0.00   0.18  -0.20     0.06   0.00   0.00     0.00  -0.02  -0.01
     5   6     0.00  -0.27  -0.29    -0.17   0.00   0.00     0.00   0.05   0.02
     6   1     0.00  -0.18  -0.35     0.67   0.00   0.00     0.00   0.55  -0.35
     7   1     0.00   0.32   0.08    -0.14   0.00   0.00     0.00  -0.13  -0.23
     8   1     0.00   0.32  -0.08     0.14   0.00   0.00     0.00   0.13  -0.23
     9   1     0.00  -0.18   0.35    -0.67   0.00   0.00     0.00  -0.55  -0.35
                     10                     11                     12
                     B2                     A1                     B2
 Frequencies --   1134.5276              1188.8304              1264.3871
 Red. masses --      1.1211                 1.1863                 1.2292
 Frc consts  --      0.8502                 0.9879                 1.1578
 IR Inten    --      0.0451                 3.1724                 1.0168
  Atom  AN      X      Y      Z        X      Y      Z        X      Y      Z
     1   6     0.00   0.00  -0.01     0.00  -0.01   0.05     0.00  -0.06  -0.02
     2   6     0.00   0.07   0.02     0.00   0.07  -0.01     0.00   0.01  -0.06
     3   8     0.00  -0.03   0.00     0.00   0.00  -0.02     0.00   0.06   0.00
     4   6     0.00   0.07  -0.02     0.00  -0.07  -0.01     0.00   0.01   0.06
     5   6     0.00   0.00   0.01     0.00   0.01   0.05     0.00  -0.06   0.02
     6   1     0.00  -0.42   0.32     0.00  -0.21   0.21     0.00   0.34  -0.29
     7   1     0.00  -0.16  -0.44     0.00  -0.34  -0.54     0.00  -0.26  -0.47
     8   1     0.00  -0.16   0.44     0.00   0.34  -0.54     0.00  -0.26   0.47
     9   1     0.00  -0.42  -0.32     0.00   0.21   0.21     0.00   0.34   0.29
                     13                     14                     15
                     A1                     B2                     A1
 Frequencies --   1358.7673              1468.2668              1547.3823
 Red. masses --      7.8031                 7.1381                 6.4095
 Frc consts  --      8.4880                 9.0665                 9.0421
 IR Inten    --     30.3010                16.4840                22.6019
  Atom  AN      X      Y      Z        X      Y      Z        X      Y      Z
     1   6     0.00   0.52  -0.01     0.00   0.06   0.06     0.00  -0.12  -0.18
     2   6     0.00   0.04  -0.09     0.00  -0.32   0.15     0.00   0.36  -0.07
     3   8     0.00   0.00   0.21     0.00   0.46   0.00     0.00   0.00   0.31
     4   6     0.00  -0.04  -0.09     0.00  -0.32  -0.15     0.00  -0.36  -0.07
     5   6     0.00  -0.52  -0.01     0.00   0.06  -0.06     0.00   0.12  -0.18
     6   1     0.00   0.01  -0.39     0.00  -0.33   0.21     0.00  -0.23   0.02
     7   1     0.00  -0.12  -0.17     0.00  -0.27  -0.18     0.00  -0.11   0.46
     8   1     0.00   0.12  -0.17     0.00  -0.27   0.18     0.00   0.11   0.46
     9   1     0.00  -0.01  -0.39     0.00  -0.33  -0.21     0.00   0.23   0.02
                     16                     17                     18
                     A1                     B2                     B2
 Frequencies --   1649.5202              1678.1384              3239.8848
 Red. masses --      6.1668                 8.0328                 1.0812
 Frc consts  --      9.8861                13.3283                 6.6869
 IR Inten    --     35.6553                 3.2253                 6.8348
  Atom  AN      X      Y      Z        X      Y      Z        X      Y      Z
     1   6     0.00   0.06  -0.27     0.00   0.12   0.40     0.00  -0.03   0.05
     2   6     0.00   0.03   0.39     0.00  -0.05  -0.37     0.00   0.00   0.00
     3   8     0.00   0.00  -0.11     0.00  -0.03   0.00     0.00   0.00   0.00
     4   6     0.00  -0.03   0.39     0.00  -0.05   0.37     0.00   0.00   0.00
     5   6     0.00  -0.06  -0.27     0.00   0.12  -0.40     0.00  -0.03  -0.05
     6   1     0.00  -0.02  -0.31     0.00  -0.34  -0.03     0.00   0.42   0.56
     7   1     0.00  -0.36  -0.20     0.00  -0.25   0.05     0.00  -0.05   0.02
     8   1     0.00   0.36  -0.20     0.00  -0.25  -0.05     0.00  -0.05  -0.02
     9   1     0.00   0.02  -0.31     0.00  -0.34   0.03     0.00   0.42  -0.56
                     19                     20                     21
                     A1                     B2                     A1
 Frequencies --   3240.5544              3249.2748              3260.4309
 Red. masses --      1.0808                 1.0810                 1.0969
 Frc consts  --      6.6869                 6.7243                 6.8701
 IR Inten    --     71.1663                93.0032                 5.2879
  Atom  AN      X      Y      Z        X      Y      Z        X      Y      Z
     1   6     0.00  -0.03   0.04     0.00   0.00   0.00     0.00   0.02  -0.02
     2   6     0.00   0.02   0.01     0.00   0.05   0.03     0.00   0.05   0.03
     3   8     0.00   0.00   0.00     0.00   0.01   0.00     0.00   0.00   0.00
     4   6     0.00  -0.02   0.01     0.00   0.05  -0.03     0.00  -0.05   0.03
     5   6     0.00   0.03   0.04     0.00   0.00   0.00     0.00  -0.02  -0.02
     6   1     0.00  -0.38  -0.51     0.00  -0.03  -0.04     0.00   0.17   0.24
     7   1     0.00   0.27  -0.13     0.00  -0.63   0.32     0.00   0.57  -0.29
     8   1     0.00  -0.27  -0.13     0.00  -0.63  -0.32     0.00  -0.57  -0.29
     9   1     0.00   0.38  -0.51     0.00  -0.03   0.04     0.00  -0.17   0.24

 -------------------
 - Thermochemistry -
 -------------------
 Temperature   298.150 Kelvin.  Pressure   1.00000 Atm.
 Atom     1 has atomic number  6 and mass  12.00000
 Atom     2 has atomic number  6 and mass  12.00000
 Atom     3 has atomic number  8 and mass  15.99491
 Atom     4 has atomic number  6 and mass  12.00000
 Atom     5 has atomic number  6 and mass  12.00000
 Atom     6 has atomic number  1 and mass   1.00783
 Atom     7 has atomic number  1 and mass   1.00783
 Atom     8 has atomic number  1 and mass   1.00783
 Atom     9 has atomic number  1 and mass   1.00783
 Molecular mass:    68.02621 amu.
 Principal axes and moments of inertia in atomic units:
                           1         2         3
     Eigenvalues --   189.94244 193.46616 383.40860
           X            0.00000   0.00000   1.00000
           Y            0.00000   1.00000   0.00000
           Z            1.00000   0.00000   0.00000
 This molecule is an asymmetric top.
 Rotational symmetry number  2.
 Rotational temperatures (Kelvin)      0.45600     0.44769     0.22590
 Rotational constants (GHZ):           9.50152     9.32846     4.70710
 Zero-point vibrational energy     191408.8 (Joules/Mol)
                                   45.74781 (Kcal/Mol)
 Warning -- explicit consideration of   2 degrees of freedom as
           vibrations may cause significant error
 Vibrational temperatures:    675.13   797.98  1240.56  1281.48  1341.74
          (Kelvin)           1347.97  1374.55  1433.52  1615.99  1632.33
                             1710.46  1819.17  1954.96  2112.51  2226.34
                             2373.29  2414.46  4661.47  4662.43  4674.98
                             4691.03
 
 Zero-point correction=                           0.072904 (Hartree/Particle)
 Thermal correction to Energy=                    0.076563
 Thermal correction to Enthalpy=                  0.077507
 Thermal correction to Gibbs Free Energy=         0.047277
 Sum of electronic and zero-point Energies=              0.282992
 Sum of electronic and thermal Energies=                 0.286652
 Sum of electronic and thermal Enthalpies=               0.287596
 Sum of electronic and thermal Free Energies=            0.257366
 
                     E (Thermal)             CV                S
                      KCal/Mol        Cal/Mol-Kelvin    Cal/Mol-Kelvin
 Total                   48.044             12.439             63.624
 Electronic               0.000              0.000              0.000
 Translational            0.889              2.981             38.570
 Rotational               0.889              2.981             22.781
 Vibrational             46.267              6.477              2.274
 Vibration     1          0.826              1.318              0.740
 Vibration     2          0.910              1.130              0.535
                       Q            Log10(Q)             Ln(Q)
 Total Bot       0.179435D-21        -21.746094        -50.072231
 Total V=0       0.612695D+12         11.787244         27.141133
 Vib (Bot)       0.382980D-33        -33.416824        -76.945081
 Vib (Bot)    1  0.359694D+00         -0.444067         -1.022501
 Vib (Bot)    2  0.281694D+00         -0.550223         -1.266934
 Vib (V=0)       0.130772D+01          0.116514          0.268283
 Vib (V=0)    1  0.111594D+01          0.047640          0.109695
 Vib (V=0)    2  0.107389D+01          0.030960          0.071289
 Electronic      0.100000D+01          0.000000          0.000000
 Translational   0.220531D+08          7.343470         16.908964
 Rotational      0.212452D+05          4.327261          9.963886
 
                                                          Furan freq at AM1
                                                             IR Spectrum
 
   3333                                                            11   1  1    1  1  1 11                                           
   2222                                                            66   5  4    3  2  1 11   9999 88           5  4                  
   6444                                                            75   4  6    5  6  8 32   9533 96           5  6                  
   0910                                                            80   7  8    9  4  9 53   6573 12           5  9                  
 
   XXXX                                                            XX   X  X    X  X  X  X    XXX  X              X                  
    XX                                                              X   X  X    X        X         X              X                  
    XX                                                              X   X  X    X        X         X              X                  
    XX                                                              X   X  X    X                  X                                 
    XX                                                              X   X       X                  X                                 
    XX                                                              X           X                  X                                 
    XX                                                              X           X                  X                                 
    XX                                                              X                              X                                 
    XX                                                                                             X                                 
    XX                                                                                             X                                 
    XX                                                                                             X                                 
    XX                                                                                             X                                 
    XX                                                                                             X                                 
    XX                                                                                             X                                 
    XX                                                                                             X                                 
    X                                                                                              X                                 
    X                                                                                                                                
    X                                                                                                                                
    X                                                                                                                                
    X                                                                                                                                
 
 ***** Axes restored to original set *****
 -------------------------------------------------------------------
 Center     Atomic                   Forces (Hartrees/Bohr)
 Number     Number              X              Y              Z
 -------------------------------------------------------------------
      1        6          -0.008024464    0.001507034    0.000000000
      2        6           0.040769884   -0.033381123    0.000000000
      3        8          -0.059484296    0.000000000    0.000000000
      4        6           0.040769884    0.033381123    0.000000000
      5        6          -0.008024464   -0.001507034    0.000000000
      6        1          -0.000903394   -0.004802763    0.000000000
      7        1          -0.002099878   -0.005320462    0.000000000
      8        1          -0.002099878    0.005320462    0.000000000
      9        1          -0.000903394    0.004802763    0.000000000
 -------------------------------------------------------------------
 Cartesian Forces:  Max     0.059484296 RMS     0.018596965
 Z-matrix is all fixed cartesians, so copy forces.
 Force constants in Cartesian coordinates: 
                1             2             3             4             5 
      1  0.918418D+00
      2 -0.125493D+00  0.648848D+00
      3  0.000000D+00  0.000000D+00  0.155972D+00
      4 -0.447950D+00 -0.708906D-01  0.000000D+00  0.824231D+00
      5 -0.150595D+00 -0.114261D+00  0.000000D+00  0.124061D+00  0.880355D+00
      6  0.000000D+00  0.000000D+00 -0.786560D-01  0.000000D+00  0.000000D+00
      7 -0.135468D+00  0.236970D-01  0.000000D+00 -0.236779D+00  0.196780D+00
      8  0.697674D-01 -0.140785D-01  0.000000D+00  0.182638D+00 -0.285485D+00
      9  0.000000D+00  0.000000D+00  0.128314D-01  0.000000D+00  0.000000D+00
     10 -0.133272D-01  0.114709D+00  0.000000D+00  0.212910D-01 -0.600741D-02
     11  0.582124D-01 -0.645523D-01  0.000000D+00  0.600741D-02 -0.163567D+00
     12  0.000000D+00  0.000000D+00  0.153697D-01  0.000000D+00  0.000000D+00
     13 -0.842417D-01 -0.465801D-01  0.000000D+00 -0.133272D-01 -0.582124D-01
     14  0.465801D-01 -0.280518D+00  0.000000D+00 -0.114709D+00 -0.645523D-01
     15  0.000000D+00  0.000000D+00 -0.778291D-01  0.000000D+00  0.000000D+00
     16  0.137049D-02 -0.443110D-02  0.000000D+00  0.292678D-04  0.151342D-02
     17 -0.241319D-01 -0.273016D-01  0.000000D+00  0.349891D-04 -0.391587D-02
     18  0.000000D+00  0.000000D+00  0.412772D-02  0.000000D+00  0.000000D+00
     19 -0.332281D-02  0.859099D-03  0.000000D+00 -0.574776D-02 -0.194516D-02
     20 -0.998506D-04  0.519694D-03  0.000000D+00 -0.660407D-02 -0.296573D-03
     21  0.000000D+00  0.000000D+00  0.527729D-02  0.000000D+00  0.000000D+00
     22 -0.181033D-01 -0.278918D-01  0.000000D+00 -0.103565D+00 -0.122194D+00
     23 -0.104996D-01 -0.718954D-02  0.000000D+00 -0.118782D+00 -0.253677D+00
     24  0.000000D+00  0.000000D+00  0.502643D-02  0.000000D+00  0.000000D+00
     25 -0.217376D+00  0.136022D+00  0.000000D+00 -0.381815D-01  0.165996D-01
     26  0.136259D+00 -0.141466D+00  0.000000D+00 -0.175623D-02  0.540027D-02
     27  0.000000D+00  0.000000D+00 -0.421188D-01  0.000000D+00  0.000000D+00
                6             7             8             9            10 
      6  0.128628D+00
      7  0.000000D+00  0.728369D+00
      8  0.000000D+00  0.000000D+00  0.695211D+00
      9 -0.391214D-01  0.000000D+00  0.000000D+00  0.373805D-01
     10  0.000000D+00 -0.236779D+00 -0.182638D+00  0.000000D+00  0.824231D+00
     11  0.000000D+00 -0.196780D+00 -0.285485D+00  0.000000D+00 -0.124061D+00
     12  0.393161D-02  0.000000D+00  0.000000D+00 -0.391214D-01  0.000000D+00
     13  0.000000D+00 -0.135468D+00 -0.697674D-01  0.000000D+00 -0.447950D+00
     14  0.000000D+00 -0.236970D-01 -0.140785D-01  0.000000D+00  0.708906D-01
     15  0.153697D-01  0.000000D+00  0.000000D+00  0.128314D-01  0.000000D+00
     16  0.000000D+00 -0.409467D-02 -0.126841D-03  0.000000D+00 -0.381815D-01
     17  0.000000D+00  0.382641D-02  0.167161D-02  0.000000D+00  0.175623D-02
     18  0.360876D-02  0.000000D+00  0.000000D+00  0.677988D-02  0.000000D+00
     19  0.000000D+00  0.121569D-01 -0.187060D-01  0.000000D+00 -0.103565D+00
     20  0.000000D+00  0.641442D-02 -0.497133D-01  0.000000D+00  0.118782D+00
     21  0.278757D-02  0.000000D+00  0.000000D+00  0.819022D-03  0.000000D+00
     22  0.000000D+00  0.121569D-01  0.187060D-01  0.000000D+00 -0.574776D-02
     23  0.000000D+00 -0.641442D-02 -0.497133D-01  0.000000D+00  0.660407D-02
     24 -0.382569D-01  0.000000D+00  0.000000D+00  0.819022D-03  0.000000D+00
     25  0.000000D+00 -0.409467D-02  0.126841D-03  0.000000D+00  0.292678D-04
     26  0.000000D+00 -0.382641D-02  0.167161D-02  0.000000D+00 -0.349891D-04
     27  0.170999D-02  0.000000D+00  0.000000D+00  0.677988D-02  0.000000D+00
               11            12            13            14            15 
     11  0.880355D+00
     12  0.000000D+00  0.128628D+00
     13  0.150595D+00  0.000000D+00  0.918418D+00
     14 -0.114261D+00  0.000000D+00  0.125493D+00  0.648848D+00
     15  0.000000D+00 -0.786560D-01  0.000000D+00  0.000000D+00  0.155972D+00
     16 -0.165996D-01  0.000000D+00 -0.217376D+00 -0.136022D+00  0.000000D+00
     17  0.540027D-02  0.000000D+00 -0.136259D+00 -0.141466D+00  0.000000D+00
     18  0.000000D+00  0.170999D-02  0.000000D+00  0.000000D+00 -0.421188D-01
     19  0.122194D+00  0.000000D+00 -0.181033D-01  0.278918D-01  0.000000D+00
     20 -0.253677D+00  0.000000D+00  0.104996D-01 -0.718954D-02  0.000000D+00
     21  0.000000D+00 -0.382569D-01  0.000000D+00  0.000000D+00  0.502643D-02
     22  0.194516D-02  0.000000D+00 -0.332281D-02 -0.859099D-03  0.000000D+00
     23 -0.296573D-03  0.000000D+00  0.998506D-04  0.519694D-03  0.000000D+00
     24  0.000000D+00  0.278757D-02  0.000000D+00  0.000000D+00  0.527729D-02
     25 -0.151342D-02  0.000000D+00  0.137049D-02  0.443110D-02  0.000000D+00
     26 -0.391587D-02  0.000000D+00  0.241319D-01 -0.273016D-01  0.000000D+00
     27  0.000000D+00  0.360876D-02  0.000000D+00  0.000000D+00  0.412772D-02
               16            17            18            19            20 
     16  0.258179D+00
     17  0.155394D+00  0.165168D+00
     18  0.000000D+00  0.000000D+00  0.261097D-01
     19 -0.132443D-03 -0.727461D-04  0.000000D+00  0.117731D+00
     20  0.418164D-03  0.847832D-04  0.000000D+00 -0.130163D+00  0.311217D+00
     21  0.000000D+00  0.000000D+00  0.435041D-03  0.000000D+00  0.000000D+00
     22  0.569494D-04 -0.632859D-03  0.000000D+00  0.927150D-03  0.690863D-03
     23 -0.614534D-04  0.000000D+00  0.000000D+00 -0.690863D-03 -0.944411D-03
     24  0.000000D+00  0.000000D+00 -0.279491D-03  0.000000D+00  0.000000D+00
     25  0.149349D-03  0.850330D-04  0.000000D+00  0.569494D-04  0.614534D-04
     26 -0.850330D-04  0.358370D-03  0.000000D+00  0.632859D-03  0.000000D+00
     27  0.000000D+00  0.000000D+00 -0.373108D-03  0.000000D+00  0.000000D+00
               21            22            23            24            25 
     21  0.235449D-01
     22  0.000000D+00  0.117731D+00
     23  0.000000D+00  0.130163D+00  0.311217D+00
     24  0.645844D-03  0.000000D+00  0.000000D+00  0.235449D-01
     25  0.000000D+00 -0.132443D-03 -0.418164D-03  0.000000D+00  0.258179D+00
     26  0.000000D+00  0.727461D-04  0.847832D-04  0.000000D+00 -0.155394D+00
     27 -0.279491D-03  0.000000D+00  0.000000D+00  0.435041D-03  0.000000D+00
               26            27 
     26  0.165168D+00
     27  0.000000D+00  0.261097D-01
 Leave Link  716 at Sun Jan 10 14:42:37 2016, MaxMem=    33554432 cpu:         0.0
 (Enter /opt/g09/g09/l103.exe)

 GradGradGradGradGradGradGradGradGradGradGradGradGradGradGradGradGradGrad
 Berny optimization.
 Search for a local minimum.
 Step number   1 out of a maximum of    2
 All quantities printed in internal units (Hartrees-Bohrs-Radians)
 Second derivative matrix not updated -- analytic derivatives used.
 ITU=  0
     Eigenvalues ---    0.01759   0.02586   0.04861   0.05706   0.06381
     Eigenvalues ---    0.06461   0.08962   0.15756   0.19123   0.19906
     Eigenvalues ---    0.24365   0.29488   0.34332   0.46177   0.69408
     Eigenvalues ---    0.91699   1.03769   1.15017   1.22599   1.43424
     Eigenvalues ---    1.54407
 Angle between quadratic step and forces=  56.63 degrees.
 ClnCor:  largest displacement from symmetrization is 1.17D-14 for atom     8.
 Linear search not attempted -- first point.
 ClnCor:  largest displacement from symmetrization is 1.97D-31 for atom     2.
 TrRot= -0.001874  0.000000  0.000000  0.000000  0.000000  0.000000
 Variable       Old X    -DE/DX   Delta X   Delta X   Delta X     New X
                                 (Linear)    (Quad)   (Total)
    X1        1.80559  -0.00802   0.00000  -0.01085  -0.01272   1.79286
    Y1       -1.35297   0.00151   0.00000   0.00052   0.00052  -1.35245
    Z1        0.00000   0.00000   0.00000   0.00000   0.00000   0.00000
    X2       -0.65314   0.04077   0.00000   0.03417   0.03230  -0.62084
    Y2       -2.06513  -0.03338   0.00000  -0.03118  -0.03118  -2.09631
    Z2        0.00000   0.00000   0.00000   0.00000   0.00000   0.00000
    X3       -2.18699  -0.05948   0.00000  -0.04381  -0.04569  -2.23268
    Y3        0.00000   0.00000   0.00000   0.00000   0.00000   0.00000
    Z3        0.00000   0.00000   0.00000   0.00000   0.00000   0.00000
    X4       -0.65314   0.04077   0.00000   0.03417   0.03230  -0.62084
    Y4        2.06513   0.03338   0.00000   0.03118   0.03118   2.09631
    Z4        0.00000   0.00000   0.00000   0.00000   0.00000   0.00000
    X5        1.80559  -0.00802   0.00000  -0.01085  -0.01272   1.79286
    Y5        1.35297  -0.00151   0.00000  -0.00052  -0.00052   1.35245
    Z5        0.00000   0.00000   0.00000   0.00000   0.00000   0.00000
    X6        3.42123  -0.00090   0.00000   0.04303   0.04115   3.46239
    Y6        2.58776  -0.00480   0.00000  -0.08191  -0.08191   2.50584
    Z6        0.00000   0.00000   0.00000   0.00000   0.00000   0.00000
    X7       -1.58795  -0.00210   0.00000  -0.03601  -0.03789  -1.62584
    Y7        3.86805  -0.00532   0.00000  -0.01775  -0.01775   3.85030
    Z7        0.00000   0.00000   0.00000   0.00000   0.00000   0.00000
    X8       -1.58795  -0.00210   0.00000  -0.03601  -0.03789  -1.62584
    Y8       -3.86805   0.00532   0.00000   0.01775   0.01775  -3.85030
    Z8        0.00000   0.00000   0.00000   0.00000   0.00000   0.00000
    X9        3.42123  -0.00090   0.00000   0.04303   0.04115   3.46239
    Y9       -2.58776   0.00480   0.00000   0.08191   0.08191  -2.50584
    Z9        0.00000   0.00000   0.00000   0.00000   0.00000   0.00000
         Item               Value     Threshold  Converged?
 Maximum Force            0.059484     0.000450     NO 
 RMS     Force            0.018597     0.000300     NO 
 Maximum Displacement     0.081914     0.001800     NO 
 RMS     Displacement     0.031476     0.001200     NO 
 Predicted change in Energy=-4.349492D-03
 GradGradGradGradGradGradGradGradGradGradGradGradGradGradGradGradGradGrad

 Leave Link  103 at Sun Jan 10 14:42:37 2016, MaxMem=    33554432 cpu:         0.0
 (Enter /opt/g09/g09/l9999.exe)
 1\1\GINC-LINUX-CBNE\Freq\RAM1\ZDO\C4H4O1\DUSTIN\10-Jan-2016\0\\#P AM1(
 Input,print) Freq\\Furan freq at AM1\\0,1\C,0.955475,-0.715963,0.\C,-0
 .345627,-1.092818,0.\O,-1.157305,0.,0.\C,-0.345627,1.092818,0.\C,0.955
 475,0.715963,0.\H,1.810438,1.369382,0.\H,-0.840307,2.046884,0.\H,-0.84
 0307,-2.046884,0.\H,1.810438,-1.369382,0.\\Version=ES64L-G09RevD.01\St
 ate=1-A1\HF=0.2100885\RMSD=3.900e-09\RMSF=1.860e-02\ZeroPoint=0.072903
 8\Thermal=0.0765632\Dipole=0.3170427,0.,0.\DipoleDeriv=-0.2317361,-0.0
 768536,0.,-0.0708159,-0.1020268,0.,0.,0.,-0.1627299,0.4451325,-0.10713
 9,0.,-0.3242178,0.0140148,0.,0.,0.,-0.0211629,-0.9023173,0.,0.,0.,-0.3
 770772,0.,0.,0.,-0.2044936,0.4451325,0.107139,0.,0.3242178,0.0140148,0
 .,0.,0.,-0.0211629,-0.2317361,0.0768536,0.,0.0708159,-0.1020268,0.,0.,
 0.,-0.1627299,0.1419236,0.038358,0.,0.0575595,0.0833565,0.,0.,0.,0.133
 6107,0.0958384,-0.0997044,0.,-0.0919089,0.193196,0.,0.,0.,0.1525282,0.
 0958384,0.0997044,0.,0.0919089,0.193196,0.,0.,0.,0.1525282,0.1419236,-
 0.038358,0.,-0.0575595,0.0833565,0.,0.,0.,0.1336107\Polar=46.0708053,0
 .,45.4159866,0.,0.,7.454553\HyperPolar=20.1379708,0.,-27.7954975,0.,0.
 ,0.,0.,1.0616664,0.,0.\PG=C02V [C2(O1),SGV(C4H4)]\NImag=0\\0.91841823,
 -0.12549306,0.64884770,0.,0.,0.15597181,-0.44794995,-0.07089057,0.,0.8
 2423082,-0.15059459,-0.11426132,0.,0.12406081,0.88035532,0.,0.,-0.0786
 5604,0.,0.,0.12862758,-0.13546781,0.02369702,0.,-0.23677890,0.19677960
 ,0.,0.72836853,0.06976735,-0.01407848,0.,0.18263842,-0.28548537,0.,0.,
 0.69521102,0.,0.,0.01283142,0.,0.,-0.03912143,0.,0.,0.03738054,-0.0133
 2720,0.11470850,0.,0.02129096,-0.00600741,0.,-0.23677890,-0.18263842,0
 .,0.82423082,0.05821241,-0.06455226,0.,0.00600741,-0.16356676,0.,-0.19
 677960,-0.28548537,0.,-0.12406081,0.88035532,0.,0.,0.01536974,0.,0.,0.
 00393161,0.,0.,-0.03912143,0.,0.,0.12862758,-0.08424173,-0.04658014,0.
 ,-0.01332720,-0.05821241,0.,-0.13546781,-0.06976735,0.,-0.44794995,0.1
 5059459,0.,0.91841823,0.04658014,-0.28051814,0.,-0.11470850,-0.0645522
 6,0.,-0.02369702,-0.01407848,0.,0.07089057,-0.11426132,0.,0.12549306,0
 .64884770,0.,0.,-0.07782908,0.,0.,0.01536974,0.,0.,0.01283142,0.,0.,-0
 .07865604,0.,0.,0.15597181,0.00137049,-0.00443110,0.,0.00002927,0.0015
 1342,0.,-0.00409467,-0.00012684,0.,-0.03818149,-0.01659963,0.,-0.21737
 601,-0.13602184,0.,0.25817852,-0.02413195,-0.02730159,0.,0.00003499,-0
 .00391587,0.,0.00382641,0.00167161,0.,0.00175623,0.00540027,0.,-0.1362
 5940,-0.14146603,0.,0.15539426,0.16516842,0.,0.,0.00412772,0.,0.,0.003
 60876,0.,0.,0.00677988,0.,0.,0.00170999,0.,0.,-0.04211884,0.,0.,0.0261
 0975,-0.00332281,0.00085910,0.,-0.00574776,-0.00194516,0.,0.01215693,-
 0.01870598,0.,-0.10356545,0.12219409,0.,-0.01810330,0.02789182,0.,-0.0
 0013244,-0.00007275,0.,0.11773070,-0.00009985,0.00051969,0.,-0.0066040
 7,-0.00029657,0.,0.00641442,-0.04971327,0.,0.11878250,-0.25367747,0.,0
 .01049963,-0.00718954,0.,0.00041816,0.00008478,0.,-0.13016309,0.311216
 74,0.,0.,0.00527729,0.,0.,0.00278757,0.,0.,0.00081902,0.,0.,-0.0382568
 7,0.,0.,0.00502643,0.,0.,0.00043504,0.,0.,0.02354493,-0.01810330,-0.02
 789182,0.,-0.10356545,-0.12219409,0.,0.01215693,0.01870598,0.,-0.00574
 776,0.00194516,0.,-0.00332281,-0.00085910,0.,0.00005695,-0.00063286,0.
 ,0.00092715,0.00069086,0.,0.11773070,-0.01049963,-0.00718954,0.,-0.118
 78250,-0.25367747,0.,-0.00641442,-0.04971327,0.,0.00660407,-0.00029657
 ,0.,0.00009985,0.00051969,0.,-0.00006145,0.00000004,0.,-0.00069086,-0.
 00094441,0.,0.13016309,0.31121674,0.,0.,0.00502643,0.,0.,-0.03825687,0
 .,0.,0.00081902,0.,0.,0.00278757,0.,0.,0.00527729,0.,0.,-0.00027949,0.
 ,0.,0.00064584,0.,0.,0.02354493,-0.21737601,0.13602184,0.,-0.03818149,
 0.01659963,0.,-0.00409467,0.00012684,0.,0.00002927,-0.00151342,0.,0.00
 137049,0.00443110,0.,0.00014935,0.00008503,0.,0.00005695,0.00006145,0.
 ,-0.00013244,-0.00041816,0.,0.25817852,0.13625940,-0.14146603,0.,-0.00
 175623,0.00540027,0.,-0.00382641,0.00167161,0.,-0.00003499,-0.00391587
 ,0.,0.02413195,-0.02730159,0.,-0.00008503,0.00035837,0.,0.00063286,0.0
 0000004,0.,0.00007275,0.00008478,0.,-0.15539426,0.16516842,0.,0.,-0.04
 211884,0.,0.,0.00170999,0.,0.,0.00677988,0.,0.,0.00360876,0.,0.,0.0041
 2772,0.,0.,-0.00037311,0.,0.,-0.00027949,0.,0.,0.00043504,0.,0.,0.0261
 0975\\0.00802446,-0.00150703,0.,-0.04076988,0.03338112,0.,0.05948430,0
 .,0.,-0.04076988,-0.03338112,0.,0.00802446,0.00150703,0.,0.00090339,0.
 00480276,0.,0.00209988,0.00532046,0.,0.00209988,-0.00532046,0.,0.00090
 339,-0.00480276,0.\\\@


 The lyf so short, the craft so long to lerne.
                             -- Chaucer
 Job cpu time:       0 days  0 hours  0 minutes  0.3 seconds.
 File lengths (MBytes):  RWF=      5 Int=      0 D2E=      0 Chk=      2 Scr=      1
 Normal termination of Gaussian 09 at Sun Jan 10 14:42:37 2016.
