 Entering Gaussian System, Link 0=g09
 Input=FuranAM1Best3.com
 Output=FuranAM1Best3.log
 Initial command:
 /home/Applications/g09/g09/l1.exe "/home/Applications/g09/scratch/Gau-20947.inp" -scrdir="/home/Applications/g09/scratch/"
 Entering Link 1 = /home/Applications/g09/g09/l1.exe PID=     20949.
  
 Copyright (c) 1988,1990,1992,1993,1995,1998,2003,2009,2013,
            Gaussian, Inc.  All Rights Reserved.
  
 This is part of the Gaussian(R) 09 program.  It is based on
 the Gaussian(R) 03 system (copyright 2003, Gaussian, Inc.),
 the Gaussian(R) 98 system (copyright 1998, Gaussian, Inc.),
 the Gaussian(R) 94 system (copyright 1995, Gaussian, Inc.),
 the Gaussian 92(TM) system (copyright 1992, Gaussian, Inc.),
 the Gaussian 90(TM) system (copyright 1990, Gaussian, Inc.),
 the Gaussian 88(TM) system (copyright 1988, Gaussian, Inc.),
 the Gaussian 86(TM) system (copyright 1986, Carnegie Mellon
 University), and the Gaussian 82(TM) system (copyright 1983,
 Carnegie Mellon University). Gaussian is a federally registered
 trademark of Gaussian, Inc.
  
 This software contains proprietary and confidential information,
 including trade secrets, belonging to Gaussian, Inc.
  
 This software is provided under written license and may be
 used, copied, transmitted, or stored only in accord with that
 written license.
  
 The following legend is applicable only to US Government
 contracts under FAR:
  
                    RESTRICTED RIGHTS LEGEND
  
 Use, reproduction and disclosure by the US Government is
 subject to restrictions as set forth in subparagraphs (a)
 and (c) of the Commercial Computer Software - Restricted
 Rights clause in FAR 52.227-19.
  
 Gaussian, Inc.
 340 Quinnipiac St., Bldg. 40, Wallingford CT 06492
  
  
 ---------------------------------------------------------------
 Warning -- This program may not be used in any manner that
 competes with the business of Gaussian, Inc. or will provide
 assistance to any competitor of Gaussian, Inc.  The licensee
 of this program is prohibited from giving any competitor of
 Gaussian, Inc. access to this program.  By using this program,
 the user acknowledges that Gaussian, Inc. is engaged in the
 business of creating and licensing software in the field of
 computational chemistry and represents and warrants to the
 licensee that it is not a competitor of Gaussian, Inc. and that
 it will not use this program in any manner prohibited above.
 ---------------------------------------------------------------
  

 Cite this work as:
 Gaussian 09, Revision D.01,
 M. J. Frisch, G. W. Trucks, H. B. Schlegel, G. E. Scuseria, 
 M. A. Robb, J. R. Cheeseman, G. Scalmani, V. Barone, B. Mennucci, 
 G. A. Petersson, H. Nakatsuji, M. Caricato, X. Li, H. P. Hratchian, 
 A. F. Izmaylov, J. Bloino, G. Zheng, J. L. Sonnenberg, M. Hada, 
 M. Ehara, K. Toyota, R. Fukuda, J. Hasegawa, M. Ishida, T. Nakajima, 
 Y. Honda, O. Kitao, H. Nakai, T. Vreven, J. A. Montgomery, Jr., 
 J. E. Peralta, F. Ogliaro, M. Bearpark, J. J. Heyd, E. Brothers, 
 K. N. Kudin, V. N. Staroverov, T. Keith, R. Kobayashi, J. Normand, 
 K. Raghavachari, A. Rendell, J. C. Burant, S. S. Iyengar, J. Tomasi, 
 M. Cossi, N. Rega, J. M. Millam, M. Klene, J. E. Knox, J. B. Cross, 
 V. Bakken, C. Adamo, J. Jaramillo, R. Gomperts, R. E. Stratmann, 
 O. Yazyev, A. J. Austin, R. Cammi, C. Pomelli, J. W. Ochterski, 
 R. L. Martin, K. Morokuma, V. G. Zakrzewski, G. A. Voth, 
 P. Salvador, J. J. Dannenberg, S. Dapprich, A. D. Daniels, 
 O. Farkas, J. B. Foresman, J. V. Ortiz, J. Cioslowski, 
 and D. J. Fox, Gaussian, Inc., Wallingford CT, 2013.
 
 ******************************************
 Gaussian 09:  ES64L-G09RevD.01 24-Apr-2013
                29-Nov-2015 
 ******************************************
 ----------------------------
 #P AM1(Input,print) Opt Freq
 ----------------------------
 1/14=-1,18=20,19=15,26=1,38=1/1,3;
 2/9=110,12=2,17=6,18=5,40=1/2;
 3/5=2,16=1,25=1,41=700000,71=1,135=100,136=1/1,2,3;
 4/35=1/1;
 5/5=2,35=1,38=5/2;
 6/7=2,8=2,9=2,10=2,28=1/1;
 7//1,2,3,16;
 1/14=-1,18=20,19=15,26=1/3(2);
 2/9=110/2;
 99//99;
 2/9=110/2;
 3/5=2,16=1,25=1,41=700000,71=1,135=20,136=1/1,2,3;
 4/5=5,16=3,35=1/1;
 5/5=2,35=1,38=5/2;
 7//1,2,3,16;
 1/14=-1,18=20,19=15,26=1/3(-5);
 2/9=110/2;
 6/7=2,8=2,9=2,10=2,19=2,28=1/1;
 99/9=1/99;
 Leave Link    1 at Sun Nov 29 12:22:28 2015, MaxMem=           0 cpu:         0.0
 (Enter /home/Applications/g09/g09/l101.exe)
 -----------------
 AM1-Reparam Input
 -----------------
 Symbolic Z-matrix:
 Charge =  0 Multiplicity = 1
 6                     0.91799  -0.73165  -0.0386 
 6                    -0.34993  -1.0832   -0.03291 
 8                    -1.11182  -0.02721  -0.02023 
 6                    -0.31092   1.12176  -0.00554 
 6                     0.90652   0.71488  -0.03607 
 1                     1.83984   1.35241  -0.00345 
 1                    -0.86926   2.08731   0.00146 
 1                    -0.88306  -2.05721   0.0227 
 1                     1.7701   -1.372    -0.04166 
 
 NAtoms=      9 NQM=        9 NQMF=       0 NMMI=      0 NMMIF=      0
                NMic=       0 NMicF=      0.
                    Isotopes and Nuclear Properties:
 (Nuclear quadrupole moments (NQMom) in fm**2, nuclear magnetic moments (NMagM)
  in nuclear magnetons)

  Atom         1           2           3           4           5           6           7           8           9
 IAtWgt=          12          12          16          12          12           1           1           1           1
 AtmWgt=  12.0000000  12.0000000  15.9949146  12.0000000  12.0000000   1.0078250   1.0078250   1.0078250   1.0078250
 NucSpn=           0           0           0           0           0           1           1           1           1
 AtZEff=   0.0000000   0.0000000   0.0000000   0.0000000   0.0000000   0.0000000   0.0000000   0.0000000   0.0000000
 NQMom=    0.0000000   0.0000000   0.0000000   0.0000000   0.0000000   0.0000000   0.0000000   0.0000000   0.0000000
 NMagM=    0.0000000   0.0000000   0.0000000   0.0000000   0.0000000   2.7928460   2.7928460   2.7928460   2.7928460
 AtZNuc=   6.0000000   6.0000000   8.0000000   6.0000000   6.0000000   1.0000000   1.0000000   1.0000000   1.0000000
 Leave Link  101 at Sun Nov 29 12:22:28 2015, MaxMem=    33554432 cpu:         0.0
 (Enter /home/Applications/g09/g09/l103.exe)

 GradGradGradGradGradGradGradGradGradGradGradGradGradGradGradGradGradGrad
 Berny optimization.
 Initialization pass.
                           ----------------------------
                           !    Initial Parameters    !
                           ! (Angstroms and Degrees)  !
 --------------------------                            --------------------------
 ! Name  Definition              Value          Derivative Info.                !
 --------------------------------------------------------------------------------
 ! R1    R(1,2)                  1.3158         estimate D2E/DX2                !
 ! R2    R(1,5)                  1.4466         estimate D2E/DX2                !
 ! R3    R(1,9)                  1.0659         estimate D2E/DX2                !
 ! R4    R(2,3)                  1.3022         estimate D2E/DX2                !
 ! R5    R(2,8)                  1.1118         estimate D2E/DX2                !
 ! R6    R(3,4)                  1.4006         estimate D2E/DX2                !
 ! R7    R(4,5)                  1.284          estimate D2E/DX2                !
 ! R8    R(4,7)                  1.1154         estimate D2E/DX2                !
 ! R9    R(5,6)                  1.1308         estimate D2E/DX2                !
 ! A1    A(2,1,5)              105.042          estimate D2E/DX2                !
 ! A2    A(2,1,9)              127.5792         estimate D2E/DX2                !
 ! A3    A(5,1,9)              127.3787         estimate D2E/DX2                !
 ! A4    A(1,2,3)              110.3149         estimate D2E/DX2                !
 ! A5    A(1,2,8)              134.1385         estimate D2E/DX2                !
 ! A6    A(3,2,8)              115.4286         estimate D2E/DX2                !
 ! A7    A(2,3,4)              109.3149         estimate D2E/DX2                !
 ! A8    A(3,4,5)              106.378          estimate D2E/DX2                !
 ! A9    A(3,4,7)              115.0847         estimate D2E/DX2                !
 ! A10   A(5,4,7)              138.5122         estimate D2E/DX2                !
 ! A11   A(1,5,4)              108.9314         estimate D2E/DX2                !
 ! A12   A(1,5,6)              123.8692         estimate D2E/DX2                !
 ! A13   A(4,5,6)              127.104          estimate D2E/DX2                !
 ! D1    D(5,1,2,3)             -0.3331         estimate D2E/DX2                !
 ! D2    D(5,1,2,8)           -176.0741         estimate D2E/DX2                !
 ! D3    D(9,1,2,3)            179.5136         estimate D2E/DX2                !
 ! D4    D(9,1,2,8)              3.7725         estimate D2E/DX2                !
 ! D5    D(2,1,5,4)              1.1226         estimate D2E/DX2                !
 ! D6    D(2,1,5,6)            177.7925         estimate D2E/DX2                !
 ! D7    D(9,1,5,4)           -178.7245         estimate D2E/DX2                !
 ! D8    D(9,1,5,6)             -2.0545         estimate D2E/DX2                !
 ! D9    D(1,2,3,4)             -0.4986         estimate D2E/DX2                !
 ! D10   D(8,2,3,4)            176.1182         estimate D2E/DX2                !
 ! D11   D(2,3,4,5)              1.216          estimate D2E/DX2                !
 ! D12   D(2,3,4,7)            179.7354         estimate D2E/DX2                !
 ! D13   D(3,4,5,1)             -1.3884         estimate D2E/DX2                !
 ! D14   D(3,4,5,6)           -177.9214         estimate D2E/DX2                !
 ! D15   D(7,4,5,1)           -179.364          estimate D2E/DX2                !
 ! D16   D(7,4,5,6)              4.1031         estimate D2E/DX2                !
 --------------------------------------------------------------------------------
 Trust Radius=3.00D-01 FncErr=1.00D-07 GrdErr=1.00D-07
 Number of steps in this run=     48 maximum allowed number of steps=    100.
 GradGradGradGradGradGradGradGradGradGradGradGradGradGradGradGradGradGrad

 Leave Link  103 at Sun Nov 29 12:22:28 2015, MaxMem=    33554432 cpu:         0.0
 (Enter /home/Applications/g09/g09/l202.exe)
                          Input orientation:                          
 ---------------------------------------------------------------------
 Center     Atomic      Atomic             Coordinates (Angstroms)
 Number     Number       Type             X           Y           Z
 ---------------------------------------------------------------------
      1          6           0        0.917988   -0.731646   -0.038599
      2          6           0       -0.349929   -1.083197   -0.032910
      3          8           0       -1.111824   -0.027211   -0.020229
      4          6           0       -0.310924    1.121759   -0.005544
      5          6           0        0.906518    0.714877   -0.036073
      6          1           0        1.839844    1.352412   -0.003450
      7          1           0       -0.869256    2.087312    0.001461
      8          1           0       -0.883062   -2.057206    0.022699
      9          1           0        1.770102   -1.371995   -0.041658
 ---------------------------------------------------------------------
                    Distance matrix (angstroms):
                    1          2          3          4          5
     1  C    0.000000
     2  C    1.315764   0.000000
     3  O    2.148651   1.302210   0.000000
     4  C    2.224057   2.205471   1.400639   0.000000
     5  C    1.446571   2.193568   2.150500   1.283998   0.000000
     6  H    2.279112   3.275388   3.258218   2.163102   1.130758
     7  H    3.338019   3.212944   2.128501   1.115382   2.244629
     8  H    2.237107   1.111763   2.043295   3.230164   3.300075
     9  H    1.065905   2.139629   3.180315   3.248197   2.258505
                    6          7          8          9
     6  H    0.000000
     7  H    2.807014   0.000000
     8  H    4.363530   4.144595   0.000000
     9  H    2.725567   4.351422   2.740973   0.000000
 Stoichiometry    C4H4O
 Framework group  C1[X(C4H4O)]
 Deg. of freedom    21
 Full point group                 C1      NOp   1
 Largest Abelian subgroup         C1      NOp   1
 Largest concise Abelian subgroup C1      NOp   1
                         Standard orientation:                         
 ---------------------------------------------------------------------
 Center     Atomic      Atomic             Coordinates (Angstroms)
 Number     Number       Type             X           Y           Z
 ---------------------------------------------------------------------
      1          6           0        0.647677    0.979000   -0.002146
      2          6           0        1.107099   -0.253946   -0.005304
      3          8           0        0.120612   -1.104001   -0.005797
      4          6           0       -1.093137   -0.405151    0.008727
      5          6           0       -0.792474    0.843027   -0.008690
      6          1           0       -1.508200    1.717667    0.028094
      7          1           0       -2.007033   -1.044570    0.004888
      8          1           0        2.123094   -0.701742    0.051706
      9          1           0        1.212256    1.883067    0.006176
 ---------------------------------------------------------------------
 Rotational constants (GHZ):     10.0380950      9.3151179      4.8321146
 Leave Link  202 at Sun Nov 29 12:22:28 2015, MaxMem=    33554432 cpu:         0.0
 (Enter /home/Applications/g09/g09/l301.exe)

 Semi-emprical parameters in input format:
 Method=8 CoreType=1 PeptideFC=0.0105570000 RIJScale=0.4899110000
 ****
 H       
 PQN=1 NValence=1 F0ss=0.4577290000 ZetaOverlap=1.0659780000 U=-0.3880320000
 Beta=-0.2381360000 CoreKO=1.1144350000 KON=0,0,0,1.0186160000 KON=1,0,1,1.0557690000
 KON=0,1,1,1.0725930000 KON=2,1,1,1.1590830000 EISol=-0.4188110042 EHeat=0.0830298228
 Alpha=1.5252600000
 GCore=0.0099350000,1.3986240000,2.1461900000
 GCore=0.0003630000,1.5415670000,2.7171030000
 GCore=-0.0012530000,0.5088300000,4.2039300000
 ****
 C       
 PQN=2,2 NValence=4 F0ss=0.4263360000 F0sp=0.4580860000 F0pp=0.3261620000 F2pp=0.2036090000
 G1sp=0.2073130000
 ZetaOverlap=2.1016200000,1.8587190000
 U=-1.9018080000,-1.4557970000
 Beta=-0.4792560000,-0.2700630000 DDN=0,1,0.8034860000 DDN=1,1,0.7591540000
 CoreKO=1.1325510000 KON=0,0,0,1.1996250000 KON=1,0,1,0.8437060000 KON=0,1,1,1.0478550000
 KON=2,1,1,0.8168110000 EISol=-4.4398989268 EHeat=0.2723305520 Alpha=1.4381970000
 DipHyp=1.6068795495
 GCore=0.0008260000,1.4798740000,2.8384620000
 GCore=0.0031480000,1.6675340000,3.8116200000
 GCore=-0.0011560000,1.5029710000,3.9059920000
 GCore=-0.0000920000,1.1754400000,4.8520980000
 ****
 O       
 PQN=2,2 NValence=6 F0ss=0.5413910000 F0sp=0.5145480000 F0pp=0.5091470000 F2pp=0.2175940000
 G1sp=0.4302620000
 ZetaOverlap=3.3296350000,2.5240390000
 U=-3.3343200000,-2.9854240000
 Beta=-0.9082740000,-1.1340310000 DDN=0,1,0.4988900000 DDN=1,1,0.5206270000
 CoreKO=0.9688900000 KON=0,0,0,0.8976510000 KON=1,0,1,0.5186760000 KON=0,1,1,0.8274210000
 KON=2,1,1,0.5315430000 EISol=-11.6164441184 EHeat=0.0949133088 Alpha=2.3722000000
 DipHyp=0.9977225968
 GCore=0.0212480000,1.1747580000,1.6499540000
 GCore=0.0064050000,2.1096700000,2.7148630000
 ****
 
 Standard basis: VSTO-6G (5D, 7F)
 Ernie: Thresh=  0.10000D-02 Tol=  0.10000D-05 Strict=F.
  NNHCO=     0 NNPyr=     0 NCTC=     0               EPep=         0.000000000
    EC=        68.564742208  ECS=         1.730581279   EG=         0.450749618
   EHC=         0.000000000  EAt=       -31.051283842  AtH=         1.516354808
 EPDDG=         0.000000000  ECC=        70.746073106 EAtT=        32.567638650
 There are    24 symmetry adapted cartesian basis functions of A   symmetry.
 There are    24 symmetry adapted basis functions of A   symmetry.
    24 basis functions,   144 primitive gaussians,    24 cartesian basis functions
    13 alpha electrons       13 beta electrons
       nuclear repulsion energy       103.3137117560 Hartrees.
 IExCor=    0 DFT=F Ex=HF Corr=None ExCW=0 ScaHFX=  1.000000
 ScaDFX=  1.000000  1.000000  1.000000  1.000000 ScalE2=  1.000000  1.000000
 IRadAn=      0 IRanWt=     -1 IRanGd=            0 ICorTp=0 IEmpDi=  4
 Integral buffers will be    131072 words long.
 Regular integral format.
 Two-electron integral symmetry is turned off.
 Leave Link  301 at Sun Nov 29 12:22:28 2015, MaxMem=    33554432 cpu:         0.0
 (Enter /home/Applications/g09/g09/l302.exe)
 Do NDO integrals.
 NPDir=0 NMtPBC=     1 NCelOv=     1 NCel=       1 NClECP=     1 NCelD=      1
         NCelK=      1 NCelE2=     1 NClLst=     1 CellRange=     0.0.
 One-electron integrals computed using PRISM.
 NBasis=    24 RedAO= F EigKep=  0.00D+00  NBF=    24
 NBsUse=    24 1.00D-04 EigRej=  0.00D+00 NBFU=    24
 Leave Link  302 at Sun Nov 29 12:22:28 2015, MaxMem=    33554432 cpu:         0.0
 (Enter /home/Applications/g09/g09/l303.exe)
 DipDrv:  MaxL=1.
 Leave Link  303 at Sun Nov 29 12:22:28 2015, MaxMem=    33554432 cpu:         0.0
 (Enter /home/Applications/g09/g09/l401.exe)
 Simple Huckel Guess.
 JPrj=0 DoOrth=F DoCkMO=F.
 Leave Link  401 at Sun Nov 29 12:22:28 2015, MaxMem=    33554432 cpu:         0.0
 (Enter /home/Applications/g09/g09/l502.exe)
 Closed shell SCF:
 Using DIIS extrapolation, IDIIS=  1040.
 Overlap will be assumed to be unity.
 Two-electron integral symmetry not used.
 Keep J ints in memory in canonical form, NReq=888082.
 IVT=       79475 IEndB=       79475 NGot=    33554432 MDV=    33473473
 LenX=    33473473 LenY=    33472456
 Requested convergence on RMS density matrix=1.00D-08 within 128 cycles.
 Requested convergence on MAX density matrix=1.00D-06.
 Requested convergence on             energy=1.00D-06.
 No special actions if energy rises.
 FoFCou: FMM=F IPFlag=           0 FMFlag=           0 FMFlg1=           0
         NFxFlg=           0 DoJE=F BraDBF=F KetDBF=F FulRan=T
         wScrn=  0.000000 ICntrl=     600 IOpCl=  2 I1Cent=           0 NGrid=           0
         NMat0=    1 NMatS0=     54 NMatT0=    0 NMatD0=    1 NMtDS0=    0 NMtDT0=    0
 Symmetry not used in FoFCou.

 Cycle   1  Pass 1  IDiag  1:
 E=  1.01608709790419    
 DIIS: error= 4.81D-02 at cycle   1 NSaved=   1.
 NSaved= 1 IEnMin= 1 EnMin=  1.01608709790419     IErMin= 1 ErrMin= 4.81D-02
 ErrMax= 4.81D-02  0.00D+00 EMaxC= 1.00D-01 BMatC= 7.40D-02 BMatP= 7.40D-02
 IDIUse=3 WtCom= 5.19D-01 WtEn= 4.81D-01
 Coeff-Com:  0.100D+01
 Coeff-En:   0.100D+01
 Coeff:      0.100D+01
 GapD=    2.000 DampG=2.000 DampE=0.500 DampFc=1.0000 IDamp=-1.
 RMSDP=1.87D-02 MaxDP=1.70D-01              OVMax= 0.00D+00

 Cycle   2  Pass 1  IDiag  1:
 E= 0.786453310084369     Delta-E=       -0.229633787820 Rises=F Damp=F
 DIIS: error= 1.88D-02 at cycle   2 NSaved=   2.
 NSaved= 2 IEnMin= 2 EnMin= 0.786453310084369     IErMin= 2 ErrMin= 1.88D-02
 ErrMax= 1.88D-02  0.00D+00 EMaxC= 1.00D-01 BMatC= 9.23D-03 BMatP= 7.40D-02
 IDIUse=3 WtCom= 8.12D-01 WtEn= 1.88D-01
 Coeff-Com: -0.451D+00 0.145D+01
 Coeff-En:   0.000D+00 0.100D+01
 Coeff:     -0.367D+00 0.137D+01
 RMSDP=9.44D-03 MaxDP=5.77D-02 DE=-2.30D-01 OVMax= 0.00D+00

 Cycle   3  Pass 1  IDiag  3:
 E= 0.750480457435387     Delta-E=       -0.035972852649 Rises=F Damp=F
 DIIS: error= 3.06D-03 at cycle   3 NSaved=   3.
 NSaved= 3 IEnMin= 3 EnMin= 0.750480457435387     IErMin= 3 ErrMin= 3.06D-03
 ErrMax= 3.06D-03  0.00D+00 EMaxC= 1.00D-01 BMatC= 5.66D-04 BMatP= 9.23D-03
 IDIUse=3 WtCom= 9.69D-01 WtEn= 3.06D-02
 Coeff-Com:  0.234D+00-0.885D+00 0.165D+01
 Coeff-En:   0.000D+00 0.000D+00 0.100D+01
 Coeff:      0.227D+00-0.857D+00 0.163D+01
 Gap=     0.384 Goal=   None    Shift=    0.000
 RMSDP=3.27D-03 MaxDP=2.01D-02 DE=-3.60D-02 OVMax= 1.67D-02

 Cycle   4  Pass 1  IDiag  3:
 E= 0.747275941465674     Delta-E=       -0.003204515970 Rises=F Damp=F
 DIIS: error= 1.28D-03 at cycle   4 NSaved=   4.
 NSaved= 4 IEnMin= 4 EnMin= 0.747275941465674     IErMin= 4 ErrMin= 1.28D-03
 ErrMax= 1.28D-03  0.00D+00 EMaxC= 1.00D-01 BMatC= 5.20D-05 BMatP= 5.66D-04
 IDIUse=3 WtCom= 9.87D-01 WtEn= 1.28D-02
 Coeff-Com: -0.111D-01 0.401D-01-0.266D+00 0.124D+01
 Coeff-En:   0.000D+00 0.000D+00 0.000D+00 0.100D+01
 Coeff:     -0.109D-01 0.396D-01-0.263D+00 0.123D+01
 Gap=     0.386 Goal=   None    Shift=    0.000
 RMSDP=1.08D-03 MaxDP=8.75D-03 DE=-3.20D-03 OVMax= 1.19D-02

 Cycle   5  Pass 1  IDiag  3:
 E= 0.746899362611245     Delta-E=       -0.000376578854 Rises=F Damp=F
 DIIS: error= 7.67D-04 at cycle   5 NSaved=   5.
 NSaved= 5 IEnMin= 5 EnMin= 0.746899362611245     IErMin= 5 ErrMin= 7.67D-04
 ErrMax= 7.67D-04  0.00D+00 EMaxC= 1.00D-01 BMatC= 1.86D-05 BMatP= 5.20D-05
 IDIUse=3 WtCom= 9.92D-01 WtEn= 7.67D-03
 Coeff-Com: -0.308D-01 0.124D+00-0.106D+00-0.989D+00 0.200D+01
 Coeff-En:   0.000D+00 0.000D+00 0.000D+00 0.000D+00 0.100D+01
 Coeff:     -0.306D-01 0.124D+00-0.105D+00-0.982D+00 0.199D+01
 Gap=     0.386 Goal=   None    Shift=    0.000
 RMSDP=1.04D-03 MaxDP=9.05D-03 DE=-3.77D-04 OVMax= 1.22D-02

 Cycle   6  Pass 1  IDiag  3:
 E= 0.746700671269579     Delta-E=       -0.000198691342 Rises=F Damp=F
 DIIS: error= 3.79D-04 at cycle   6 NSaved=   6.
 NSaved= 6 IEnMin= 6 EnMin= 0.746700671269579     IErMin= 6 ErrMin= 3.79D-04
 ErrMax= 3.79D-04  0.00D+00 EMaxC= 1.00D-01 BMatC= 4.14D-06 BMatP= 1.86D-05
 IDIUse=3 WtCom= 9.96D-01 WtEn= 3.79D-03
 Coeff-Com:  0.185D-01-0.756D-01 0.612D-01 0.740D+00-0.187D+01 0.212D+01
 Coeff-En:   0.000D+00 0.000D+00 0.000D+00 0.000D+00 0.000D+00 0.100D+01
 Coeff:      0.184D-01-0.753D-01 0.610D-01 0.737D+00-0.186D+01 0.212D+01
 Gap=     0.387 Goal=   None    Shift=    0.000
 RMSDP=6.13D-04 MaxDP=5.76D-03 DE=-1.99D-04 OVMax= 6.99D-03

 Cycle   7  Pass 1  IDiag  3:
 E= 0.746650655423068     Delta-E=       -0.000050015847 Rises=F Damp=F
 DIIS: error= 1.90D-04 at cycle   7 NSaved=   7.
 NSaved= 7 IEnMin= 7 EnMin= 0.746650655423068     IErMin= 7 ErrMin= 1.90D-04
 ErrMax= 1.90D-04  0.00D+00 EMaxC= 1.00D-01 BMatC= 6.03D-07 BMatP= 4.14D-06
 IDIUse=3 WtCom= 9.98D-01 WtEn= 1.90D-03
 Coeff-Com: -0.507D-02 0.197D-01-0.114D-01-0.291D+00 0.818D+00-0.136D+01
 Coeff-Com:  0.183D+01
 Coeff-En:   0.000D+00 0.000D+00 0.000D+00 0.000D+00 0.000D+00 0.000D+00
 Coeff-En:   0.100D+01
 Coeff:     -0.506D-02 0.196D-01-0.114D-01-0.291D+00 0.816D+00-0.136D+01
 Coeff:      0.183D+01
 Gap=     0.387 Goal=   None    Shift=    0.000
 RMSDP=2.43D-04 MaxDP=2.73D-03 DE=-5.00D-05 OVMax= 2.52D-03

 Cycle   8  Pass 1  IDiag  3:
 E= 0.746643041172263     Delta-E=       -0.000007614251 Rises=F Damp=F
 DIIS: error= 8.55D-05 at cycle   8 NSaved=   8.
 NSaved= 8 IEnMin= 8 EnMin= 0.746643041172263     IErMin= 8 ErrMin= 8.55D-05
 ErrMax= 8.55D-05  0.00D+00 EMaxC= 1.00D-01 BMatC= 1.70D-07 BMatP= 6.03D-07
 IDIUse=1 WtCom= 1.00D+00 WtEn= 0.00D+00
 Coeff-Com:  0.105D-02-0.384D-02-0.566D-02 0.171D+00-0.462D+00 0.842D+00
 Coeff-Com: -0.142D+01 0.188D+01
 Coeff:      0.105D-02-0.384D-02-0.566D-02 0.171D+00-0.462D+00 0.842D+00
 Coeff:     -0.142D+01 0.188D+01
 Gap=     0.387 Goal=   None    Shift=    0.000
 RMSDP=9.97D-05 MaxDP=9.18D-04 DE=-7.61D-06 OVMax= 9.67D-04

 Cycle   9  Pass 1  IDiag  3:
 E= 0.746640782194575     Delta-E=       -0.000002258978 Rises=F Damp=F
 DIIS: error= 7.16D-05 at cycle   9 NSaved=   9.
 NSaved= 9 IEnMin= 9 EnMin= 0.746640782194575     IErMin= 9 ErrMin= 7.16D-05
 ErrMax= 7.16D-05  0.00D+00 EMaxC= 1.00D-01 BMatC= 1.01D-07 BMatP= 1.70D-07
 IDIUse=1 WtCom= 1.00D+00 WtEn= 0.00D+00
 Coeff-Com: -0.129D-02 0.424D-02 0.285D-01-0.463D+00 0.117D+01-0.207D+01
 Coeff-Com:  0.356D+01-0.629D+01 0.505D+01
 Coeff:     -0.129D-02 0.424D-02 0.285D-01-0.463D+00 0.117D+01-0.207D+01
 Coeff:      0.356D+01-0.629D+01 0.505D+01
 Gap=     0.387 Goal=   None    Shift=    0.000
 RMSDP=2.44D-04 MaxDP=2.37D-03 DE=-2.26D-06 OVMax= 2.32D-03

 Cycle  10  Pass 1  IDiag  3:
 E= 0.746637699916008     Delta-E=       -0.000003082279 Rises=F Damp=F
 DIIS: error= 2.31D-05 at cycle  10 NSaved=  10.
 NSaved=10 IEnMin=10 EnMin= 0.746637699916008     IErMin=10 ErrMin= 2.31D-05
 ErrMax= 2.31D-05  0.00D+00 EMaxC= 1.00D-01 BMatC= 1.06D-08 BMatP= 1.01D-07
 IDIUse=1 WtCom= 1.00D+00 WtEn= 0.00D+00
 Coeff-Com: -0.127D-03 0.957D-03-0.168D-01 0.195D+00-0.483D+00 0.863D+00
 Coeff-Com: -0.153D+01 0.291D+01-0.271D+01 0.177D+01
 Coeff:     -0.127D-03 0.957D-03-0.168D-01 0.195D+00-0.483D+00 0.863D+00
 Coeff:     -0.153D+01 0.291D+01-0.271D+01 0.177D+01
 Gap=     0.387 Goal=   None    Shift=    0.000
 RMSDP=7.16D-05 MaxDP=7.41D-04 DE=-3.08D-06 OVMax= 6.26D-04

 Cycle  11  Pass 1  IDiag  3:
 E= 0.746637469828926     Delta-E=       -0.000000230087 Rises=F Damp=F
 DIIS: error= 4.36D-06 at cycle  11 NSaved=  11.
 NSaved=11 IEnMin=11 EnMin= 0.746637469828926     IErMin=11 ErrMin= 4.36D-06
 ErrMax= 4.36D-06  0.00D+00 EMaxC= 1.00D-01 BMatC= 8.54D-10 BMatP= 1.06D-08
 IDIUse=1 WtCom= 1.00D+00 WtEn= 0.00D+00
 Coeff-Com:  0.341D-04-0.393D-03 0.822D-02-0.974D-01 0.243D+00-0.436D+00
 Coeff-Com:  0.773D+00-0.147D+01 0.137D+01-0.104D+01 0.165D+01
 Coeff:      0.341D-04-0.393D-03 0.822D-02-0.974D-01 0.243D+00-0.436D+00
 Coeff:      0.773D+00-0.147D+01 0.137D+01-0.104D+01 0.165D+01
 Gap=     0.387 Goal=   None    Shift=    0.000
 RMSDP=1.19D-05 MaxDP=1.22D-04 DE=-2.30D-07 OVMax= 9.00D-05

 Cycle  12  Pass 1  IDiag  3:
 E= 0.746637461331247     Delta-E=       -0.000000008498 Rises=F Damp=F
 DIIS: error= 1.43D-06 at cycle  12 NSaved=  12.
 NSaved=12 IEnMin=12 EnMin= 0.746637461331247     IErMin=12 ErrMin= 1.43D-06
 ErrMax= 1.43D-06  0.00D+00 EMaxC= 1.00D-01 BMatC= 5.52D-11 BMatP= 8.54D-10
 IDIUse=1 WtCom= 1.00D+00 WtEn= 0.00D+00
 Coeff-Com: -0.146D-04 0.191D-03-0.400D-02 0.479D-01-0.120D+00 0.217D+00
 Coeff-Com: -0.387D+00 0.742D+00-0.691D+00 0.537D+00-0.101D+01 0.167D+01
 Coeff:     -0.146D-04 0.191D-03-0.400D-02 0.479D-01-0.120D+00 0.217D+00
 Coeff:     -0.387D+00 0.742D+00-0.691D+00 0.537D+00-0.101D+01 0.167D+01
 Gap=     0.387 Goal=   None    Shift=    0.000
 RMSDP=1.60D-06 MaxDP=1.31D-05 DE=-8.50D-09 OVMax= 1.54D-05

 Cycle  13  Pass 1  IDiag  3:
 E= 0.746637460897006     Delta-E=       -0.000000000434 Rises=F Damp=F
 DIIS: error= 3.23D-07 at cycle  13 NSaved=  13.
 NSaved=13 IEnMin=13 EnMin= 0.746637460897006     IErMin=13 ErrMin= 3.23D-07
 ErrMax= 3.23D-07  0.00D+00 EMaxC= 1.00D-01 BMatC= 2.53D-12 BMatP= 5.52D-11
 IDIUse=1 WtCom= 1.00D+00 WtEn= 0.00D+00
 Coeff-Com:  0.689D-05-0.695D-04 0.119D-02-0.141D-01 0.357D-01-0.651D-01
 Coeff-Com:  0.117D+00-0.227D+00 0.212D+00-0.172D+00 0.340D+00-0.704D+00
 Coeff-Com:  0.148D+01
 Coeff:      0.689D-05-0.695D-04 0.119D-02-0.141D-01 0.357D-01-0.651D-01
 Coeff:      0.117D+00-0.227D+00 0.212D+00-0.172D+00 0.340D+00-0.704D+00
 Coeff:      0.148D+01
 Gap=     0.387 Goal=   None    Shift=    0.000
 RMSDP=4.37D-07 MaxDP=2.90D-06 DE=-4.34D-10 OVMax= 4.96D-06

 Cycle  14  Pass 1  IDiag  3:
 E= 0.746637460875306     Delta-E=       -0.000000000022 Rises=F Damp=F
 DIIS: error= 7.96D-08 at cycle  14 NSaved=  14.
 NSaved=14 IEnMin=14 EnMin= 0.746637460875306     IErMin=14 ErrMin= 7.96D-08
 ErrMax= 7.96D-08  0.00D+00 EMaxC= 1.00D-01 BMatC= 1.51D-13 BMatP= 2.53D-12
 IDIUse=1 WtCom= 1.00D+00 WtEn= 0.00D+00
 Coeff-Com: -0.374D-06 0.111D-04-0.208D-03 0.257D-02-0.659D-02 0.123D-01
 Coeff-Com: -0.223D-01 0.443D-01-0.419D-01 0.367D-01-0.774D-01 0.180D+00
 Coeff-Com: -0.564D+00 0.144D+01
 Coeff:     -0.374D-06 0.111D-04-0.208D-03 0.257D-02-0.659D-02 0.123D-01
 Coeff:     -0.223D-01 0.443D-01-0.419D-01 0.367D-01-0.774D-01 0.180D+00
 Coeff:     -0.564D+00 0.144D+01
 Gap=     0.387 Goal=   None    Shift=    0.000
 RMSDP=9.74D-08 MaxDP=8.32D-07 DE=-2.17D-11 OVMax= 8.16D-07

 Cycle  15  Pass 1  IDiag  3:
 E= 0.746637460874041     Delta-E=       -0.000000000001 Rises=F Damp=F
 DIIS: error= 1.43D-08 at cycle  15 NSaved=  15.
 NSaved=15 IEnMin=15 EnMin= 0.746637460874041     IErMin=15 ErrMin= 1.43D-08
 ErrMax= 1.43D-08  0.00D+00 EMaxC= 1.00D-01 BMatC= 7.73D-15 BMatP= 1.51D-13
 IDIUse=1 WtCom= 1.00D+00 WtEn= 0.00D+00
 Coeff-Com:  0.282D-06-0.293D-05 0.172D-04-0.210D-03 0.592D-03-0.125D-02
 Coeff-Com:  0.243D-02-0.544D-02 0.538D-02-0.602D-02 0.151D-01-0.430D-01
 Coeff-Com:  0.180D+00-0.666D+00 0.152D+01
 Coeff:      0.282D-06-0.293D-05 0.172D-04-0.210D-03 0.592D-03-0.125D-02
 Coeff:      0.243D-02-0.544D-02 0.538D-02-0.602D-02 0.151D-01-0.430D-01
 Coeff:      0.180D+00-0.666D+00 0.152D+01
 Gap=     0.387 Goal=   None    Shift=    0.000
 RMSDP=2.56D-08 MaxDP=2.09D-07 DE=-1.26D-12 OVMax= 2.45D-07

 Cycle  16  Pass 1  IDiag  3:
 E= 0.746637460874055     Delta-E=        0.000000000000 Rises=F Damp=F
 DIIS: error= 2.15D-09 at cycle  16 NSaved=  16.
 NSaved=16 IEnMin=15 EnMin= 0.746637460874041     IErMin=16 ErrMin= 2.15D-09
 ErrMax= 2.15D-09  0.00D+00 EMaxC= 1.00D-01 BMatC= 2.87D-16 BMatP= 7.73D-15
 IDIUse=1 WtCom= 1.00D+00 WtEn= 0.00D+00
 Large coefficients: NSaved= 16 BigCof=    0.00 CofMax=   10.00 Det=-2.86D-16
 Inversion failed.  Reducing to 15 matrices.
 Coeff-Com:  0.520D-06 0.100D-05-0.417D-05-0.166D-04 0.983D-04-0.251D-03
 Coeff-Com:  0.787D-03-0.856D-03 0.141D-02-0.415D-02 0.137D-01-0.652D-01
 Coeff-Com:  0.271D+00-0.735D+00 0.152D+01
 Coeff:      0.520D-06 0.100D-05-0.417D-05-0.166D-04 0.983D-04-0.251D-03
 Coeff:      0.787D-03-0.856D-03 0.141D-02-0.415D-02 0.137D-01-0.652D-01
 Coeff:      0.271D+00-0.735D+00 0.152D+01
 Gap=     0.387 Goal=   None    Shift=    0.000
 RMSDP=2.77D-09 MaxDP=1.46D-08 DE= 1.42D-14 OVMax= 1.86D-08

 Cycle  17  Pass 2  IDiag  1:
 SCF Done:  E(RAM1) =  0.746637460874     A.U. after   17 cycles
            NFock= 16  Conv=0.28D-08     -V/T= 1.0496
 KE=-1.506776841034D+01 PE=-1.728744353703D+02 EE= 8.537512948553D+01
 Leave Link  502 at Sun Nov 29 12:22:28 2015, MaxMem=    33554432 cpu:         0.0
 (Enter /home/Applications/g09/g09/l601.exe)
 Copying SCF densities to generalized density rwf, IOpCl= 0 IROHF=0.

 **********************************************************************

            Population analysis using the SCF density.

 **********************************************************************

 Orbital symmetries:
       Occupied  (A) (A) (A) (A) (A) (A) (A) (A) (A) (A) (A) (A)
                 (A)
       Virtual   (A) (A) (A) (A) (A) (A) (A) (A) (A) (A) (A)
 The electronic state is 1-A.
 Alpha  occ. eigenvalues --   -1.21798  -0.94344  -0.92278  -0.75376  -0.68381
 Alpha  occ. eigenvalues --   -0.66011  -0.62014  -0.52867  -0.50473  -0.49770
 Alpha  occ. eigenvalues --   -0.48833  -0.41236  -0.36216
 Alpha virt. eigenvalues --    0.02470   0.03173   0.11702   0.13940   0.15335
 Alpha virt. eigenvalues --    0.16244   0.20359   0.20786   0.22618   0.24151
 Alpha virt. eigenvalues --    0.25277
          Condensed to atoms (all electrons):
               1          2          3          4          5          6
     1  C    4.718233   0.000000   0.000000   0.000000   0.000000   0.000000
     2  C    0.000000   3.681706   0.000000   0.000000   0.000000   0.000000
     3  O    0.000000   0.000000   6.433171   0.000000   0.000000   0.000000
     4  C    0.000000   0.000000   0.000000   3.850942   0.000000   0.000000
     5  C    0.000000   0.000000   0.000000   0.000000   4.490162   0.000000
     6  H    0.000000   0.000000   0.000000   0.000000   0.000000   0.688377
     7  H    0.000000   0.000000   0.000000   0.000000   0.000000   0.000000
     8  H    0.000000   0.000000   0.000000   0.000000   0.000000   0.000000
     9  H    0.000000   0.000000   0.000000   0.000000   0.000000   0.000000
               7          8          9
     1  C    0.000000   0.000000   0.000000
     2  C    0.000000   0.000000   0.000000
     3  O    0.000000   0.000000   0.000000
     4  C    0.000000   0.000000   0.000000
     5  C    0.000000   0.000000   0.000000
     6  H    0.000000   0.000000   0.000000
     7  H    0.717363   0.000000   0.000000
     8  H    0.000000   0.730599   0.000000
     9  H    0.000000   0.000000   0.689447
 Mulliken charges:
               1
     1  C   -0.718233
     2  C    0.318294
     3  O   -0.433171
     4  C    0.149058
     5  C   -0.490162
     6  H    0.311623
     7  H    0.282637
     8  H    0.269401
     9  H    0.310553
 Sum of Mulliken charges =   0.00000
 Mulliken charges with hydrogens summed into heavy atoms:
               1
     1  C   -0.407680
     2  C    0.587695
     3  O   -0.433171
     4  C    0.431695
     5  C   -0.178539
 Charge=              0.0000 electrons
 Dipole moment (field-independent basis, Debye):
    X=             -0.0695    Y=             -0.7359    Z=              0.1365  Tot=              0.7517
 N-N= 1.033137117560D+02 E-N=-1.728744353577D+02  KE=-1.506776841034D+01
 Leave Link  601 at Sun Nov 29 12:22:28 2015, MaxMem=    33554432 cpu:         0.0
 (Enter /home/Applications/g09/g09/l701.exe)
 Compute integral first derivatives.
 ... and contract with generalized density number  0.
 Leave Link  701 at Sun Nov 29 12:22:28 2015, MaxMem=    33554432 cpu:         0.0
 (Enter /home/Applications/g09/g09/l702.exe)
 L702 exits ... SP integral derivatives will be done elsewhere.
 Leave Link  702 at Sun Nov 29 12:22:28 2015, MaxMem=    33554432 cpu:         0.0
 (Enter /home/Applications/g09/g09/l703.exe)
 Compute integral first derivatives, UseDBF=F ICtDFT=           0.
 Integral derivatives from FoFJK, PRISM(SPDF).
 Calling FoFJK, ICntrl=      2127 FMM=F ISym2X=0 I1Cent= 0 IOpClX= 0 NMat=1 NMatS=1 NMatT=0.
 FoFJK:  IHMeth= 8 ICntrl=    2127 DoSepK=F KAlg= 0 I1Cent=   0 FoldK=F
 IRaf=         0 NMat=   1 IRICut=       1 DoRegI=T DoRafI=F ISym2E= 0.
 FoFCou: FMM=F IPFlag=           0 FMFlag=      100000 FMFlg1=         800
         NFxFlg=           0 DoJE=F BraDBF=F KetDBF=F FulRan=T
         wScrn=  0.000000 ICntrl=    2127 IOpCl=  0 I1Cent=           0 NGrid=           0
         NMat0=    1 NMatS0=      1 NMatT0=    0 NMatD0=    1 NMtDS0=    0 NMtDT0=    0
 Symmetry not used in FoFCou.
 Leave Link  703 at Sun Nov 29 12:22:28 2015, MaxMem=    33554432 cpu:         0.0
 (Enter /home/Applications/g09/g09/l716.exe)
 Dipole        =-2.73536115D-02-2.89533631D-01 5.37202685D-02
 ***** Axes restored to original set *****
 -------------------------------------------------------------------
 Center     Atomic                   Forces (Hartrees/Bohr)
 Number     Number              X              Y              Z
 -------------------------------------------------------------------
      1        6           0.046868031    0.015261923   -0.002379110
      2        6          -0.024930787   -0.055937620    0.004001186
      3        8          -0.065060551    0.042105518    0.001667980
      4        6          -0.077046874    0.025740273   -0.002763224
      5        6           0.111054346    0.000298873    0.003969462
      6        1          -0.014585600   -0.015810068   -0.002213178
      7        1           0.005908938   -0.012214998    0.000442438
      8        1           0.004247741    0.003324155   -0.002488283
      9        1           0.013544757   -0.002768056   -0.000237272
 -------------------------------------------------------------------
 Cartesian Forces:  Max     0.111054346 RMS     0.034450185
 Leave Link  716 at Sun Nov 29 12:22:28 2015, MaxMem=    33554432 cpu:         0.0
 (Enter /home/Applications/g09/g09/l103.exe)

 GradGradGradGradGradGradGradGradGradGradGradGradGradGradGradGradGradGrad
 Berny optimization.
 FormGI is forming the generalized inverse of G from B-inverse, IUseBI=4.
 Internal  Forces:  Max     0.090837767 RMS     0.021929811
 Search for a local minimum.
 Step number   1 out of a maximum of   48
 All quantities printed in internal units (Hartrees-Bohrs-Radians)
 RMS Force = .21930D-01 SwitMx=.10000D-02 MixMth= 1
 Mixed Optimization -- RFO/linear search
 Second derivative matrix not updated -- first step.
 ITU=  0
     Eigenvalues ---    0.02107   0.02383   0.02555   0.02901   0.03158
     Eigenvalues ---    0.03307   0.15960   0.15968   0.15992   0.16000
     Eigenvalues ---    0.22000   0.22897   0.30498   0.32037   0.32414
     Eigenvalues ---    0.36850   0.37752   0.43363   0.56996   0.63020
     Eigenvalues ---    0.69737
 RFO step:  Lambda=-2.99627562D-02 EMin= 2.10651498D-02
 Linear search not attempted -- first point.
 Iteration  1 RMS(Cart)=  0.04040877 RMS(Int)=  0.00078312
 Iteration  2 RMS(Cart)=  0.00083701 RMS(Int)=  0.00028196
 Iteration  3 RMS(Cart)=  0.00000048 RMS(Int)=  0.00028196
 ITry= 1 IFail=0 DXMaxC= 1.54D-01 DCOld= 1.00D+10 DXMaxT= 3.00D-01 DXLimC= 3.00D+00 Rises=F
 Variable       Old X    -DE/DX   Delta X   Delta X   Delta X     New X
                                 (Linear)    (Quad)   (Total)
    R1        2.48643   0.06597   0.00000   0.10007   0.09992   2.58635
    R2        2.73362  -0.00207   0.00000  -0.00566  -0.00573   2.72789
    R3        2.01427   0.01249   0.00000   0.03066   0.03066   2.04492
    R4        2.46082   0.06044   0.00000   0.08732   0.08730   2.54812
    R5        2.10093  -0.00507   0.00000  -0.01433  -0.01433   2.08660
    R6        2.64682   0.01157   0.00000   0.02415   0.02429   2.67111
    R7        2.42640   0.09084   0.00000   0.12107   0.12118   2.54759
    R8        2.10777  -0.01353   0.00000  -0.03862  -0.03862   2.06915
    R9        2.13682  -0.02102   0.00000  -0.06275  -0.06275   2.07407
    A1        1.83333   0.00149   0.00000   0.00354   0.00331   1.83664
    A2        2.22668   0.00522   0.00000   0.02963   0.02975   2.25642
    A3        2.22318  -0.00671   0.00000  -0.03318  -0.03306   2.19011
    A4        1.92536   0.00831   0.00000   0.03326   0.03297   1.95833
    A5        2.34116  -0.00628   0.00000  -0.02733  -0.02738   2.31378
    A6        2.01461  -0.00192   0.00000  -0.00419  -0.00421   2.01040
    A7        1.90790  -0.01858   0.00000  -0.06636  -0.06624   1.84166
    A8        1.85665   0.01612   0.00000   0.06255   0.06272   1.91936
    A9        2.00861  -0.00913   0.00000  -0.03673  -0.03686   1.97175
   A10        2.41749  -0.00696   0.00000  -0.02540  -0.02554   2.39196
   A11        1.90121  -0.00729   0.00000  -0.03234  -0.03246   1.86875
   A12        2.16193  -0.00152   0.00000  -0.01046  -0.01061   2.15131
   A13        2.21838   0.00891   0.00000   0.04449   0.04434   2.26272
    D1       -0.00581   0.00063   0.00000   0.01323   0.01361   0.00780
    D2       -3.07307  -0.00129   0.00000  -0.01855  -0.01826  -3.09133
    D3        3.13310   0.00052   0.00000   0.01211   0.01249  -3.13759
    D4        0.06584  -0.00140   0.00000  -0.01967  -0.01938   0.04647
    D5        0.01959  -0.00162   0.00000  -0.02517  -0.02441  -0.00482
    D6        3.10307   0.00027   0.00000   0.00581   0.00583   3.10890
    D7       -3.11933  -0.00154   0.00000  -0.02419  -0.02347   3.14038
    D8       -0.03586   0.00035   0.00000   0.00679   0.00678  -0.02908
    D9       -0.00870  -0.00006   0.00000   0.00116   0.00116  -0.00754
   D10        3.07384   0.00116   0.00000   0.02493   0.02565   3.09950
   D11        0.02122  -0.00103   0.00000  -0.01710  -0.01703   0.00419
   D12        3.13697  -0.00044   0.00000  -0.00492  -0.00457   3.13240
   D13       -0.02423   0.00107   0.00000   0.02412   0.02467   0.00043
   D14       -3.10531  -0.00043   0.00000  -0.00568  -0.00557  -3.11089
   D15       -3.13049   0.00013   0.00000   0.00706   0.00741  -3.12308
   D16        0.07161  -0.00137   0.00000  -0.02273  -0.02283   0.04879
         Item               Value     Threshold  Converged?
 Maximum Force            0.090838     0.000450     NO 
 RMS     Force            0.021930     0.000300     NO 
 Maximum Displacement     0.153699     0.001800     NO 
 RMS     Displacement     0.040497     0.001200     NO 
 Predicted change in Energy=-1.589740D-02
 Lowest energy point so far.  Saving SCF results.
 GradGradGradGradGradGradGradGradGradGradGradGradGradGradGradGradGradGrad

 Leave Link  103 at Sun Nov 29 12:22:28 2015, MaxMem=    33554432 cpu:         0.0
 (Enter /home/Applications/g09/g09/l202.exe)
                          Input orientation:                          
 ---------------------------------------------------------------------
 Center     Atomic      Atomic             Coordinates (Angstroms)
 Number     Number       Type             X           Y           Z
 ---------------------------------------------------------------------
      1          6           0        0.944320   -0.724211   -0.037807
      2          6           0       -0.377441   -1.079026   -0.022747
      3          8           0       -1.193158   -0.005398   -0.011429
      4          6           0       -0.337506    1.119686   -0.009505
      5          6           0        0.949688    0.719259   -0.024747
      6          1           0        1.869507    1.317622   -0.002027
      7          1           0       -0.881220    2.070097   -0.009786
      8          1           0       -0.887816   -2.057397    0.016273
      9          1           0        1.823083   -1.355527   -0.052529
 ---------------------------------------------------------------------
                    Distance matrix (angstroms):
                    1          2          3          4          5
     1  C    0.000000
     2  C    1.368640   0.000000
     3  O    2.255261   1.348406   0.000000
     4  C    2.245849   2.199115   1.413492   0.000000
     5  C    1.443539   2.234973   2.262100   1.348125   0.000000
     6  H    2.241948   3.285290   3.336224   2.215884   1.097553
     7  H    3.337895   3.189191   2.098806   1.094946   2.275348
     8  H    2.266502   1.104181   2.074778   3.224494   3.329853
     9  H    1.082128   2.218027   3.304882   3.285829   2.251295
                    6          7          8          9
     6  H    0.000000
     7  H    2.851803   0.000000
     8  H    4.358201   4.127582   0.000000
     9  H    2.674029   4.364628   2.801129   0.000000
 Stoichiometry    C4H4O
 Framework group  C1[X(C4H4O)]
 Deg. of freedom    21
 Full point group                 C1      NOp   1
 RotChk:  IX=0 Diff= 2.37D-01
 Largest Abelian subgroup         C1      NOp   1
 Largest concise Abelian subgroup C1      NOp   1
                         Standard orientation:                         
 ---------------------------------------------------------------------
 Center     Atomic      Atomic             Coordinates (Angstroms)
 Number     Number       Type             X           Y           Z
 ---------------------------------------------------------------------
      1          6           0        0.464047    1.111759   -0.005803
      2          6           0        1.139338   -0.078675   -0.001066
      3          8           0        0.304899   -1.137877   -0.002457
      4          6           0       -0.998989   -0.592150    0.001760
      5          6           0       -0.934555    0.754434    0.000227
      6          1           0       -1.744760    1.494296    0.028407
      7          1           0       -1.782427   -1.357023   -0.008143
      8          1           0        2.214417   -0.327446    0.038092
      9          1           0        0.854524    2.120974   -0.009410
 ---------------------------------------------------------------------
 Rotational constants (GHZ):      9.4269235      9.0580529      4.6196495
 Leave Link  202 at Sun Nov 29 12:22:28 2015, MaxMem=    33554432 cpu:         0.0
 (Enter /home/Applications/g09/g09/l301.exe)

 Semi-emprical parameters in input format:
 Method=8 CoreType=1 PeptideFC=0.0105570000 RIJScale=0.4899110000
 ****
 H       
 PQN=1 NValence=1 F0ss=0.4577290000 ZetaOverlap=1.0659780000 U=-0.3880320000
 Beta=-0.2381360000 CoreKO=1.1144350000 KON=0,0,0,1.0186160000 KON=1,0,1,1.0557690000
 KON=0,1,1,1.0725930000 KON=2,1,1,1.1590830000 EISol=-0.4188110042 EHeat=0.0830298228
 Alpha=1.5252600000
 GCore=0.0099350000,1.3986240000,2.1461900000
 GCore=0.0003630000,1.5415670000,2.7171030000
 GCore=-0.0012530000,0.5088300000,4.2039300000
 ****
 C       
 PQN=2,2 NValence=4 F0ss=0.4263360000 F0sp=0.4580860000 F0pp=0.3261620000 F2pp=0.2036090000
 G1sp=0.2073130000
 ZetaOverlap=2.1016200000,1.8587190000
 U=-1.9018080000,-1.4557970000
 Beta=-0.4792560000,-0.2700630000 DDN=0,1,0.8034860000 DDN=1,1,0.7591540000
 CoreKO=1.1325510000 KON=0,0,0,1.1996250000 KON=1,0,1,0.8437060000 KON=0,1,1,1.0478550000
 KON=2,1,1,0.8168110000 EISol=-4.4398989268 EHeat=0.2723305520 Alpha=1.4381970000
 DipHyp=1.6068795495
 GCore=0.0008260000,1.4798740000,2.8384620000
 GCore=0.0031480000,1.6675340000,3.8116200000
 GCore=-0.0011560000,1.5029710000,3.9059920000
 GCore=-0.0000920000,1.1754400000,4.8520980000
 ****
 O       
 PQN=2,2 NValence=6 F0ss=0.5413910000 F0sp=0.5145480000 F0pp=0.5091470000 F2pp=0.2175940000
 G1sp=0.4302620000
 ZetaOverlap=3.3296350000,2.5240390000
 U=-3.3343200000,-2.9854240000
 Beta=-0.9082740000,-1.1340310000 DDN=0,1,0.4988900000 DDN=1,1,0.5206270000
 CoreKO=0.9688900000 KON=0,0,0,0.8976510000 KON=1,0,1,0.5186760000 KON=0,1,1,0.8274210000
 KON=2,1,1,0.5315430000 EISol=-11.6164441184 EHeat=0.0949133088 Alpha=2.3722000000
 DipHyp=0.9977225968
 GCore=0.0212480000,1.1747580000,1.6499540000
 GCore=0.0064050000,2.1096700000,2.7148630000
 ****
 
 Standard basis: VSTO-6G (5D, 7F)
 Ernie: Thresh=  0.10000D-02 Tol=  0.10000D-05 Strict=F.
  NNHCO=     0 NNPyr=     0 NCTC=     0               EPep=         0.000000000
    EC=        67.595767607  ECS=         1.599803158   EG=         0.423607086
   EHC=         0.000000000  EAt=       -31.051283842  AtH=         1.516354808
 EPDDG=         0.000000000  ECC=        69.619177851 EAtT=        32.567638650
 There are    24 symmetry adapted cartesian basis functions of A   symmetry.
 There are    24 symmetry adapted basis functions of A   symmetry.
    24 basis functions,   144 primitive gaussians,    24 cartesian basis functions
    13 alpha electrons       13 beta electrons
       nuclear repulsion energy       102.1868165010 Hartrees.
 IExCor=    0 DFT=F Ex=HF Corr=None ExCW=0 ScaHFX=  1.000000
 ScaDFX=  1.000000  1.000000  1.000000  1.000000 ScalE2=  1.000000  1.000000
 IRadAn=      0 IRanWt=     -1 IRanGd=            0 ICorTp=0 IEmpDi=  4
 Integral buffers will be    131072 words long.
 Regular integral format.
 Two-electron integral symmetry is turned off.
 Leave Link  301 at Sun Nov 29 12:22:28 2015, MaxMem=    33554432 cpu:         0.0
 (Enter /home/Applications/g09/g09/l302.exe)
 Do NDO integrals.
 NPDir=0 NMtPBC=     1 NCelOv=     1 NCel=       1 NClECP=     1 NCelD=      1
         NCelK=      1 NCelE2=     1 NClLst=     1 CellRange=     0.0.
 One-electron integrals computed using PRISM.
 NBasis=    24 RedAO= F EigKep=  0.00D+00  NBF=    24
 NBsUse=    24 1.00D-04 EigRej=  0.00D+00 NBFU=    24
 Leave Link  302 at Sun Nov 29 12:22:28 2015, MaxMem=    33554432 cpu:         0.0
 (Enter /home/Applications/g09/g09/l303.exe)
 DipDrv:  MaxL=1.
 Leave Link  303 at Sun Nov 29 12:22:28 2015, MaxMem=    33554432 cpu:         0.0
 (Enter /home/Applications/g09/g09/l401.exe)
 Initial guess from the checkpoint file:  "/home/Applications/g09/scratch/Gau-20949.chk"
 B after Tr=     0.000000    0.000000    0.000000
         Rot=    0.996617    0.000051   -0.000058   -0.082187 Ang=   9.43 deg.
 Guess basis will be translated and rotated to current coordinates.
 JPrj=0 DoOrth=T DoCkMO=T.
 Leave Link  401 at Sun Nov 29 12:22:28 2015, MaxMem=    33554432 cpu:         0.0
 (Enter /home/Applications/g09/g09/l502.exe)
 Closed shell SCF:
 Using DIIS extrapolation, IDIIS=  1040.
 Overlap will be assumed to be unity.
 Two-electron integral symmetry not used.
 Keep J ints in memory in canonical form, NReq=888082.
 IVT=       79475 IEndB=       79475 NGot=    33554432 MDV=    33473473
 LenX=    33473473 LenY=    33472456
 Requested convergence on RMS density matrix=1.00D-08 within 128 cycles.
 Requested convergence on MAX density matrix=1.00D-06.
 Requested convergence on             energy=1.00D-06.
 No special actions if energy rises.
 FoFCou: FMM=F IPFlag=           0 FMFlag=           0 FMFlg1=           0
         NFxFlg=           0 DoJE=F BraDBF=F KetDBF=F FulRan=T
         wScrn=  0.000000 ICntrl=     600 IOpCl=  2 I1Cent=           0 NGrid=           0
         NMat0=    1 NMatS0=     54 NMatT0=    0 NMatD0=    1 NMtDS0=    0 NMtDT0=    0
 Symmetry not used in FoFCou.

 Cycle   1  Pass 1  IDiag  1:
 E= 0.735472356017837    
 DIIS: error= 4.11D-03 at cycle   1 NSaved=   1.
 NSaved= 1 IEnMin= 1 EnMin= 0.735472356017837     IErMin= 1 ErrMin= 4.11D-03
 ErrMax= 4.11D-03  0.00D+00 EMaxC= 1.00D-01 BMatC= 7.49D-04 BMatP= 7.49D-04
 IDIUse=3 WtCom= 9.59D-01 WtEn= 4.11D-02
 Coeff-Com:  0.100D+01
 Coeff-En:   0.100D+01
 Coeff:      0.100D+01
 GapD=    2.000 DampG=2.000 DampE=1.000 DampFc=2.0000 IDamp=-1.
 RMSDP=2.01D-03 MaxDP=8.22D-03              OVMax= 0.00D+00

 Cycle   2  Pass 1  IDiag  3:
 E= 0.733014902442520     Delta-E=       -0.002457453575 Rises=F Damp=F
 DIIS: error= 1.33D-03 at cycle   2 NSaved=   2.
 NSaved= 2 IEnMin= 2 EnMin= 0.733014902442520     IErMin= 2 ErrMin= 1.33D-03
 ErrMax= 1.33D-03  0.00D+00 EMaxC= 1.00D-01 BMatC= 1.05D-04 BMatP= 7.49D-04
 IDIUse=3 WtCom= 9.87D-01 WtEn= 1.33D-02
 Coeff-Com: -0.502D+00 0.150D+01
 Coeff-En:   0.000D+00 0.100D+01
 Coeff:     -0.495D+00 0.150D+01
 Gap=     0.365 Goal=   None    Shift=    0.000
 RMSDP=1.24D-03 MaxDP=5.52D-03 DE=-2.46D-03 OVMax= 6.93D-03

 Cycle   3  Pass 1  IDiag  3:
 E= 0.732530010927775     Delta-E=       -0.000484891515 Rises=F Damp=F
 DIIS: error= 2.70D-04 at cycle   3 NSaved=   3.
 NSaved= 3 IEnMin= 3 EnMin= 0.732530010927775     IErMin= 3 ErrMin= 2.70D-04
 ErrMax= 2.70D-04  0.00D+00 EMaxC= 1.00D-01 BMatC= 4.64D-06 BMatP= 1.05D-04
 IDIUse=3 WtCom= 9.97D-01 WtEn= 2.70D-03
 Coeff-Com:  0.210D+00-0.721D+00 0.151D+01
 Coeff-En:   0.000D+00 0.000D+00 0.100D+01
 Coeff:      0.209D+00-0.719D+00 0.151D+01
 Gap=     0.364 Goal=   None    Shift=    0.000
 RMSDP=3.56D-04 MaxDP=2.71D-03 DE=-4.85D-04 OVMax= 3.28D-03

 Cycle   4  Pass 1  IDiag  3:
 E= 0.732498010419789     Delta-E=       -0.000032000508 Rises=F Damp=F
 DIIS: error= 1.93D-04 at cycle   4 NSaved=   4.
 NSaved= 4 IEnMin= 4 EnMin= 0.732498010419789     IErMin= 4 ErrMin= 1.93D-04
 ErrMax= 1.93D-04  0.00D+00 EMaxC= 1.00D-01 BMatC= 7.69D-07 BMatP= 4.64D-06
 IDIUse=3 WtCom= 9.98D-01 WtEn= 1.93D-03
 Coeff-Com: -0.191D-01 0.899D-01-0.421D+00 0.135D+01
 Coeff-En:   0.000D+00 0.000D+00 0.000D+00 0.100D+01
 Coeff:     -0.190D-01 0.897D-01-0.420D+00 0.135D+01
 Gap=     0.364 Goal=   None    Shift=    0.000
 RMSDP=1.49D-04 MaxDP=1.56D-03 DE=-3.20D-05 OVMax= 1.46D-03

 Cycle   5  Pass 1  IDiag  3:
 E= 0.732491239550953     Delta-E=       -0.000006770869 Rises=F Damp=F
 DIIS: error= 1.43D-04 at cycle   5 NSaved=   5.
 NSaved= 5 IEnMin= 5 EnMin= 0.732491239550953     IErMin= 5 ErrMin= 1.43D-04
 ErrMax= 1.43D-04  0.00D+00 EMaxC= 1.00D-01 BMatC= 3.72D-07 BMatP= 7.69D-07
 IDIUse=3 WtCom= 9.99D-01 WtEn= 1.43D-03
 Coeff-Com:  0.389D-02-0.273D-01 0.280D+00-0.174D+01 0.249D+01
 Coeff-En:   0.000D+00 0.000D+00 0.000D+00 0.000D+00 0.100D+01
 Coeff:      0.389D-02-0.272D-01 0.280D+00-0.174D+01 0.249D+01
 Gap=     0.364 Goal=   None    Shift=    0.000
 RMSDP=1.96D-04 MaxDP=2.19D-03 DE=-6.77D-06 OVMax= 1.67D-03

 Cycle   6  Pass 1  IDiag  3:
 E= 0.732485519562914     Delta-E=       -0.000005719988 Rises=F Damp=F
 DIIS: error= 7.06D-05 at cycle   6 NSaved=   6.
 NSaved= 6 IEnMin= 6 EnMin= 0.732485519562914     IErMin= 6 ErrMin= 7.06D-05
 ErrMax= 7.06D-05  0.00D+00 EMaxC= 1.00D-01 BMatC= 1.33D-07 BMatP= 3.72D-07
 IDIUse=1 WtCom= 1.00D+00 WtEn= 0.00D+00
 Coeff-Com:  0.194D-01-0.512D-01-0.114D+00 0.170D+01-0.319D+01 0.264D+01
 Coeff:      0.194D-01-0.512D-01-0.114D+00 0.170D+01-0.319D+01 0.264D+01
 Gap=     0.364 Goal=   None    Shift=    0.000
 RMSDP=1.61D-04 MaxDP=1.70D-03 DE=-5.72D-06 OVMax= 1.46D-03

 Cycle   7  Pass 1  IDiag  3:
 E= 0.732482842802426     Delta-E=       -0.000002676760 Rises=F Damp=F
 DIIS: error= 4.63D-05 at cycle   7 NSaved=   7.
 NSaved= 7 IEnMin= 7 EnMin= 0.732482842802426     IErMin= 7 ErrMin= 4.63D-05
 ErrMax= 4.63D-05  0.00D+00 EMaxC= 1.00D-01 BMatC= 4.73D-08 BMatP= 1.33D-07
 IDIUse=1 WtCom= 1.00D+00 WtEn= 0.00D+00
 Coeff-Com: -0.360D-01 0.105D+00 0.536D-01-0.204D+01 0.421D+01-0.418D+01
 Coeff-Com:  0.289D+01
 Coeff:     -0.360D-01 0.105D+00 0.536D-01-0.204D+01 0.421D+01-0.418D+01
 Coeff:      0.289D+01
 Gap=     0.364 Goal=   None    Shift=    0.000
 RMSDP=1.08D-04 MaxDP=9.75D-04 DE=-2.68D-06 OVMax= 1.09D-03

 Cycle   8  Pass 1  IDiag  3:
 E= 0.732481729613724     Delta-E=       -0.000001113189 Rises=F Damp=F
 DIIS: error= 3.18D-05 at cycle   8 NSaved=   8.
 NSaved= 8 IEnMin= 8 EnMin= 0.732481729613724     IErMin= 8 ErrMin= 3.18D-05
 ErrMax= 3.18D-05  0.00D+00 EMaxC= 1.00D-01 BMatC= 1.75D-08 BMatP= 4.73D-08
 IDIUse=1 WtCom= 1.00D+00 WtEn= 0.00D+00
 Coeff-Com:  0.368D-01-0.104D+00-0.100D+00 0.244D+01-0.497D+01 0.504D+01
 Coeff-Com: -0.441D+01 0.307D+01
 Coeff:      0.368D-01-0.104D+00-0.100D+00 0.244D+01-0.497D+01 0.504D+01
 Coeff:     -0.441D+01 0.307D+01
 Gap=     0.364 Goal=   None    Shift=    0.000
 RMSDP=1.03D-04 MaxDP=1.06D-03 DE=-1.11D-06 OVMax= 1.04D-03

 Cycle   9  Pass 1  IDiag  3:
 E= 0.732481216249724     Delta-E=       -0.000000513364 Rises=F Damp=F
 DIIS: error= 9.67D-06 at cycle   9 NSaved=   9.
 NSaved= 9 IEnMin= 9 EnMin= 0.732481216249724     IErMin= 9 ErrMin= 9.67D-06
 ErrMax= 9.67D-06  0.00D+00 EMaxC= 1.00D-01 BMatC= 1.98D-09 BMatP= 1.75D-08
 IDIUse=1 WtCom= 1.00D+00 WtEn= 0.00D+00
 Coeff-Com: -0.130D-01 0.366D-01 0.253D-01-0.769D+00 0.158D+01-0.162D+01
 Coeff-Com:  0.158D+01-0.158D+01 0.176D+01
 Coeff:     -0.130D-01 0.366D-01 0.253D-01-0.769D+00 0.158D+01-0.162D+01
 Coeff:      0.158D+01-0.158D+01 0.176D+01
 Gap=     0.364 Goal=   None    Shift=    0.000
 RMSDP=3.24D-05 MaxDP=3.54D-04 DE=-5.13D-07 OVMax= 3.21D-04

 Cycle  10  Pass 1  IDiag  3:
 E= 0.732481175256837     Delta-E=       -0.000000040993 Rises=F Damp=F
 DIIS: error= 1.39D-06 at cycle  10 NSaved=  10.
 NSaved=10 IEnMin=10 EnMin= 0.732481175256837     IErMin=10 ErrMin= 1.39D-06
 ErrMax= 1.39D-06  0.00D+00 EMaxC= 1.00D-01 BMatC= 1.15D-10 BMatP= 1.98D-09
 IDIUse=1 WtCom= 1.00D+00 WtEn= 0.00D+00
 Coeff-Com:  0.586D-02-0.161D-01-0.175D-01 0.390D+00-0.786D+00 0.794D+00
 Coeff-Com: -0.763D+00 0.783D+00-0.102D+01 0.163D+01
 Coeff:      0.586D-02-0.161D-01-0.175D-01 0.390D+00-0.786D+00 0.794D+00
 Coeff:     -0.763D+00 0.783D+00-0.102D+01 0.163D+01
 Gap=     0.364 Goal=   None    Shift=    0.000
 RMSDP=3.11D-06 MaxDP=3.17D-05 DE=-4.10D-08 OVMax= 2.28D-05

 Cycle  11  Pass 1  IDiag  3:
 E= 0.732481174392447     Delta-E=       -0.000000000864 Rises=F Damp=F
 DIIS: error= 2.43D-07 at cycle  11 NSaved=  11.
 NSaved=11 IEnMin=11 EnMin= 0.732481174392447     IErMin=11 ErrMin= 2.43D-07
 ErrMax= 2.43D-07  0.00D+00 EMaxC= 1.00D-01 BMatC= 5.56D-12 BMatP= 1.15D-10
 IDIUse=1 WtCom= 1.00D+00 WtEn= 0.00D+00
 Coeff-Com: -0.231D-02 0.627D-02 0.733D-02-0.155D+00 0.310D+00-0.311D+00
 Coeff-Com:  0.300D+00-0.316D+00 0.437D+00-0.815D+00 0.154D+01
 Coeff:     -0.231D-02 0.627D-02 0.733D-02-0.155D+00 0.310D+00-0.311D+00
 Coeff:      0.300D+00-0.316D+00 0.437D+00-0.815D+00 0.154D+01
 Gap=     0.364 Goal=   None    Shift=    0.000
 RMSDP=4.01D-07 MaxDP=1.79D-06 DE=-8.64D-10 OVMax= 3.52D-06

 Cycle  12  Pass 1  IDiag  3:
 E= 0.732481174356778     Delta-E=       -0.000000000036 Rises=F Damp=F
 DIIS: error= 8.91D-08 at cycle  12 NSaved=  12.
 NSaved=12 IEnMin=12 EnMin= 0.732481174356778     IErMin=12 ErrMin= 8.91D-08
 ErrMax= 8.91D-08  0.00D+00 EMaxC= 1.00D-01 BMatC= 3.16D-13 BMatP= 5.56D-12
 IDIUse=1 WtCom= 1.00D+00 WtEn= 0.00D+00
 Coeff-Com:  0.683D-03-0.179D-02-0.281D-02 0.494D-01-0.972D-01 0.958D-01
 Coeff-Com: -0.933D-01 0.104D+00-0.153D+00 0.293D+00-0.691D+00 0.150D+01
 Coeff:      0.683D-03-0.179D-02-0.281D-02 0.494D-01-0.972D-01 0.958D-01
 Coeff:     -0.933D-01 0.104D+00-0.153D+00 0.293D+00-0.691D+00 0.150D+01
 Gap=     0.364 Goal=   None    Shift=    0.000
 RMSDP=1.13D-07 MaxDP=6.51D-07 DE=-3.57D-11 OVMax= 9.71D-07

 Cycle  13  Pass 1  IDiag  3:
 E= 0.732481174354504     Delta-E=       -0.000000000002 Rises=F Damp=F
 DIIS: error= 3.38D-08 at cycle  13 NSaved=  13.
 NSaved=13 IEnMin=13 EnMin= 0.732481174354504     IErMin=13 ErrMin= 3.38D-08
 ErrMax= 3.38D-08  0.00D+00 EMaxC= 1.00D-01 BMatC= 2.25D-14 BMatP= 3.16D-13
 IDIUse=1 WtCom= 1.00D+00 WtEn= 0.00D+00
 Coeff-Com: -0.126D-03 0.300D-03 0.811D-03-0.108D-01 0.205D-01-0.195D-01
 Coeff-Com:  0.193D-01-0.235D-01 0.384D-01-0.770D-01 0.206D+00-0.660D+00
 Coeff-Com:  0.151D+01
 Coeff:     -0.126D-03 0.300D-03 0.811D-03-0.108D-01 0.205D-01-0.195D-01
 Coeff:      0.193D-01-0.235D-01 0.384D-01-0.770D-01 0.206D+00-0.660D+00
 Coeff:      0.151D+01
 Gap=     0.364 Goal=   None    Shift=    0.000
 RMSDP=3.45D-08 MaxDP=3.09D-07 DE=-2.27D-12 OVMax= 3.56D-07

 Cycle  14  Pass 1  IDiag  3:
 E= 0.732481174354234     Delta-E=        0.000000000000 Rises=F Damp=F
 DIIS: error= 1.00D-08 at cycle  14 NSaved=  14.
 NSaved=14 IEnMin=14 EnMin= 0.732481174354234     IErMin=14 ErrMin= 1.00D-08
 ErrMax= 1.00D-08  0.00D+00 EMaxC= 1.00D-01 BMatC= 1.65D-15 BMatP= 2.25D-14
 IDIUse=1 WtCom= 1.00D+00 WtEn= 0.00D+00
 Coeff-Com:  0.121D-05 0.160D-04-0.189D-03 0.111D-02-0.171D-02 0.123D-02
 Coeff-Com: -0.135D-02 0.285D-02-0.676D-02 0.154D-01-0.504D-01 0.222D+00
 Coeff-Com: -0.776D+00 0.159D+01
 Coeff:      0.121D-05 0.160D-04-0.189D-03 0.111D-02-0.171D-02 0.123D-02
 Coeff:     -0.135D-02 0.285D-02-0.676D-02 0.154D-01-0.504D-01 0.222D+00
 Coeff:     -0.776D+00 0.159D+01
 Gap=     0.364 Goal=   None    Shift=    0.000
 RMSDP=1.06D-08 MaxDP=1.01D-07 DE=-2.70D-13 OVMax= 1.28D-07

 Cycle  15  Pass 1  IDiag  3:
 E= 0.732481174354277     Delta-E=        0.000000000000 Rises=F Damp=F
 DIIS: error= 1.90D-09 at cycle  15 NSaved=  15.
 NSaved=15 IEnMin=14 EnMin= 0.732481174354234     IErMin=15 ErrMin= 1.90D-09
 ErrMax= 1.90D-09  0.00D+00 EMaxC= 1.00D-01 BMatC= 7.45D-17 BMatP= 1.65D-15
 IDIUse=1 WtCom= 1.00D+00 WtEn= 0.00D+00
 Coeff-Com:  0.240D-05-0.164D-04 0.862D-04-0.360D-03 0.451D-03-0.202D-03
 Coeff-Com:  0.278D-03-0.103D-02 0.287D-02-0.677D-02 0.231D-01-0.108D+00
 Coeff-Com:  0.403D+00-0.956D+00 0.164D+01
 Coeff:      0.240D-05-0.164D-04 0.862D-04-0.360D-03 0.451D-03-0.202D-03
 Coeff:      0.278D-03-0.103D-02 0.287D-02-0.677D-02 0.231D-01-0.108D+00
 Coeff:      0.403D+00-0.956D+00 0.164D+01
 Gap=     0.364 Goal=   None    Shift=    0.000
 RMSDP=2.16D-09 MaxDP=1.93D-08 DE= 4.26D-14 OVMax= 2.31D-08

 Cycle  16  Pass 2  IDiag  1:
 SCF Done:  E(RAM1) =  0.732481174354     A.U. after   16 cycles
            NFock= 15  Conv=0.22D-08     -V/T= 1.0490
 KE=-1.494472593016D+01 PE=-1.709276057403D+02 EE= 8.441799634383D+01
 Leave Link  502 at Sun Nov 29 12:22:28 2015, MaxMem=    33554432 cpu:         0.0
 (Enter /home/Applications/g09/g09/l701.exe)
 Compute integral first derivatives.
 ... and contract with generalized density number  0.
 Leave Link  701 at Sun Nov 29 12:22:28 2015, MaxMem=    33554432 cpu:         0.0
 (Enter /home/Applications/g09/g09/l702.exe)
 L702 exits ... SP integral derivatives will be done elsewhere.
 Leave Link  702 at Sun Nov 29 12:22:28 2015, MaxMem=    33554432 cpu:         0.0
 (Enter /home/Applications/g09/g09/l703.exe)
 Compute integral first derivatives, UseDBF=F ICtDFT=           0.
 Integral derivatives from FoFJK, PRISM(SPDF).
 Calling FoFJK, ICntrl=      2127 FMM=F ISym2X=0 I1Cent= 0 IOpClX= 0 NMat=1 NMatS=1 NMatT=0.
 FoFJK:  IHMeth= 8 ICntrl=    2127 DoSepK=F KAlg= 0 I1Cent=   0 FoldK=F
 IRaf=         0 NMat=   1 IRICut=       1 DoRegI=T DoRafI=F ISym2E= 0.
 FoFCou: FMM=F IPFlag=           0 FMFlag=      100000 FMFlg1=         800
         NFxFlg=           0 DoJE=F BraDBF=F KetDBF=F FulRan=T
         wScrn=  0.000000 ICntrl=    2127 IOpCl=  0 I1Cent=           0 NGrid=           0
         NMat0=    1 NMatS0=      1 NMatT0=    0 NMatD0=    1 NMtDS0=    0 NMtDT0=    0
 Symmetry not used in FoFCou.
 Leave Link  703 at Sun Nov 29 12:22:28 2015, MaxMem=    33554432 cpu:         0.0
 (Enter /home/Applications/g09/g09/l716.exe)
 Dipole        = 6.21526569D-02-1.92475170D-01 2.99874145D-02
 ***** Axes restored to original set *****
 -------------------------------------------------------------------
 Center     Atomic                   Forces (Hartrees/Bohr)
 Number     Number              X              Y              Z
 -------------------------------------------------------------------
      1        6          -0.014018885    0.008550116    0.000431275
      2        6           0.004898573   -0.015689391    0.001504031
      3        8           0.014413007    0.017447187    0.000215711
      4        6          -0.017768375   -0.004840132   -0.001288507
      5        6           0.009628952   -0.004452446    0.001273960
      6        1          -0.004540069   -0.003616630   -0.001076603
      7        1           0.002761015   -0.000886081    0.000418851
      8        1           0.002929282    0.002852956   -0.001466630
      9        1           0.001696500    0.000634422   -0.000012087
 -------------------------------------------------------------------
 Cartesian Forces:  Max     0.017768375 RMS     0.007637562
 Leave Link  716 at Sun Nov 29 12:22:28 2015, MaxMem=    33554432 cpu:         0.0
 (Enter /home/Applications/g09/g09/l103.exe)

 GradGradGradGradGradGradGradGradGradGradGradGradGradGradGradGradGradGrad
 Berny optimization.
 Using GEDIIS/GDIIS optimizer.
 FormGI is forming the generalized inverse of G from B-inverse, IUseBI=4.
 Internal  Forces:  Max     0.013836094 RMS     0.003956955
 Search for a local minimum.
 Step number   2 out of a maximum of   48
 All quantities printed in internal units (Hartrees-Bohrs-Radians)
 RMS Force = .39570D-02 SwitMx=.10000D-02 MixMth= 1
 Mixed Optimization -- RFO/linear search
 Update second derivatives using D2CorX and points    1    2
 DE= -1.42D-02 DEPred=-1.59D-02 R= 8.90D-01
 TightC=F SS=  1.41D+00  RLast= 2.48D-01 DXNew= 5.0454D-01 7.4251D-01
 Trust test= 8.90D-01 RLast= 2.48D-01 DXMaxT set to 5.05D-01
 ITU=  1  0
 Use linear search instead of GDIIS.
     Eigenvalues ---    0.02146   0.02403   0.02604   0.02929   0.03150
     Eigenvalues ---    0.03297   0.15821   0.15991   0.15994   0.16060
     Eigenvalues ---    0.21716   0.24925   0.29751   0.31900   0.32376
     Eigenvalues ---    0.36892   0.37713   0.43530   0.58740   0.61889
     Eigenvalues ---    0.72434
 RFO step:  Lambda=-1.71227333D-03 EMin= 2.14598614D-02
 Quartic linear search produced a step of -0.02168.
 Iteration  1 RMS(Cart)=  0.01344437 RMS(Int)=  0.00018681
 Iteration  2 RMS(Cart)=  0.00017866 RMS(Int)=  0.00006902
 Iteration  3 RMS(Cart)=  0.00000002 RMS(Int)=  0.00006902
 ITry= 1 IFail=0 DXMaxC= 3.51D-02 DCOld= 1.00D+10 DXMaxT= 5.05D-01 DXLimC= 3.00D+00 Rises=F
 Variable       Old X    -DE/DX   Delta X   Delta X   Delta X     New X
                                 (Linear)    (Quad)   (Total)
    R1        2.58635  -0.00853  -0.00217  -0.00565  -0.00774   2.57862
    R2        2.72789  -0.00594   0.00012  -0.01606  -0.01594   2.71196
    R3        2.04492   0.00101  -0.00066   0.00496   0.00429   2.04922
    R4        2.54812   0.00651  -0.00189   0.01657   0.01473   2.56284
    R5        2.08660  -0.00393   0.00031  -0.01291  -0.01259   2.07400
    R6        2.67111  -0.01384  -0.00053  -0.02723  -0.02780   2.64331
    R7        2.54759   0.00298  -0.00263   0.01341   0.01070   2.55829
    R8        2.06915  -0.00214   0.00084  -0.00946  -0.00862   2.06053
    R9        2.07407  -0.00580   0.00136  -0.02330  -0.02194   2.05214
    A1        1.83664   0.00440  -0.00007   0.01855   0.01854   1.85518
    A2        2.25642  -0.00066  -0.00064   0.00241   0.00168   2.25811
    A3        2.19011  -0.00374   0.00072  -0.02091  -0.02027   2.16984
    A4        1.95833  -0.00728  -0.00071  -0.02872  -0.02935   1.92897
    A5        2.31378   0.00232   0.00059   0.00580   0.00628   2.32005
    A6        2.01040   0.00498   0.00009   0.02361   0.02359   2.03399
    A7        1.84166   0.00637   0.00144   0.02272   0.02418   1.86585
    A8        1.91936  -0.00371  -0.00136  -0.01032  -0.01177   1.90759
    A9        1.97175   0.00387   0.00080   0.01695   0.01779   1.98954
   A10        2.39196  -0.00016   0.00055  -0.00659  -0.00599   2.38597
   A11        1.86875   0.00022   0.00070  -0.00218  -0.00157   1.86718
   A12        2.15131  -0.00070   0.00023  -0.00436  -0.00415   2.14717
   A13        2.26272   0.00049  -0.00096   0.00702   0.00604   2.26876
    D1        0.00780  -0.00019  -0.00030  -0.00562  -0.00586   0.00194
    D2       -3.09133  -0.00087   0.00040  -0.02769  -0.02728  -3.11861
    D3       -3.13759   0.00022  -0.00027   0.00894   0.00881  -3.12879
    D4        0.04647  -0.00045   0.00042  -0.01312  -0.01262   0.03385
    D5       -0.00482   0.00005   0.00053   0.00113   0.00169  -0.00313
    D6        3.10890   0.00050  -0.00013   0.01781   0.01761   3.12651
    D7        3.14038  -0.00035   0.00051  -0.01277  -0.01209   3.12830
    D8       -0.02908   0.00010  -0.00015   0.00391   0.00383  -0.02525
    D9       -0.00754   0.00019  -0.00003   0.00752   0.00749  -0.00005
   D10        3.09950   0.00073  -0.00056   0.02527   0.02483   3.12432
   D11        0.00419  -0.00013   0.00037  -0.00651  -0.00620  -0.00201
   D12        3.13240  -0.00006   0.00010  -0.00429  -0.00423   3.12818
   D13        0.00043   0.00003  -0.00053   0.00327   0.00272   0.00316
   D14       -3.11089  -0.00043   0.00012  -0.01458  -0.01446  -3.12535
   D15       -3.12308  -0.00009  -0.00016   0.00002  -0.00016  -3.12324
   D16        0.04879  -0.00055   0.00049  -0.01783  -0.01734   0.03144
         Item               Value     Threshold  Converged?
 Maximum Force            0.013836     0.000450     NO 
 RMS     Force            0.003957     0.000300     NO 
 Maximum Displacement     0.035100     0.001800     NO 
 RMS     Displacement     0.013441     0.001200     NO 
 Predicted change in Energy=-8.733336D-04
 Lowest energy point so far.  Saving SCF results.
 GradGradGradGradGradGradGradGradGradGradGradGradGradGradGradGradGradGrad

 Leave Link  103 at Sun Nov 29 12:22:28 2015, MaxMem=    33554432 cpu:         0.0
 (Enter /home/Applications/g09/g09/l202.exe)
                          Input orientation:                          
 ---------------------------------------------------------------------
 Center     Atomic      Atomic             Coordinates (Angstroms)
 Number     Number       Type             X           Y           Z
 ---------------------------------------------------------------------
      1          6           0        0.933982   -0.719044   -0.028634
      2          6           0       -0.379275   -1.089450   -0.016869
      3          8           0       -1.181559    0.003922   -0.004507
      4          6           0       -0.343222    1.123636   -0.008490
      5          6           0        0.947673    0.715972   -0.020474
      6          1           0        1.863775    1.299048   -0.013069
      7          1           0       -0.874932    2.075583   -0.012764
      8          1           0       -0.880475   -2.065673    0.001256
      9          1           0        1.823490   -1.338888   -0.050752
 ---------------------------------------------------------------------
                    Distance matrix (angstroms):
                    1          2          3          4          5
     1  C    0.000000
     2  C    1.364545   0.000000
     3  O    2.235794   1.356199   0.000000
     4  C    2.242126   2.213396   1.398779   0.000000
     5  C    1.435105   2.240615   2.245194   1.353789   0.000000
     6  H    2.222038   3.276616   3.309302   2.213962   1.085944
     7  H    3.329018   3.203611   2.094245   1.090383   2.273871
     8  H    2.259769   1.097516   2.091390   3.234259   3.328685
     9  H    1.084399   2.217102   3.291747   3.280313   2.233926
                    6          7          8          9
     6  H    0.000000
     7  H    2.846668   0.000000
     8  H    4.341942   4.141283   0.000000
     9  H    2.638513   4.352188   2.800419   0.000000
 Stoichiometry    C4H4O
 Framework group  C1[X(C4H4O)]
 Deg. of freedom    21
 Full point group                 C1      NOp   1
 RotChk:  IX=0 Diff= 1.86D-01
 Largest Abelian subgroup         C1      NOp   1
 Largest concise Abelian subgroup C1      NOp   1
                         Standard orientation:                         
 ---------------------------------------------------------------------
 Center     Atomic      Atomic             Coordinates (Angstroms)
 Number     Number       Type             X           Y           Z
 ---------------------------------------------------------------------
      1          6           0        0.602984    1.031052   -0.001779
      2          6           0        1.130863   -0.227251   -0.000929
      3          8           0        0.143548   -1.157028    0.000166
      4          6           0       -1.070094   -0.461575    0.000075
      5          6           0       -0.822992    0.869471    0.001509
      6          1           0       -1.513527    1.707471    0.015398
      7          1           0       -1.950023   -1.105395   -0.012457
      8          1           0        2.160911   -0.605746    0.015938
      9          1           0        1.109688    1.989714   -0.013469
 ---------------------------------------------------------------------
 Rotational constants (GHZ):      9.3933201      9.1744317      4.6413697
 Leave Link  202 at Sun Nov 29 12:22:28 2015, MaxMem=    33554432 cpu:         0.0
 (Enter /home/Applications/g09/g09/l301.exe)

 Semi-emprical parameters in input format:
 Method=8 CoreType=1 PeptideFC=0.0105570000 RIJScale=0.4899110000
 ****
 H       
 PQN=1 NValence=1 F0ss=0.4577290000 ZetaOverlap=1.0659780000 U=-0.3880320000
 Beta=-0.2381360000 CoreKO=1.1144350000 KON=0,0,0,1.0186160000 KON=1,0,1,1.0557690000
 KON=0,1,1,1.0725930000 KON=2,1,1,1.1590830000 EISol=-0.4188110042 EHeat=0.0830298228
 Alpha=1.5252600000
 GCore=0.0099350000,1.3986240000,2.1461900000
 GCore=0.0003630000,1.5415670000,2.7171030000
 GCore=-0.0012530000,0.5088300000,4.2039300000
 ****
 C       
 PQN=2,2 NValence=4 F0ss=0.4263360000 F0sp=0.4580860000 F0pp=0.3261620000 F2pp=0.2036090000
 G1sp=0.2073130000
 ZetaOverlap=2.1016200000,1.8587190000
 U=-1.9018080000,-1.4557970000
 Beta=-0.4792560000,-0.2700630000 DDN=0,1,0.8034860000 DDN=1,1,0.7591540000
 CoreKO=1.1325510000 KON=0,0,0,1.1996250000 KON=1,0,1,0.8437060000 KON=0,1,1,1.0478550000
 KON=2,1,1,0.8168110000 EISol=-4.4398989268 EHeat=0.2723305520 Alpha=1.4381970000
 DipHyp=1.6068795495
 GCore=0.0008260000,1.4798740000,2.8384620000
 GCore=0.0031480000,1.6675340000,3.8116200000
 GCore=-0.0011560000,1.5029710000,3.9059920000
 GCore=-0.0000920000,1.1754400000,4.8520980000
 ****
 O       
 PQN=2,2 NValence=6 F0ss=0.5413910000 F0sp=0.5145480000 F0pp=0.5091470000 F2pp=0.2175940000
 G1sp=0.4302620000
 ZetaOverlap=3.3296350000,2.5240390000
 U=-3.3343200000,-2.9854240000
 Beta=-0.9082740000,-1.1340310000 DDN=0,1,0.4988900000 DDN=1,1,0.5206270000
 CoreKO=0.9688900000 KON=0,0,0,0.8976510000 KON=1,0,1,0.5186760000 KON=0,1,1,0.8274210000
 KON=2,1,1,0.5315430000 EISol=-11.6164441184 EHeat=0.0949133088 Alpha=2.3722000000
 DipHyp=0.9977225968
 GCore=0.0212480000,1.1747580000,1.6499540000
 GCore=0.0064050000,2.1096700000,2.7148630000
 ****
 
 Standard basis: VSTO-6G (5D, 7F)
 Ernie: Thresh=  0.10000D-02 Tol=  0.10000D-05 Strict=F.
  NNHCO=     0 NNPyr=     0 NCTC=     0               EPep=         0.000000000
    EC=        67.707253894  ECS=         1.615123957   EG=         0.426250197
   EHC=         0.000000000  EAt=       -31.051283842  AtH=         1.516354808
 EPDDG=         0.000000000  ECC=        69.748628048 EAtT=        32.567638650
 There are    24 symmetry adapted cartesian basis functions of A   symmetry.
 There are    24 symmetry adapted basis functions of A   symmetry.
    24 basis functions,   144 primitive gaussians,    24 cartesian basis functions
    13 alpha electrons       13 beta electrons
       nuclear repulsion energy       102.3162666985 Hartrees.
 IExCor=    0 DFT=F Ex=HF Corr=None ExCW=0 ScaHFX=  1.000000
 ScaDFX=  1.000000  1.000000  1.000000  1.000000 ScalE2=  1.000000  1.000000
 IRadAn=      0 IRanWt=     -1 IRanGd=            0 ICorTp=0 IEmpDi=  4
 Integral buffers will be    131072 words long.
 Regular integral format.
 Two-electron integral symmetry is turned off.
 Leave Link  301 at Sun Nov 29 12:22:28 2015, MaxMem=    33554432 cpu:         0.0
 (Enter /home/Applications/g09/g09/l302.exe)
 Do NDO integrals.
 NPDir=0 NMtPBC=     1 NCelOv=     1 NCel=       1 NClECP=     1 NCelD=      1
         NCelK=      1 NCelE2=     1 NClLst=     1 CellRange=     0.0.
 One-electron integrals computed using PRISM.
 NBasis=    24 RedAO= F EigKep=  0.00D+00  NBF=    24
 NBsUse=    24 1.00D-04 EigRej=  0.00D+00 NBFU=    24
 Leave Link  302 at Sun Nov 29 12:22:29 2015, MaxMem=    33554432 cpu:         0.0
 (Enter /home/Applications/g09/g09/l303.exe)
 DipDrv:  MaxL=1.
 Leave Link  303 at Sun Nov 29 12:22:29 2015, MaxMem=    33554432 cpu:         0.0
 (Enter /home/Applications/g09/g09/l401.exe)
 Initial guess from the checkpoint file:  "/home/Applications/g09/scratch/Gau-20949.chk"
 B after Tr=     0.000000    0.000000    0.000000
         Rot=    0.997808    0.000009   -0.000030    0.066169 Ang=   7.59 deg.
 Guess basis will be translated and rotated to current coordinates.
 JPrj=0 DoOrth=T DoCkMO=T.
 Leave Link  401 at Sun Nov 29 12:22:29 2015, MaxMem=    33554432 cpu:         0.0
 (Enter /home/Applications/g09/g09/l502.exe)
 Closed shell SCF:
 Using DIIS extrapolation, IDIIS=  1040.
 Overlap will be assumed to be unity.
 Two-electron integral symmetry not used.
 Keep J ints in memory in canonical form, NReq=888082.
 IVT=       79475 IEndB=       79475 NGot=    33554432 MDV=    33473473
 LenX=    33473473 LenY=    33472456
 Requested convergence on RMS density matrix=1.00D-08 within 128 cycles.
 Requested convergence on MAX density matrix=1.00D-06.
 Requested convergence on             energy=1.00D-06.
 No special actions if energy rises.
 FoFCou: FMM=F IPFlag=           0 FMFlag=           0 FMFlg1=           0
         NFxFlg=           0 DoJE=F BraDBF=F KetDBF=F FulRan=T
         wScrn=  0.000000 ICntrl=     600 IOpCl=  2 I1Cent=           0 NGrid=           0
         NMat0=    1 NMatS0=     54 NMatT0=    0 NMatD0=    1 NMtDS0=    0 NMtDT0=    0
 Symmetry not used in FoFCou.

 Cycle   1  Pass 1  IDiag  1:
 E= 0.731833338799717    
 DIIS: error= 1.27D-03 at cycle   1 NSaved=   1.
 NSaved= 1 IEnMin= 1 EnMin= 0.731833338799717     IErMin= 1 ErrMin= 1.27D-03
 ErrMax= 1.27D-03  0.00D+00 EMaxC= 1.00D-01 BMatC= 1.07D-04 BMatP= 1.07D-04
 IDIUse=3 WtCom= 9.87D-01 WtEn= 1.27D-02
 Coeff-Com:  0.100D+01
 Coeff-En:   0.100D+01
 Coeff:      0.100D+01
 GapD=    2.000 DampG=2.000 DampE=1.000 DampFc=2.0000 IDamp=-1.
 RMSDP=7.76D-04 MaxDP=3.15D-03              OVMax= 0.00D+00

 Cycle   2  Pass 1  IDiag  3:
 E= 0.731475864515744     Delta-E=       -0.000357474284 Rises=F Damp=F
 DIIS: error= 4.31D-04 at cycle   2 NSaved=   2.
 NSaved= 2 IEnMin= 2 EnMin= 0.731475864515744     IErMin= 2 ErrMin= 4.31D-04
 ErrMax= 4.31D-04  0.00D+00 EMaxC= 1.00D-01 BMatC= 1.49D-05 BMatP= 1.07D-04
 IDIUse=3 WtCom= 9.96D-01 WtEn= 4.31D-03
 Coeff-Com: -0.509D+00 0.151D+01
 Coeff-En:   0.000D+00 0.100D+01
 Coeff:     -0.506D+00 0.151D+01
 Gap=     0.364 Goal=   None    Shift=    0.000
 RMSDP=5.09D-04 MaxDP=2.46D-03 DE=-3.57D-04 OVMax= 3.11D-03

 Cycle   3  Pass 1  IDiag  3:
 E= 0.731401384423776     Delta-E=       -0.000074480092 Rises=F Damp=F
 DIIS: error= 1.29D-04 at cycle   3 NSaved=   3.
 NSaved= 3 IEnMin= 3 EnMin= 0.731401384423776     IErMin= 3 ErrMin= 1.29D-04
 ErrMax= 1.29D-04  0.00D+00 EMaxC= 1.00D-01 BMatC= 7.86D-07 BMatP= 1.49D-05
 IDIUse=3 WtCom= 9.99D-01 WtEn= 1.29D-03
 Coeff-Com:  0.315D+00-0.101D+01 0.170D+01
 Coeff-En:   0.000D+00 0.000D+00 0.100D+01
 Coeff:      0.315D+00-0.101D+01 0.170D+01
 Gap=     0.364 Goal=   None    Shift=    0.000
 RMSDP=1.84D-04 MaxDP=1.27D-03 DE=-7.45D-05 OVMax= 1.64D-03

 Cycle   4  Pass 1  IDiag  3:
 E= 0.731394312714073     Delta-E=       -0.000007071710 Rises=F Damp=F
 DIIS: error= 8.86D-05 at cycle   4 NSaved=   4.
 NSaved= 4 IEnMin= 4 EnMin= 0.731394312714073     IErMin= 4 ErrMin= 8.86D-05
 ErrMax= 8.86D-05  0.00D+00 EMaxC= 1.00D-01 BMatC= 1.82D-07 BMatP= 7.86D-07
 IDIUse=1 WtCom= 1.00D+00 WtEn= 0.00D+00
 Coeff-Com: -0.179D+00 0.593D+00-0.116D+01 0.174D+01
 Coeff:     -0.179D+00 0.593D+00-0.116D+01 0.174D+01
 Gap=     0.364 Goal=   None    Shift=    0.000
 RMSDP=9.52D-05 MaxDP=8.70D-04 DE=-7.07D-06 OVMax= 9.94D-04

 Cycle   5  Pass 1  IDiag  3:
 E= 0.731392080602561     Delta-E=       -0.000002232112 Rises=F Damp=F
 DIIS: error= 6.56D-05 at cycle   5 NSaved=   5.
 NSaved= 5 IEnMin= 5 EnMin= 0.731392080602561     IErMin= 5 ErrMin= 6.56D-05
 ErrMax= 6.56D-05  0.00D+00 EMaxC= 1.00D-01 BMatC= 1.14D-07 BMatP= 1.82D-07
 IDIUse=1 WtCom= 1.00D+00 WtEn= 0.00D+00
 Coeff-Com:  0.253D+00-0.830D+00 0.169D+01-0.343D+01 0.331D+01
 Coeff:      0.253D+00-0.830D+00 0.169D+01-0.343D+01 0.331D+01
 Gap=     0.364 Goal=   None    Shift=    0.000
 RMSDP=1.55D-04 MaxDP=1.46D-03 DE=-2.23D-06 OVMax= 1.55D-03

 Cycle   6  Pass 1  IDiag  3:
 E= 0.731389435849948     Delta-E=       -0.000002644753 Rises=F Damp=F
 DIIS: error= 4.21D-05 at cycle   6 NSaved=   6.
 NSaved= 6 IEnMin= 6 EnMin= 0.731389435849948     IErMin= 6 ErrMin= 4.21D-05
 ErrMax= 4.21D-05  0.00D+00 EMaxC= 1.00D-01 BMatC= 4.51D-08 BMatP= 1.14D-07
 IDIUse=1 WtCom= 1.00D+00 WtEn= 0.00D+00
 Coeff-Com: -0.790D-01 0.264D+00-0.610D+00 0.189D+01-0.320D+01 0.273D+01
 Coeff:     -0.790D-01 0.264D+00-0.610D+00 0.189D+01-0.320D+01 0.273D+01
 Gap=     0.364 Goal=   None    Shift=    0.000
 RMSDP=1.76D-04 MaxDP=1.64D-03 DE=-2.64D-06 OVMax= 1.76D-03

 Cycle   7  Pass 1  IDiag  3:
 E= 0.731387962982311     Delta-E=       -0.000001472868 Rises=F Damp=F
 DIIS: error= 1.25D-05 at cycle   7 NSaved=   7.
 NSaved= 7 IEnMin= 7 EnMin= 0.731387962982311     IErMin= 7 ErrMin= 1.25D-05
 ErrMax= 1.25D-05  0.00D+00 EMaxC= 1.00D-01 BMatC= 5.68D-09 BMatP= 4.51D-08
 IDIUse=1 WtCom= 1.00D+00 WtEn= 0.00D+00
 Coeff-Com: -0.140D-01 0.442D-01-0.448D-01-0.293D+00 0.112D+01-0.169D+01
 Coeff-Com:  0.188D+01
 Coeff:     -0.140D-01 0.442D-01-0.448D-01-0.293D+00 0.112D+01-0.169D+01
 Coeff:      0.188D+01
 Gap=     0.364 Goal=   None    Shift=    0.000
 RMSDP=5.78D-05 MaxDP=5.25D-04 DE=-1.47D-06 OVMax= 5.80D-04

 Cycle   8  Pass 1  IDiag  3:
 E= 0.731387828361179     Delta-E=       -0.000000134621 Rises=F Damp=F
 DIIS: error= 2.98D-06 at cycle   8 NSaved=   8.
 NSaved= 8 IEnMin= 8 EnMin= 0.731387828361179     IErMin= 8 ErrMin= 2.98D-06
 ErrMax= 2.98D-06  0.00D+00 EMaxC= 1.00D-01 BMatC= 3.38D-10 BMatP= 5.68D-09
 IDIUse=1 WtCom= 1.00D+00 WtEn= 0.00D+00
 Coeff-Com:  0.775D-02-0.248D-01 0.351D-01 0.652D-01-0.368D+00 0.626D+00
 Coeff-Com: -0.896D+00 0.155D+01
 Coeff:      0.775D-02-0.248D-01 0.351D-01 0.652D-01-0.368D+00 0.626D+00
 Coeff:     -0.896D+00 0.155D+01
 Gap=     0.364 Goal=   None    Shift=    0.000
 RMSDP=7.95D-06 MaxDP=7.25D-05 DE=-1.35D-07 OVMax= 7.90D-05

 Cycle   9  Pass 1  IDiag  3:
 E= 0.731387824473785     Delta-E=       -0.000000003887 Rises=F Damp=F
 DIIS: error= 6.85D-07 at cycle   9 NSaved=   9.
 NSaved= 9 IEnMin= 9 EnMin= 0.731387824473785     IErMin= 9 ErrMin= 6.85D-07
 ErrMax= 6.85D-07  0.00D+00 EMaxC= 1.00D-01 BMatC= 2.24D-11 BMatP= 3.38D-10
 IDIUse=1 WtCom= 1.00D+00 WtEn= 0.00D+00
 Coeff-Com: -0.524D-02 0.169D-01-0.275D-01-0.689D-02 0.141D+00-0.273D+00
 Coeff-Com:  0.419D+00-0.879D+00 0.161D+01
 Coeff:     -0.524D-02 0.169D-01-0.275D-01-0.689D-02 0.141D+00-0.273D+00
 Coeff:      0.419D+00-0.879D+00 0.161D+01
 Gap=     0.364 Goal=   None    Shift=    0.000
 RMSDP=1.41D-06 MaxDP=1.28D-05 DE=-3.89D-09 OVMax= 1.43D-05

 Cycle  10  Pass 1  IDiag  3:
 E= 0.731387824283985     Delta-E=       -0.000000000190 Rises=F Damp=F
 DIIS: error= 1.65D-07 at cycle  10 NSaved=  10.
 NSaved=10 IEnMin=10 EnMin= 0.731387824283985     IErMin=10 ErrMin= 1.65D-07
[...]
     38  0.000000D+00  0.118380D-05  0.491467D-05 -0.199129D-05 -0.319417D-05
               16            17            18            19            20 
     16  0.127636D+00
     17 -0.696550D-01  0.100840D+00
     18  0.370304D-01 -0.575106D-01  0.740971D-01
     19  0.326246D-01 -0.433298D-01 -0.165865D-01  0.599163D-01
     20  0.584531D-02 -0.386932D-01  0.236509D-01  0.150423D-01  0.768439D-01
     21  0.119037D-02  0.194815D-01 -0.119153D-01 -0.756617D-02 -0.375346D-01
     22 -0.703567D-02  0.192118D-01 -0.117356D-01 -0.747612D-02 -0.393094D-01
     23  0.646897D-04 -0.241134D-04  0.506382D-05  0.189396D-04  0.113823D-04
     24  0.427235D-04 -0.325412D-04  0.149099D-04  0.143596D-04  0.960925D-05
     25  0.278391D-04  0.238103D-05 -0.506518D-05  0.619031D-05  0.216223D-05
     26  0.587286D-05 -0.604677D-05  0.478086D-05  0.161033D-05  0.000000D+00
     27  0.000000D+00  0.175754D-04 -0.106113D-04 -0.187909D-05 -0.704676D-05
     28 -0.338187D-04  0.268083D-04 -0.111397D-04 -0.122925D-04 -0.362683D-05
     29  0.357770D-04 -0.776603D-05  0.000000D+00  0.102867D-04  0.000000D+00
     30  0.126857D-05  0.146683D-05 -0.128123D-05  0.000000D+00  0.363333D-05
     31  0.200001D-04 -0.499705D-04  0.295851D-04  0.155153D-04  0.114339D-04
     32  0.451988D-04 -0.419866D-04  0.211210D-04  0.185201D-04  0.101027D-04
     33 -0.206563D-04 -0.149047D-04  0.000000D+00  0.224487D-04  0.171716D-04
     34 -0.435322D-04  0.139263D-05  0.289336D-04 -0.324061D-04  0.179746D-04
     35 -0.602922D-04  0.251674D-04 -0.127698D-04 -0.206507D-04  0.770159D-05
     36 -0.221604D-04  0.148455D-04 -0.120319D-04 -0.920563D-05  0.465051D-05
     37 -0.438744D-04  0.173979D-04 -0.159199D-05 -0.111201D-04  0.390210D-05
     38 -0.574262D-05  0.707605D-05  0.000000D+00  0.000000D+00  0.000000D+00
               21            22            23            24            25 
     21  0.538590D-01
     22 -0.163244D-01  0.556337D-01
     23 -0.443987D-05 -0.750964D-05  0.151947D-01
     24 -0.441428D-05 -0.537173D-05  0.290705D-02  0.988305D-02
     25  0.000000D+00 -0.243225D-05  0.511514D-02 -0.440328D-02  0.889693D-02
     26  0.000000D+00  0.000000D+00 -0.717247D-02  0.257272D-02 -0.621487D-03
     27  0.565337D-05  0.218265D-05 -0.126821D-01 -0.511041D-02 -0.179616D-02
     28  0.000000D+00  0.252956D-05 -0.550029D-02 -0.287225D-02  0.120469D-02
     29  0.222813D-05 -0.195517D-05 -0.343586D-02  0.159558D-02 -0.526532D-02
     30 -0.246101D-05 -0.160826D-05  0.374597D-02  0.383374D-02 -0.226446D-02
     31 -0.631748D-05 -0.498615D-05 -0.118874D-01  0.389772D-03 -0.645647D-02
     32 -0.444666D-05 -0.583753D-05 -0.207623D-02 -0.518027D-02  0.114360D-02
     33 -0.975083D-05 -0.702722D-05  0.347065D-02 -0.378152D-02  0.526452D-02
     34 -0.980547D-05 -0.793596D-05  0.360127D-02  0.106254D-03  0.109808D-02
     35 -0.764263D-05  0.000000D+00  0.565913D-02  0.549701D-02 -0.216232D-02
     36  0.152803D-05 -0.590485D-05 -0.216200D-02  0.305962D-02 -0.543031D-02
     37 -0.617745D-05  0.174562D-05  0.549543D-02  0.624998D-03  0.305889D-02
     38  0.299321D-05 -0.336955D-05 -0.232570D-02 -0.181239D-02 -0.209098D-03
               26            27            28            29            30 
     26  0.912370D-02
     27  0.577554D-02  0.154233D-01
     28  0.383273D-02  0.542972D-02  0.711434D-02
     29 -0.233878D-03  0.543729D-02 -0.720969D-03  0.711551D-02
     30 -0.217669D-02 -0.455630D-02  0.963657D-03  0.957255D-03  0.647721D-02
     31  0.582070D-02  0.511961D-02  0.347042D-02  0.137658D-03 -0.151154D-02
     32 -0.196044D-02 -0.926090D-03  0.137203D-02 -0.387974D-02 -0.158162D-02
     33 -0.198765D-02  0.511659D-02  0.133152D-03  0.347102D-02 -0.151242D-02
     34 -0.239693D-02 -0.926064D-03 -0.387872D-02  0.137019D-02 -0.158247D-02
     35 -0.232445D-02 -0.126805D-01 -0.342827D-02 -0.550565D-02  0.374659D-02
     36 -0.208688D-03 -0.179731D-02 -0.526285D-02  0.120080D-02 -0.226474D-02
     37 -0.181155D-02 -0.510809D-02  0.159926D-02 -0.287297D-02  0.383438D-02
     38  0.304209D-03  0.577511D-02 -0.235327D-03  0.383348D-02 -0.217695D-02
               31            32            33            34            35 
     31  0.140664D-01
     32  0.426356D-02  0.674203D-02
     33 -0.106688D-01 -0.487827D-02  0.140650D-01
     34 -0.488166D-02 -0.209104D-02  0.426720D-02  0.673882D-02
     35  0.347037D-02  0.359981D-02 -0.118864D-01 -0.207911D-02  0.151943D-01
     36  0.526637D-02  0.109712D-02 -0.645939D-02  0.113638D-02  0.511848D-02
     37 -0.378188D-02  0.106956D-03  0.391785D-03 -0.517641D-02  0.290418D-02
     38 -0.198588D-02 -0.239574D-02  0.581884D-02 -0.196092D-02 -0.717168D-02
               36            37            38 
     36  0.889252D-02
     37 -0.440025D-02  0.988204D-02
     38 -0.626212D-03  0.257761D-02  0.912308D-02
 Leave Link  716 at Sun Nov 29 12:22:30 2015, MaxMem=    33554432 cpu:         0.0
 (Enter /home/Applications/g09/g09/l103.exe)

 GradGradGradGradGradGradGradGradGradGradGradGradGradGradGradGradGradGrad
 Berny optimization.
 Red2BG is reusing G-inverse.
 Internal  Forces:  Max     0.000227569 RMS     0.000066967
 Search for a local minimum.
 Step number   1 out of a maximum of    2
 All quantities printed in internal units (Hartrees-Bohrs-Radians)
 Second derivative matrix not updated -- analytic derivatives used.
 ITU=  0
     Eigenvalues ---    0.00900   0.01178   0.01844   0.02433   0.04723
     Eigenvalues ---    0.05315   0.06568   0.06796   0.07049   0.07707
     Eigenvalues ---    0.17820   0.24503   0.25283   0.31187   0.31861
     Eigenvalues ---    0.31929   0.32944   0.35169   0.39676   0.47662
     Eigenvalues ---    0.63808
 Angle between quadratic step and forces=  39.62 degrees.
 Linear search not attempted -- first point.
 Iteration  1 RMS(Cart)=  0.00058028 RMS(Int)=  0.00000056
 Iteration  2 RMS(Cart)=  0.00000051 RMS(Int)=  0.00000026
 ITry= 1 IFail=0 DXMaxC= 1.68D-03 DCOld= 1.00D+10 DXMaxT= 3.00D-01 DXLimC= 3.00D+00 Rises=F
 Variable       Old X    -DE/DX   Delta X   Delta X   Delta X     New X
                                 (Linear)    (Quad)   (Total)
    R1        2.56823   0.00001   0.00000  -0.00009  -0.00009   2.56814
    R2        2.71013  -0.00002   0.00000  -0.00011  -0.00011   2.71003
    R3        2.05271   0.00002   0.00000   0.00008   0.00008   2.05279
    R4        2.59410   0.00010   0.00000   0.00040   0.00040   2.59450
    R5        2.06581   0.00001   0.00000   0.00006   0.00006   2.06587
    R6        2.59357   0.00023   0.00000   0.00093   0.00093   2.59450
    R7        2.56836  -0.00004   0.00000  -0.00022  -0.00022   2.56814
    R8        2.06626  -0.00011   0.00000  -0.00039  -0.00039   2.06587
    R9        2.05302  -0.00009   0.00000  -0.00024  -0.00024   2.05279
    A1        1.85860   0.00007   0.00000   0.00029   0.00029   1.85890
    A2        2.26996  -0.00008   0.00000  -0.00071  -0.00071   2.26925
    A3        2.15463   0.00001   0.00000   0.00041   0.00041   2.15504
    A4        1.92066  -0.00007   0.00000  -0.00033  -0.00033   1.92033
    A5        2.34009   0.00015   0.00000   0.00176   0.00176   2.34186
    A6        2.02244  -0.00008   0.00000  -0.00143  -0.00143   2.02100
    A7        1.86618   0.00002   0.00000   0.00016   0.00016   1.86633
    A8        1.92076  -0.00008   0.00000  -0.00044  -0.00044   1.92033
    A9        2.02195  -0.00003   0.00000  -0.00095  -0.00095   2.02100
   A10        2.34047   0.00011   0.00000   0.00139   0.00139   2.34185
   A11        1.85858   0.00006   0.00000   0.00032   0.00032   1.85890
   A12        2.15531  -0.00003   0.00000  -0.00027  -0.00027   2.15504
   A13        2.26929  -0.00003   0.00000  -0.00004  -0.00004   2.26925
    D1       -0.00095   0.00004   0.00000   0.00095   0.00095   0.00000
    D2        3.14135  -0.00001   0.00000   0.00025   0.00025  -3.14159
    D3        3.14044   0.00004   0.00000   0.00116   0.00116  -3.14159
    D4       -0.00045  -0.00001   0.00000   0.00046   0.00046   0.00000
    D5        0.00007   0.00000   0.00000  -0.00007  -0.00007   0.00000
    D6       -3.14145  -0.00001   0.00000  -0.00015  -0.00015  -3.14159
    D7       -3.14133   0.00000   0.00000  -0.00026  -0.00026   3.14159
    D8        0.00034   0.00000   0.00000  -0.00034  -0.00034   0.00000
    D9        0.00146  -0.00007   0.00000  -0.00146  -0.00146   0.00000
   D10       -3.14070  -0.00003   0.00000  -0.00089  -0.00090   3.14159
   D11       -0.00141   0.00007   0.00000   0.00141   0.00141   0.00000
   D12        3.14090   0.00002   0.00000   0.00069   0.00069   3.14159
   D13        0.00083  -0.00004   0.00000  -0.00083  -0.00083   0.00000
   D14       -3.14084  -0.00003   0.00000  -0.00075  -0.00075   3.14159
   D15        3.14153   0.00001   0.00000   0.00006   0.00006   3.14159
   D16       -0.00015   0.00002   0.00000   0.00015   0.00015   0.00000
         Item               Value     Threshold  Converged?
 Maximum Force            0.000228     0.000450     YES
 RMS     Force            0.000067     0.000300     YES
 Maximum Displacement     0.001675     0.001800     YES
 RMS     Displacement     0.000580     0.001200     YES
 Predicted change in Energy=-7.098527D-07
 Optimization completed.
    -- Stationary point found.
                           ----------------------------
                           !   Optimized Parameters   !
                           ! (Angstroms and Degrees)  !
 --------------------------                            --------------------------
 ! Name  Definition              Value          Derivative Info.                !
 --------------------------------------------------------------------------------
 ! R1    R(1,2)                  1.359          -DE/DX =    0.0                 !
 ! R2    R(1,5)                  1.4341         -DE/DX =    0.0                 !
 ! R3    R(1,9)                  1.0862         -DE/DX =    0.0                 !
 ! R4    R(2,3)                  1.3727         -DE/DX =    0.0001              !
 ! R5    R(2,8)                  1.0932         -DE/DX =    0.0                 !
 ! R6    R(3,4)                  1.3725         -DE/DX =    0.0002              !
 ! R7    R(4,5)                  1.3591         -DE/DX =    0.0                 !
 ! R8    R(4,7)                  1.0934         -DE/DX =   -0.0001              !
 ! R9    R(5,6)                  1.0864         -DE/DX =   -0.0001              !
 ! A1    A(2,1,5)              106.4901         -DE/DX =    0.0001              !
 ! A2    A(2,1,9)              130.059          -DE/DX =   -0.0001              !
 ! A3    A(5,1,9)              123.4509         -DE/DX =    0.0                 !
 ! A4    A(1,2,3)              110.0455         -DE/DX =   -0.0001              !
 ! A5    A(1,2,8)              134.0774         -DE/DX =    0.0002              !
 ! A6    A(3,2,8)              115.877          -DE/DX =   -0.0001              !
 ! A7    A(2,3,4)              106.924          -DE/DX =    0.0                 !
 ! A8    A(3,4,5)              110.0516         -DE/DX =   -0.0001              !
 ! A9    A(3,4,7)              115.8494         -DE/DX =    0.0                 !
 ! A10   A(5,4,7)              134.099          -DE/DX =    0.0001              !
 ! A11   A(1,5,4)              106.4887         -DE/DX =    0.0001              !
 ! A12   A(1,5,6)              123.4903         -DE/DX =    0.0                 !
 ! A13   A(4,5,6)              130.021          -DE/DX =    0.0                 !
 ! D1    D(5,1,2,3)             -0.0544         -DE/DX =    0.0                 !
 ! D2    D(5,1,2,8)           -180.0141         -DE/DX =    0.0                 !
 ! D3    D(9,1,2,3)           -180.0663         -DE/DX =    0.0                 !
 ! D4    D(9,1,2,8)             -0.026          -DE/DX =    0.0                 !
 ! D5    D(2,1,5,4)              0.0041         -DE/DX =    0.0                 !
 ! D6    D(2,1,5,6)           -179.9916         -DE/DX =    0.0                 !
 ! D7    D(9,1,5,4)            180.0151         -DE/DX =    0.0                 !
 ! D8    D(9,1,5,6)              0.0194         -DE/DX =    0.0                 !
 ! D9    D(1,2,3,4)              0.0835         -DE/DX =   -0.0001              !
 ! D10   D(8,2,3,4)            180.0513         -DE/DX =    0.0                 !
 ! D11   D(2,3,4,5)             -0.0808         -DE/DX =    0.0001              !
 ! D12   D(2,3,4,7)            179.9602         -DE/DX =    0.0                 !
 ! D13   D(3,4,5,1)              0.0476         -DE/DX =    0.0                 !
 ! D14   D(3,4,5,6)            180.0429         -DE/DX =    0.0                 !
 ! D15   D(7,4,5,1)            179.9963         -DE/DX =    0.0                 !
 ! D16   D(7,4,5,6)             -0.0084         -DE/DX =    0.0                 !
 --------------------------------------------------------------------------------
 GradGradGradGradGradGradGradGradGradGradGradGradGradGradGradGradGradGrad

 Leave Link  103 at Sun Nov 29 12:22:30 2015, MaxMem=    33554432 cpu:         0.0
 (Enter /home/Applications/g09/g09/l9999.exe)
 1\1\GINC-DUSTIN-DESKTOP\Freq\RAM1\ZDO\C4H4O1\DUSTIN\29-Nov-2015\0\\#P 
 Geom=AllCheck Guess=TCheck SCRF=Check GenChk RAM1/ZDO Freq\\AM1-Repara
 m Input\\0,1\C,0.9322039928,-0.722502224,-0.0255863467\C,-0.3740066314
 ,-1.0976061772,-0.0144521169\O,-1.1821196296,0.0120045304,-0.003231374
 5\C,-0.3560144831,1.1079744822,-0.0094136603\C,0.9439510916,0.71158729
 29,-0.0223715298\H,1.8548379124,1.3036415178,-0.0295038137\H,-0.854788
 3212,2.0809787837,-0.0024885974\H,-0.8881576262,-2.0623237772,-0.01215
 54515\H,1.8335506947,-1.3286494286,-0.0351001091\\Version=ES64L-G09Rev
 D.01\State=1-A\HF=0.7309428\RMSD=1.663e-10\RMSF=1.375e-04\ZeroPoint=0.
 064902\Thermal=0.0688513\Dipole=-0.2013703,0.0022467,0.0012542\DipoleD
 eriv=-0.5702887,0.0804495,0.0006146,0.3433395,-0.608529,-0.0029395,0.0
 010435,-0.0007675,-0.5532352,0.269005,0.0019224,-0.001579,-0.3391388,-
 0.2221551,0.0028124,-0.0025117,-0.001188,0.1597365,-0.8845002,0.008190
 2,0.0060373,0.0074758,0.0836697,0.0007273,0.0066527,0.0007593,-0.28001
 21,0.2756454,-0.0109176,-0.0016532,0.3312592,-0.2272931,-0.0045076,-0.
 0010217,-0.0005337,0.1604718,-0.5782563,-0.0803227,0.0003587,-0.343773
 1,-0.6035901,0.0027012,-0.0004317,0.0005153,-0.5541862,0.468225,0.0903
 942,-0.0013211,0.2026594,0.3028992,-0.0018433,-0.0010776,-0.0008085,0.
 3035488,0.2752596,-0.1902246,-0.0008231,-0.1932899,0.4868512,0.0023948
 ,-0.0007908,0.0023344,0.230095,0.2814828,0.1934598,0.0000333,0.1966297
 ,0.4806413,-0.0011975,0.0000943,-0.0011262,0.2301668,0.463482,-0.09297
 4,-0.0016679,-0.2052105,0.3075548,0.0018528,-0.001942,0.0008129,0.3034
 158\Polar=57.0046879,-0.0639695,48.6243569,-0.4415282,0.0940701,8.7932
 314\HyperPolar=46.822905,-4.0397027,-235.5782478,5.8010773,-0.2494587,
 -0.5259187,2.1350658,6.1180037,-0.0488251,-0.1716304\PG=C01 [X(C4H4O1)
 ]\NImag=0\\0.78597841,-0.08949429,0.56929996,-0.00615649,0.00182403,0.
 14176052,-0.39868825,-0.06602940,0.00275726,0.63234166,-0.12941253,-0.
 11906746,0.00111453,0.20136509,0.60665855,0.00261589,0.00049778,-0.080
 39722,-0.00414614,-0.00064707,0.13717291,-0.09946683,0.01376605,0.0011
 7754,-0.15049758,0.07943257,0.00111915,0.49370139,0.05612756,0.0032041
 5,-0.00059257,0.04163555,-0.13524084,-0.00062350,-0.00091681,0.3460555
 6,0.00127203,-0.00014168,0.01733352,0.00102212,-0.00100237,-0.06278066
 ,-0.00420612,0.00065008,0.07695773,0.00185064,0.07793139,0.00033010,0.
 02577961,-0.01854886,-0.00022496,-0.15268431,-0.04160042,0.00084544,0.
 62581926,0.02923259,-0.03087686,-0.00037612,0.01626063,-0.11075695,-0.
 00045245,-0.07943105,-0.13367111,0.00066154,-0.20122336,0.61331688,0.0
 0022335,-0.00085419,0.01829234,-0.00014450,-0.00009798,0.01065543,0.00
 076608,0.00027934,-0.06275427,-0.00508357,0.00292265,0.13724981,-0.065
 98142,-0.03361348,-0.00016338,0.00007801,-0.02971500,0.00010008,-0.100
 61442,-0.05447556,0.00102637,-0.39524651,0.13389813,0.00322772,0.78841
 983,0.02991367,-0.29192635,-0.00078423,-0.07840984,-0.02915263,0.00063
 596,-0.01207631,0.00437833,0.00006038,0.07048110,-0.12235944,-0.000738
 83,0.08591041,0.56654960,-0.00001289,-0.00018024,-0.07578459,-0.000021
 34,0.00015214,0.01829473,0.00112991,0.00051534,0.01734961,0.00307015,-
 0.00135318,-0.08043520,-0.00585944,0.00015627,0.14181250,-0.00055264,-
 0.00389344,0.00003952,0.00215799,-0.00195686,-0.00000965,-0.00042801,0
 .00596668,0.00005921,-0.02676505,-0.01214357,0.00027116,-0.21213380,-0
 .12024126,0.00137346,0.23659260,-0.01633184,-0.01968935,0.00009845,0.0
 0148794,-0.00378771,-0.00002795,0.00304226,0.00362756,-0.00003241,0.00
 380346,0.00522240,-0.00003275,-0.12362979,-0.10513415,0.00099397,0.131
 75829,0.11935885,0.00000971,-0.00002326,0.00463452,0.00000229,0.000007
 99,0.00183169,0.00005136,-0.00006130,0.00455506,0.00030918,0.00011379,
 0.00476018,0.00136271,0.00096740,-0.03504269,-0.00172168,-0.00100122,0
 .01950745,-0.00227591,-0.00070876,0.00005206,-0.00054177,-0.00504273,0
 .00002262,0.00518712,-0.01355740,-0.00005590,-0.08054253,0.10645266,0.
 00069637,-0.01203187,0.02005895,0.00021283,-0.00027294,-0.00042129,-0.
 00000047,0.08975011,-0.00045383,0.00206495,0.00000118,-0.00538742,0.00
 221623,0.00005733,0.00157396,-0.04600544,-0.00011623,0.10530774,-0.219
 11981,-0.00141907,0.00509542,-0.00438742,-0.00006990,0.00119242,0.0011
 9561,-0.00000808,-0.10721829,0.26520094,0.00004959,-0.00000160,0.00334
 981,0.00002979,0.00004463,0.00278891,-0.00003281,0.00003921,0.00239572
 ,0.00070587,-0.00143548,-0.03238701,0.00017304,-0.00020426,0.00581620,
 0.00000296,0.00000689,-0.00023841,-0.00092165,0.00155686,0.01818207,-0
 .01245226,-0.01994159,0.00012014,-0.08400576,-0.10877600,0.00020031,0.
 00536445,0.01272247,0.00000507,-0.00036835,0.00508663,0.00004459,-0.00
 225779,0.00078074,0.00005519,-0.00002399,-0.00020635,-0.00000143,0.000
 74760,-0.00025950,-0.00000660,0.09328328,-0.00498013,-0.00399059,0.000
 02001,-0.10761226,-0.21594964,0.00052964,-0.00242071,-0.04611730,-0.00
 010803,0.00543147,0.00204424,-0.00006149,0.00052166,0.00205043,-0.0000
 0863,-0.00015230,-0.00020393,0.00000089,0.00023227,-0.00095675,-0.0000
 0438,0.11014930,0.26191526,0.00015526,0.00015538,0.00582070,0.00021162
 ,0.00054160,-0.03231982,-0.00004414,-0.00026166,0.00238563,0.00005314,
 -0.00004773,0.00278691,0.00005164,-0.00000519,0.00335152,-0.00000094,0
 .00000111,-0.00007614,-0.00000529,-0.00000068,0.00016864,-0.00041885,-
 0.00038252,0.01811988,-0.20841640,0.12198277,0.00184329,-0.02661297,0.
 01265572,0.00032260,-0.00057517,-0.00589987,0.00003190,0.00216690,0.00
 186363,-0.00000128,-0.00023706,0.00358335,0.00005220,0.00142531,0.0004
 9675,-0.00001166,-0.00001835,0.00014901,-0.00000023,-0.00028540,-0.001
 16842,-0.00000248,0.23255290,0.12539014,-0.10901954,-0.00130518,-0.003
 30908,0.00508593,0.00003021,-0.00297019,0.00376584,0.00002871,-0.00158
 407,-0.00379336,0.00000239,0.01601758,-0.02002070,-0.00020591,-0.00052
 916,-0.00059039,0.00000378,0.00020339,-0.00020956,-0.00000185,0.000445
 42,0.00120716,-0.00000032,-0.13366374,0.12357329,0.00184352,-0.0012763
 6,-0.03500977,0.00028886,-0.00011351,0.00475418,0.00003930,0.00005525,
 0.00455871,-0.00000553,-0.00003320,0.00183199,0.00008125,-0.00008737,0
 .00463785,-0.00001405,-0.00000613,0.00006828,-0.00000061,-0.00000137,-
 0.00007638,0.00000159,0.00001451,-0.00023781,-0.00223432,0.00144818,0.
 01947285\\0.00000827,-0.00020178,0.00002918,-0.00018834,0.00026965,-0.
 00012708,0.00017231,0.00011555,0.00016575,-0.00019164,-0.00041847,-0.0
 0013274,0.00000793,0.00005772,0.00003712,0.00007502,0.00005157,0.00000
 586,0.00000678,0.00012853,0.00000623,0.00010112,-0.00004757,-0.0000016
 3,0.00000856,0.00004481,0.00001731\\\@


 THERE ARE PEOPLE SO ADDICTED TO EXAGERATING THEY
 CAN'T TELL THE TRUTH WITHOUT LYING. -- FORTUNE COOKIE
 Job cpu time:       0 days  0 hours  0 minutes  0.3 seconds.
 File lengths (MBytes):  RWF=      5 Int=      0 D2E=      0 Chk=      2 Scr=      1
 Normal termination of Gaussian 09 at Sun Nov 29 12:22:30 2015.
