 Entering Gaussian System, Link 0=g09
 Input=FuranAM1Best1.com
 Output=FuranAM1Best1.log
 Initial command:
 /home/Applications/g09/g09/l1.exe "/home/Applications/g09/scratch/Gau-20940.inp" -scrdir="/home/Applications/g09/scratch/"
 Entering Link 1 = /home/Applications/g09/g09/l1.exe PID=     20942.
  
 Copyright (c) 1988,1990,1992,1993,1995,1998,2003,2009,2013,
            Gaussian, Inc.  All Rights Reserved.
  
 This is part of the Gaussian(R) 09 program.  It is based on
 the Gaussian(R) 03 system (copyright 2003, Gaussian, Inc.),
 the Gaussian(R) 98 system (copyright 1998, Gaussian, Inc.),
 the Gaussian(R) 94 system (copyright 1995, Gaussian, Inc.),
 the Gaussian 92(TM) system (copyright 1992, Gaussian, Inc.),
 the Gaussian 90(TM) system (copyright 1990, Gaussian, Inc.),
 the Gaussian 88(TM) system (copyright 1988, Gaussian, Inc.),
 the Gaussian 86(TM) system (copyright 1986, Carnegie Mellon
 University), and the Gaussian 82(TM) system (copyright 1983,
 Carnegie Mellon University). Gaussian is a federally registered
 trademark of Gaussian, Inc.
  
 This software contains proprietary and confidential information,
 including trade secrets, belonging to Gaussian, Inc.
  
 This software is provided under written license and may be
 used, copied, transmitted, or stored only in accord with that
 written license.
  
 The following legend is applicable only to US Government
 contracts under FAR:
  
                    RESTRICTED RIGHTS LEGEND
  
 Use, reproduction and disclosure by the US Government is
 subject to restrictions as set forth in subparagraphs (a)
 and (c) of the Commercial Computer Software - Restricted
 Rights clause in FAR 52.227-19.
  
 Gaussian, Inc.
 340 Quinnipiac St., Bldg. 40, Wallingford CT 06492
  
  
 ---------------------------------------------------------------
 Warning -- This program may not be used in any manner that
 competes with the business of Gaussian, Inc. or will provide
 assistance to any competitor of Gaussian, Inc.  The licensee
 of this program is prohibited from giving any competitor of
 Gaussian, Inc. access to this program.  By using this program,
 the user acknowledges that Gaussian, Inc. is engaged in the
 business of creating and licensing software in the field of
 computational chemistry and represents and warrants to the
 licensee that it is not a competitor of Gaussian, Inc. and that
 it will not use this program in any manner prohibited above.
 ---------------------------------------------------------------
  

 Cite this work as:
 Gaussian 09, Revision D.01,
 M. J. Frisch, G. W. Trucks, H. B. Schlegel, G. E. Scuseria, 
 M. A. Robb, J. R. Cheeseman, G. Scalmani, V. Barone, B. Mennucci, 
 G. A. Petersson, H. Nakatsuji, M. Caricato, X. Li, H. P. Hratchian, 
 A. F. Izmaylov, J. Bloino, G. Zheng, J. L. Sonnenberg, M. Hada, 
 M. Ehara, K. Toyota, R. Fukuda, J. Hasegawa, M. Ishida, T. Nakajima, 
 Y. Honda, O. Kitao, H. Nakai, T. Vreven, J. A. Montgomery, Jr., 
 J. E. Peralta, F. Ogliaro, M. Bearpark, J. J. Heyd, E. Brothers, 
 K. N. Kudin, V. N. Staroverov, T. Keith, R. Kobayashi, J. Normand, 
 K. Raghavachari, A. Rendell, J. C. Burant, S. S. Iyengar, J. Tomasi, 
 M. Cossi, N. Rega, J. M. Millam, M. Klene, J. E. Knox, J. B. Cross, 
 V. Bakken, C. Adamo, J. Jaramillo, R. Gomperts, R. E. Stratmann, 
 O. Yazyev, A. J. Austin, R. Cammi, C. Pomelli, J. W. Ochterski, 
 R. L. Martin, K. Morokuma, V. G. Zakrzewski, G. A. Voth, 
 P. Salvador, J. J. Dannenberg, S. Dapprich, A. D. Daniels, 
 O. Farkas, J. B. Foresman, J. V. Ortiz, J. Cioslowski, 
 and D. J. Fox, Gaussian, Inc., Wallingford CT, 2013.
 
 ******************************************
 Gaussian 09:  ES64L-G09RevD.01 24-Apr-2013
                29-Nov-2015 
 ******************************************
 ----------------------------
 #P AM1(Input,print) Opt Freq
 ----------------------------
 1/14=-1,18=20,19=15,26=1,38=1/1,3;
 2/9=110,12=2,17=6,18=5,40=1/2;
 3/5=2,16=1,25=1,41=700000,71=1,135=100,136=1/1,2,3;
 4/35=1/1;
 5/5=2,35=1,38=5/2;
 6/7=2,8=2,9=2,10=2,28=1/1;
 7//1,2,3,16;
 1/14=-1,18=20,19=15,26=1/3(2);
 2/9=110/2;
 99//99;
 2/9=110/2;
 3/5=2,16=1,25=1,41=700000,71=1,135=20,136=1/1,2,3;
 4/5=5,16=3,35=1/1;
 5/5=2,35=1,38=5/2;
 7//1,2,3,16;
 1/14=-1,18=20,19=15,26=1/3(-5);
 2/9=110/2;
 6/7=2,8=2,9=2,10=2,19=2,28=1/1;
 99/9=1/99;
 Leave Link    1 at Sun Nov 29 12:22:25 2015, MaxMem=           0 cpu:         0.0
 (Enter /home/Applications/g09/g09/l101.exe)
 -----------------
 AM1-Reparam Input
 -----------------
 Symbolic Z-matrix:
 Charge =  0 Multiplicity = 1
 6                     0.98143  -0.76527  -0.01526 
 6                    -0.37523  -1.12361   0.04068 
 8                    -1.16972   0.0162   -0.02967 
 6                    -0.33431   1.05928   0.00726 
 6                     0.92387   0.75862   0.01153 
 1                     1.84745   1.33129   0.01013 
 1                    -0.82189   2.05826  -0.01223 
 1                    -0.87595  -2.00636  -0.00483 
 1                     1.85392  -1.32803   0.01111 
 
 NAtoms=      9 NQM=        9 NQMF=       0 NMMI=      0 NMMIF=      0
                NMic=       0 NMicF=      0.
                    Isotopes and Nuclear Properties:
 (Nuclear quadrupole moments (NQMom) in fm**2, nuclear magnetic moments (NMagM)
  in nuclear magnetons)

  Atom         1           2           3           4           5           6           7           8           9
 IAtWgt=          12          12          16          12          12           1           1           1           1
 AtmWgt=  12.0000000  12.0000000  15.9949146  12.0000000  12.0000000   1.0078250   1.0078250   1.0078250   1.0078250
 NucSpn=           0           0           0           0           0           1           1           1           1
 AtZEff=   0.0000000   0.0000000   0.0000000   0.0000000   0.0000000   0.0000000   0.0000000   0.0000000   0.0000000
 NQMom=    0.0000000   0.0000000   0.0000000   0.0000000   0.0000000   0.0000000   0.0000000   0.0000000   0.0000000
 NMagM=    0.0000000   0.0000000   0.0000000   0.0000000   0.0000000   2.7928460   2.7928460   2.7928460   2.7928460
 AtZNuc=   6.0000000   6.0000000   8.0000000   6.0000000   6.0000000   1.0000000   1.0000000   1.0000000   1.0000000
 Leave Link  101 at Sun Nov 29 12:22:25 2015, MaxMem=    33554432 cpu:         0.0
 (Enter /home/Applications/g09/g09/l103.exe)

 GradGradGradGradGradGradGradGradGradGradGradGradGradGradGradGradGradGrad
 Berny optimization.
 Initialization pass.
                           ----------------------------
                           !    Initial Parameters    !
                           ! (Angstroms and Degrees)  !
 --------------------------                            --------------------------
 ! Name  Definition              Value          Derivative Info.                !
 --------------------------------------------------------------------------------
 ! R1    R(1,2)                  1.4043         estimate D2E/DX2                !
 ! R2    R(1,5)                  1.5252         estimate D2E/DX2                !
 ! R3    R(1,9)                  1.0386         estimate D2E/DX2                !
 ! R4    R(2,3)                  1.3912         estimate D2E/DX2                !
 ! R5    R(2,8)                  1.0159         estimate D2E/DX2                !
 ! R6    R(3,4)                  1.3369         estimate D2E/DX2                !
 ! R7    R(4,5)                  1.2936         estimate D2E/DX2                !
 ! R8    R(4,7)                  1.1118         estimate D2E/DX2                !
 ! R9    R(5,6)                  1.0867         estimate D2E/DX2                !
 ! A1    A(2,1,5)              102.5797         estimate D2E/DX2                !
 ! A2    A(2,1,9)              132.2452         estimate D2E/DX2                !
 ! A3    A(5,1,9)              124.935          estimate D2E/DX2                !
 ! A4    A(1,2,3)              109.9158         estimate D2E/DX2                !
 ! A5    A(1,2,8)              134.1161         estimate D2E/DX2                !
 ! A6    A(3,2,8)              115.3527         estimate D2E/DX2                !
 ! A7    A(2,3,4)              106.3193         estimate D2E/DX2                !
 ! A8    A(3,4,5)              115.2467         estimate D2E/DX2                !
 ! A9    A(3,4,7)              115.2474         estimate D2E/DX2                !
 ! A10   A(5,4,7)              129.4528         estimate D2E/DX2                !
 ! A11   A(1,5,4)              105.5969         estimate D2E/DX2                !
 ! A12   A(1,5,6)              119.6317         estimate D2E/DX2                !
 ! A13   A(4,5,6)              134.7582         estimate D2E/DX2                !
 ! D1    D(5,1,2,3)              5.4561         estimate D2E/DX2                !
 ! D2    D(5,1,2,8)            175.7396         estimate D2E/DX2                !
 ! D3    D(9,1,2,3)            179.8703         estimate D2E/DX2                !
 ! D4    D(9,1,2,8)             -9.8463         estimate D2E/DX2                !
 ! D5    D(2,1,5,4)             -3.0413         estimate D2E/DX2                !
 ! D6    D(2,1,5,6)            178.0932         estimate D2E/DX2                !
 ! D7    D(9,1,5,4)           -177.9987         estimate D2E/DX2                !
 ! D8    D(9,1,5,6)              3.1357         estimate D2E/DX2                !
 ! D9    D(1,2,3,4)             -5.985          estimate D2E/DX2                !
 ! D10   D(8,2,3,4)           -178.2795         estimate D2E/DX2                !
 ! D11   D(2,3,4,5)              4.0233         estimate D2E/DX2                !
 ! D12   D(2,3,4,7)           -178.3723         estimate D2E/DX2                !
 ! D13   D(3,4,5,1)             -0.5634         estimate D2E/DX2                !
 ! D14   D(3,4,5,6)            178.0478         estimate D2E/DX2                !
 ! D15   D(7,4,5,1)           -177.757          estimate D2E/DX2                !
 ! D16   D(7,4,5,6)              0.8543         estimate D2E/DX2                !
 --------------------------------------------------------------------------------
 Trust Radius=3.00D-01 FncErr=1.00D-07 GrdErr=1.00D-07
 Number of steps in this run=     48 maximum allowed number of steps=    100.
 GradGradGradGradGradGradGradGradGradGradGradGradGradGradGradGradGradGrad

 Leave Link  103 at Sun Nov 29 12:22:25 2015, MaxMem=    33554432 cpu:         0.0
 (Enter /home/Applications/g09/g09/l202.exe)
                          Input orientation:                          
 ---------------------------------------------------------------------
 Center     Atomic      Atomic             Coordinates (Angstroms)
 Number     Number       Type             X           Y           Z
 ---------------------------------------------------------------------
      1          6           0        0.981426   -0.765267   -0.015260
      2          6           0       -0.375230   -1.123608    0.040675
      3          8           0       -1.169720    0.016204   -0.029669
      4          6           0       -0.334314    1.059284    0.007261
      5          6           0        0.923870    0.758615    0.011527
      6          1           0        1.847454    1.331288    0.010129
      7          1           0       -0.821892    2.058257   -0.012230
      8          1           0       -0.875954   -2.006359   -0.004830
      9          1           0        1.853915   -1.328027    0.011107
 ---------------------------------------------------------------------
                    Distance matrix (angstroms):
                    1          2          3          4          5
     1  C    0.000000
     2  C    1.404298   0.000000
     3  O    2.288741   1.391163   0.000000
     4  C    2.249592   2.183531   1.336893   0.000000
     5  C    1.525204   2.287198   2.221709   1.293618   0.000000
     6  H    2.268522   3.311763   3.291560   2.198660   1.086722
     7  H    3.350262   3.213498   2.071538   1.111782   2.176538
     8  H    2.233893   1.015896   2.043937   3.113147   3.299199
     9  H    1.038572   2.238694   3.309228   3.238459   2.284526
                    6          7          8          9
     6  H    0.000000
     7  H    2.766657   0.000000
     8  H    4.307791   4.064982   0.000000
     9  H    2.659323   4.315948   2.812930   0.000000
 Stoichiometry    C4H4O
 Framework group  C1[X(C4H4O)]
 Deg. of freedom    21
 Full point group                 C1      NOp   1
 Largest Abelian subgroup         C1      NOp   1
 Largest concise Abelian subgroup C1      NOp   1
                         Standard orientation:                         
 ---------------------------------------------------------------------
 Center     Atomic      Atomic             Coordinates (Angstroms)
 Number     Number       Type             X           Y           Z
 ---------------------------------------------------------------------
      1          6           0        0.749165    0.993391   -0.025256
      2          6           0        1.120496   -0.359451    0.037859
      3          8           0       -0.012025   -1.165062   -0.023132
      4          6           0       -1.062794   -0.339292    0.012509
      5          6           0       -0.773995    0.921668    0.007701
      6          1           0       -1.355358    1.839794    0.002667
      7          1           0       -2.057189   -0.836363   -0.000101
      8          1           0        2.007755   -0.852124   -0.007855
      9          1           0        1.303763    1.871287   -0.006533
 ---------------------------------------------------------------------
 Rotational constants (GHZ):      9.2779529      9.1825638      4.6180506
 Leave Link  202 at Sun Nov 29 12:22:25 2015, MaxMem=    33554432 cpu:         0.0
 (Enter /home/Applications/g09/g09/l301.exe)

 Semi-emprical parameters in input format:
 Method=8 CoreType=1 PeptideFC=0.0105570000 RIJScale=0.4899110000
 ****
 H       
 PQN=1 NValence=1 F0ss=0.4577290000 ZetaOverlap=1.0659780000 U=-0.3880320000
 Beta=-0.2381360000 CoreKO=1.1144350000 KON=0,0,0,1.0186160000 KON=1,0,1,1.0557690000
 KON=0,1,1,1.0725930000 KON=2,1,1,1.1590830000 EISol=-0.4188110042 EHeat=0.0830298228
 Alpha=1.5252600000
 GCore=0.0099350000,1.3986240000,2.1461900000
 GCore=0.0003630000,1.5415670000,2.7171030000
 GCore=-0.0012530000,0.5088300000,4.2039300000
 ****
 C       
 PQN=2,2 NValence=4 F0ss=0.4263360000 F0sp=0.4580860000 F0pp=0.3261620000 F2pp=0.2036090000
 G1sp=0.2073130000
 ZetaOverlap=2.1016200000,1.8587190000
 U=-1.9018080000,-1.4557970000
 Beta=-0.4792560000,-0.2700630000 DDN=0,1,0.8034860000 DDN=1,1,0.7591540000
 CoreKO=1.1325510000 KON=0,0,0,1.1996250000 KON=1,0,1,0.8437060000 KON=0,1,1,1.0478550000
 KON=2,1,1,0.8168110000 EISol=-4.4398989268 EHeat=0.2723305520 Alpha=1.4381970000
 DipHyp=1.6068795495
 GCore=0.0008260000,1.4798740000,2.8384620000
 GCore=0.0031480000,1.6675340000,3.8116200000
 GCore=-0.0011560000,1.5029710000,3.9059920000
 GCore=-0.0000920000,1.1754400000,4.8520980000
 ****
 O       
 PQN=2,2 NValence=6 F0ss=0.5413910000 F0sp=0.5145480000 F0pp=0.5091470000 F2pp=0.2175940000
 G1sp=0.4302620000
 ZetaOverlap=3.3296350000,2.5240390000
 U=-3.3343200000,-2.9854240000
 Beta=-0.9082740000,-1.1340310000 DDN=0,1,0.4988900000 DDN=1,1,0.5206270000
 CoreKO=0.9688900000 KON=0,0,0,0.8976510000 KON=1,0,1,0.5186760000 KON=0,1,1,0.8274210000
 KON=2,1,1,0.5315430000 EISol=-11.6164441184 EHeat=0.0949133088 Alpha=2.3722000000
 DipHyp=0.9977225968
 GCore=0.0212480000,1.1747580000,1.6499540000
 GCore=0.0064050000,2.1096700000,2.7148630000
 ****
 
 Standard basis: VSTO-6G (5D, 7F)
 Ernie: Thresh=  0.10000D-02 Tol=  0.10000D-05 Strict=F.
  NNHCO=     0 NNPyr=     0 NCTC=     0               EPep=         0.000000000
    EC=        67.722419570  ECS=         1.657354220   EG=         0.434692811
   EHC=         0.000000000  EAt=       -31.051283842  AtH=         1.516354808
 EPDDG=         0.000000000  ECC=        69.814466601 EAtT=        32.567638650
 There are    24 symmetry adapted cartesian basis functions of A   symmetry.
 There are    24 symmetry adapted basis functions of A   symmetry.
    24 basis functions,   144 primitive gaussians,    24 cartesian basis functions
    13 alpha electrons       13 beta electrons
       nuclear repulsion energy       102.3821052512 Hartrees.
 IExCor=    0 DFT=F Ex=HF Corr=None ExCW=0 ScaHFX=  1.000000
 ScaDFX=  1.000000  1.000000  1.000000  1.000000 ScalE2=  1.000000  1.000000
 IRadAn=      0 IRanWt=     -1 IRanGd=            0 ICorTp=0 IEmpDi=  4
 Integral buffers will be    131072 words long.
 Regular integral format.
 Two-electron integral symmetry is turned off.
 Leave Link  301 at Sun Nov 29 12:22:25 2015, MaxMem=    33554432 cpu:         0.0
 (Enter /home/Applications/g09/g09/l302.exe)
 Do NDO integrals.
 NPDir=0 NMtPBC=     1 NCelOv=     1 NCel=       1 NClECP=     1 NCelD=      1
         NCelK=      1 NCelE2=     1 NClLst=     1 CellRange=     0.0.
 One-electron integrals computed using PRISM.
 NBasis=    24 RedAO= F EigKep=  0.00D+00  NBF=    24
 NBsUse=    24 1.00D-04 EigRej=  0.00D+00 NBFU=    24
 Leave Link  302 at Sun Nov 29 12:22:25 2015, MaxMem=    33554432 cpu:         0.0
 (Enter /home/Applications/g09/g09/l303.exe)
 DipDrv:  MaxL=1.
 Leave Link  303 at Sun Nov 29 12:22:25 2015, MaxMem=    33554432 cpu:         0.0
 (Enter /home/Applications/g09/g09/l401.exe)
 Simple Huckel Guess.
 JPrj=0 DoOrth=F DoCkMO=F.
 Leave Link  401 at Sun Nov 29 12:22:25 2015, MaxMem=    33554432 cpu:         0.0
 (Enter /home/Applications/g09/g09/l502.exe)
 Closed shell SCF:
 Using DIIS extrapolation, IDIIS=  1040.
 Overlap will be assumed to be unity.
 Two-electron integral symmetry not used.
 Keep J ints in memory in canonical form, NReq=888082.
 IVT=       79475 IEndB=       79475 NGot=    33554432 MDV=    33473473
 LenX=    33473473 LenY=    33472456
 Requested convergence on RMS density matrix=1.00D-08 within 128 cycles.
 Requested convergence on MAX density matrix=1.00D-06.
 Requested convergence on             energy=1.00D-06.
 No special actions if energy rises.
 FoFCou: FMM=F IPFlag=           0 FMFlag=           0 FMFlg1=           0
         NFxFlg=           0 DoJE=F BraDBF=F KetDBF=F FulRan=T
         wScrn=  0.000000 ICntrl=     600 IOpCl=  2 I1Cent=           0 NGrid=           0
         NMat0=    1 NMatS0=     54 NMatT0=    0 NMatD0=    1 NMtDS0=    0 NMtDT0=    0
 Symmetry not used in FoFCou.

 Cycle   1  Pass 1  IDiag  1:
 E=  1.01263551645219    
 DIIS: error= 4.82D-02 at cycle   1 NSaved=   1.
 NSaved= 1 IEnMin= 1 EnMin=  1.01263551645219     IErMin= 1 ErrMin= 4.82D-02
 ErrMax= 4.82D-02  0.00D+00 EMaxC= 1.00D-01 BMatC= 7.28D-02 BMatP= 7.28D-02
 IDIUse=3 WtCom= 5.18D-01 WtEn= 4.82D-01
 Coeff-Com:  0.100D+01
 Coeff-En:   0.100D+01
 Coeff:      0.100D+01
 GapD=    2.000 DampG=2.000 DampE=0.500 DampFc=1.0000 IDamp=-1.
 RMSDP=1.83D-02 MaxDP=1.70D-01              OVMax= 0.00D+00

 Cycle   2  Pass 1  IDiag  1:
 E= 0.788642325279071     Delta-E=       -0.223993191173 Rises=F Damp=F
 DIIS: error= 1.93D-02 at cycle   2 NSaved=   2.
 NSaved= 2 IEnMin= 2 EnMin= 0.788642325279071     IErMin= 2 ErrMin= 1.93D-02
 ErrMax= 1.93D-02  0.00D+00 EMaxC= 1.00D-01 BMatC= 9.19D-03 BMatP= 7.28D-02
 IDIUse=3 WtCom= 8.07D-01 WtEn= 1.93D-01
 Coeff-Com: -0.465D+00 0.147D+01
 Coeff-En:   0.000D+00 0.100D+01
 Coeff:     -0.375D+00 0.138D+01
 RMSDP=9.29D-03 MaxDP=5.90D-02 DE=-2.24D-01 OVMax= 0.00D+00

 Cycle   3  Pass 1  IDiag  3:
 E= 0.753633468281990     Delta-E=       -0.035008856997 Rises=F Damp=F
 DIIS: error= 2.84D-03 at cycle   3 NSaved=   3.
 NSaved= 3 IEnMin= 3 EnMin= 0.753633468281990     IErMin= 3 ErrMin= 2.84D-03
 ErrMax= 2.84D-03  0.00D+00 EMaxC= 1.00D-01 BMatC= 5.01D-04 BMatP= 9.19D-03
 IDIUse=3 WtCom= 9.72D-01 WtEn= 2.84D-02
 Coeff-Com:  0.236D+00-0.869D+00 0.163D+01
 Coeff-En:   0.000D+00 0.000D+00 0.100D+01
 Coeff:      0.229D+00-0.844D+00 0.162D+01
 Gap=     0.366 Goal=   None    Shift=    0.000
 RMSDP=3.03D-03 MaxDP=1.88D-02 DE=-3.50D-02 OVMax= 1.71D-02

 Cycle   4  Pass 1  IDiag  3:
 E= 0.750857739686708     Delta-E=       -0.002775728595 Rises=F Damp=F
 DIIS: error= 1.20D-03 at cycle   4 NSaved=   4.
 NSaved= 4 IEnMin= 4 EnMin= 0.750857739686708     IErMin= 4 ErrMin= 1.20D-03
 ErrMax= 1.20D-03  0.00D+00 EMaxC= 1.00D-01 BMatC= 4.32D-05 BMatP= 5.01D-04
 IDIUse=3 WtCom= 9.88D-01 WtEn= 1.20D-02
 Coeff-Com:  0.113D-02-0.105D-01-0.166D+00 0.118D+01
 Coeff-En:   0.000D+00 0.000D+00 0.000D+00 0.100D+01
 Coeff:      0.112D-02-0.104D-01-0.164D+00 0.117D+01
 Gap=     0.367 Goal=   None    Shift=    0.000
 RMSDP=9.60D-04 MaxDP=7.83D-03 DE=-2.78D-03 OVMax= 8.53D-03

 Cycle   5  Pass 1  IDiag  3:
 E= 0.750554475444559     Delta-E=       -0.000303264242 Rises=F Damp=F
 DIIS: error= 7.45D-04 at cycle   5 NSaved=   5.
 NSaved= 5 IEnMin= 5 EnMin= 0.750554475444559     IErMin= 5 ErrMin= 7.45D-04
 ErrMax= 7.45D-04  0.00D+00 EMaxC= 1.00D-01 BMatC= 1.53D-05 BMatP= 4.32D-05
 IDIUse=3 WtCom= 9.93D-01 WtEn= 7.45D-03
 Coeff-Com: -0.367D-01 0.143D+00-0.149D+00-0.879D+00 0.192D+01
 Coeff-En:   0.000D+00 0.000D+00 0.000D+00 0.000D+00 0.100D+01
 Coeff:     -0.364D-01 0.142D+00-0.147D+00-0.873D+00 0.191D+01
 Gap=     0.367 Goal=   None    Shift=    0.000
 RMSDP=8.97D-04 MaxDP=8.14D-03 DE=-3.03D-04 OVMax= 9.07D-03

 Cycle   6  Pass 1  IDiag  3:
 E= 0.750393133834891     Delta-E=       -0.000161341610 Rises=F Damp=F
 DIIS: error= 4.21D-04 at cycle   6 NSaved=   6.
 NSaved= 6 IEnMin= 6 EnMin= 0.750393133834891     IErMin= 6 ErrMin= 4.21D-04
 ErrMax= 4.21D-04  0.00D+00 EMaxC= 1.00D-01 BMatC= 4.13D-06 BMatP= 1.53D-05
 IDIUse=3 WtCom= 9.96D-01 WtEn= 4.21D-03
 Coeff-Com:  0.183D-01-0.714D-01 0.656D-01 0.632D+00-0.175D+01 0.211D+01
 Coeff-En:   0.000D+00 0.000D+00 0.000D+00 0.000D+00 0.000D+00 0.100D+01
 Coeff:      0.182D-01-0.711D-01 0.653D-01 0.629D+00-0.174D+01 0.210D+01
 Gap=     0.367 Goal=   None    Shift=    0.000
 RMSDP=6.04D-04 MaxDP=6.09D-03 DE=-1.61D-04 OVMax= 6.10D-03

 Cycle   7  Pass 1  IDiag  3:
 E= 0.750340045496273     Delta-E=       -0.000053088339 Rises=F Damp=F
 DIIS: error= 2.49D-04 at cycle   7 NSaved=   7.
 NSaved= 7 IEnMin= 7 EnMin= 0.750340045496273     IErMin= 7 ErrMin= 2.49D-04
 ErrMax= 2.49D-04  0.00D+00 EMaxC= 1.00D-01 BMatC= 9.59D-07 BMatP= 4.13D-06
 IDIUse=3 WtCom= 9.98D-01 WtEn= 2.49D-03
 Coeff-Com: -0.388D-02 0.135D-01-0.267D-02-0.288D+00 0.896D+00-0.163D+01
 Coeff-Com:  0.202D+01
 Coeff-En:   0.000D+00 0.000D+00 0.000D+00 0.000D+00 0.000D+00 0.000D+00
 Coeff-En:   0.100D+01
 Coeff:     -0.387D-02 0.135D-01-0.266D-02-0.287D+00 0.894D+00-0.163D+01
 Coeff:      0.201D+01
 Gap=     0.367 Goal=   None    Shift=    0.000
 RMSDP=3.29D-04 MaxDP=3.74D-03 DE=-5.31D-05 OVMax= 3.00D-03

 Cycle   8  Pass 1  IDiag  3:
 E= 0.750325679816584     Delta-E=       -0.000014365680 Rises=F Damp=F
 DIIS: error= 1.16D-04 at cycle   8 NSaved=   8.
 NSaved= 8 IEnMin= 8 EnMin= 0.750325679816584     IErMin= 8 ErrMin= 1.16D-04
 ErrMax= 1.16D-04  0.00D+00 EMaxC= 1.00D-01 BMatC= 3.52D-07 BMatP= 9.59D-07
 IDIUse=3 WtCom= 9.99D-01 WtEn= 1.16D-03
 Coeff-Com:  0.742D-04 0.174D-02-0.141D-01 0.196D+00-0.649D+00 0.142D+01
 Coeff-Com: -0.226D+01 0.231D+01
 Coeff-En:   0.000D+00 0.000D+00 0.000D+00 0.000D+00 0.000D+00 0.000D+00
 Coeff-En:   0.000D+00 0.100D+01
 Coeff:      0.741D-04 0.174D-02-0.141D-01 0.196D+00-0.648D+00 0.142D+01
 Coeff:     -0.226D+01 0.231D+01
 Gap=     0.367 Goal=   None    Shift=    0.000
 RMSDP=1.98D-04 MaxDP=1.88D-03 DE=-1.44D-05 OVMax= 1.72D-03

 Cycle   9  Pass 1  IDiag  3:
 E= 0.750319473211803     Delta-E=       -0.000006206605 Rises=F Damp=F
 DIIS: error= 9.26D-05 at cycle   9 NSaved=   9.
 NSaved= 9 IEnMin= 9 EnMin= 0.750319473211803     IErMin= 9 ErrMin= 9.26D-05
 ErrMax= 9.26D-05  0.00D+00 EMaxC= 1.00D-01 BMatC= 1.83D-07 BMatP= 3.52D-07
 IDIUse=1 WtCom= 1.00D+00 WtEn= 0.00D+00
 Coeff-Com: -0.576D-03-0.167D-02 0.380D-01-0.509D+00 0.151D+01-0.305D+01
 Coeff-Com:  0.484D+01-0.636D+01 0.453D+01
 Coeff:     -0.576D-03-0.167D-02 0.380D-01-0.509D+00 0.151D+01-0.305D+01
 Coeff:      0.484D+01-0.636D+01 0.453D+01
 Gap=     0.367 Goal=   None    Shift=    0.000
 RMSDP=3.74D-04 MaxDP=3.61D-03 DE=-6.21D-06 OVMax= 3.48D-03

 Cycle  10  Pass 1  IDiag  3:
 E= 0.750313529234973     Delta-E=       -0.000005943977 Rises=F Damp=F
 DIIS: error= 2.33D-05 at cycle  10 NSaved=  10.
 NSaved=10 IEnMin=10 EnMin= 0.750313529234973     IErMin=10 ErrMin= 2.33D-05
 ErrMax= 2.33D-05  0.00D+00 EMaxC= 1.00D-01 BMatC= 1.36D-08 BMatP= 1.83D-07
 IDIUse=1 WtCom= 1.00D+00 WtEn= 0.00D+00
 Coeff-Com: -0.427D-03 0.335D-02-0.192D-01 0.198D+00-0.589D+00 0.123D+01
 Coeff-Com: -0.201D+01 0.279D+01-0.227D+01 0.166D+01
 Coeff:     -0.427D-03 0.335D-02-0.192D-01 0.198D+00-0.589D+00 0.123D+01
 Coeff:     -0.201D+01 0.279D+01-0.227D+01 0.166D+01
 Gap=     0.367 Goal=   None    Shift=    0.000
 RMSDP=7.45D-05 MaxDP=7.65D-04 DE=-5.94D-06 OVMax= 6.86D-04

 Cycle  11  Pass 1  IDiag  3:
 E= 0.750313274161456     Delta-E=       -0.000000255074 Rises=F Damp=F
 DIIS: error= 4.88D-06 at cycle  11 NSaved=  11.
 NSaved=11 IEnMin=11 EnMin= 0.750313274161456     IErMin=11 ErrMin= 4.88D-06
 ErrMax= 4.88D-06  0.00D+00 EMaxC= 1.00D-01 BMatC= 1.21D-09 BMatP= 1.36D-08
 IDIUse=1 WtCom= 1.00D+00 WtEn= 0.00D+00
 Coeff-Com:  0.189D-03-0.154D-02 0.881D-02-0.901D-01 0.267D+00-0.556D+00
 Coeff-Com:  0.908D+00-0.128D+01 0.105D+01-0.937D+00 0.163D+01
 Coeff:      0.189D-03-0.154D-02 0.881D-02-0.901D-01 0.267D+00-0.556D+00
 Coeff:      0.908D+00-0.128D+01 0.105D+01-0.937D+00 0.163D+01
 Gap=     0.367 Goal=   None    Shift=    0.000
 RMSDP=1.42D-05 MaxDP=1.40D-04 DE=-2.55D-07 OVMax= 1.11D-04

 Cycle  12  Pass 1  IDiag  3:
 E= 0.750313261908033     Delta-E=       -0.000000012253 Rises=F Damp=F
 DIIS: error= 1.52D-06 at cycle  12 NSaved=  12.
 NSaved=12 IEnMin=12 EnMin= 0.750313261908033     IErMin=12 ErrMin= 1.52D-06
 ErrMax= 1.52D-06  0.00D+00 EMaxC= 1.00D-01 BMatC= 7.64D-11 BMatP= 1.21D-09
 IDIUse=1 WtCom= 1.00D+00 WtEn= 0.00D+00
 Coeff-Com: -0.816D-04 0.704D-03-0.389D-02 0.400D-01-0.120D+00 0.252D+00
 Coeff-Com: -0.412D+00 0.582D+00-0.478D+00 0.438D+00-0.906D+00 0.161D+01
 Coeff:     -0.816D-04 0.704D-03-0.389D-02 0.400D-01-0.120D+00 0.252D+00
 Coeff:     -0.412D+00 0.582D+00-0.478D+00 0.438D+00-0.906D+00 0.161D+01
 Gap=     0.367 Goal=   None    Shift=    0.000
 RMSDP=1.78D-06 MaxDP=1.38D-05 DE=-1.23D-08 OVMax= 1.97D-05

 Cycle  13  Pass 1  IDiag  3:
 E= 0.750313261330632     Delta-E=       -0.000000000577 Rises=F Damp=F
 DIIS: error= 4.54D-07 at cycle  13 NSaved=  13.
 NSaved=13 IEnMin=13 EnMin= 0.750313261330632     IErMin=13 ErrMin= 4.54D-07
 ErrMax= 4.54D-07  0.00D+00 EMaxC= 1.00D-01 BMatC= 4.19D-12 BMatP= 7.64D-11
 IDIUse=1 WtCom= 1.00D+00 WtEn= 0.00D+00
 Coeff-Com:  0.346D-04-0.284D-03 0.144D-02-0.145D-01 0.436D-01-0.923D-01
 Coeff-Com:  0.152D+00-0.216D+00 0.178D+00-0.170D+00 0.366D+00-0.801D+00
 Coeff-Com:  0.155D+01
 Coeff:      0.346D-04-0.284D-03 0.144D-02-0.145D-01 0.436D-01-0.923D-01
 Coeff:      0.152D+00-0.216D+00 0.178D+00-0.170D+00 0.366D+00-0.801D+00
 Coeff:      0.155D+01
 Gap=     0.367 Goal=   None    Shift=    0.000
 RMSDP=5.49D-07 MaxDP=4.40D-06 DE=-5.77D-10 OVMax= 6.49D-06

 Cycle  14  Pass 1  IDiag  3:
 E= 0.750313261293272     Delta-E=       -0.000000000037 Rises=F Damp=F
 DIIS: error= 1.12D-07 at cycle  14 NSaved=  14.
 NSaved=14 IEnMin=14 EnMin= 0.750313261293272     IErMin=14 ErrMin= 1.12D-07
 ErrMax= 1.12D-07  0.00D+00 EMaxC= 1.00D-01 BMatC= 2.63D-13 BMatP= 4.19D-12
 IDIUse=1 WtCom= 1.00D+00 WtEn= 0.00D+00
 Coeff-Com: -0.968D-05 0.840D-04-0.403D-03 0.407D-02-0.124D-01 0.266D-01
 Coeff-Com: -0.439D-01 0.627D-01-0.520D-01 0.505D-01-0.109D+00 0.254D+00
 Coeff-Com: -0.648D+00 0.147D+01
 Coeff:     -0.968D-05 0.840D-04-0.403D-03 0.407D-02-0.124D-01 0.266D-01
 Coeff:     -0.439D-01 0.627D-01-0.520D-01 0.505D-01-0.109D+00 0.254D+00
 Coeff:     -0.648D+00 0.147D+01
 Gap=     0.367 Goal=   None    Shift=    0.000
 RMSDP=1.21D-07 MaxDP=9.05D-07 DE=-3.74D-11 OVMax= 1.04D-06

 Cycle  15  Pass 1  IDiag  3:
 E= 0.750313261291325     Delta-E=       -0.000000000002 Rises=F Damp=F
 DIIS: error= 2.87D-08 at cycle  15 NSaved=  15.
 NSaved=15 IEnMin=15 EnMin= 0.750313261291325     IErMin=15 ErrMin= 2.87D-08
 ErrMax= 2.87D-08  0.00D+00 EMaxC= 1.00D-01 BMatC= 2.06D-14 BMatP= 2.63D-13
 IDIUse=1 WtCom= 1.00D+00 WtEn= 0.00D+00
 Coeff-Com:  0.120D-05-0.102D-04 0.288D-04-0.261D-03 0.871D-03-0.207D-02
 Coeff-Com:  0.351D-02-0.528D-02 0.453D-02-0.520D-02 0.121D-01-0.365D-01
 Coeff-Com:  0.147D+00-0.642D+00 0.152D+01
 Coeff:      0.120D-05-0.102D-04 0.288D-04-0.261D-03 0.871D-03-0.207D-02
 Coeff:      0.351D-02-0.528D-02 0.453D-02-0.520D-02 0.121D-01-0.365D-01
 Coeff:      0.147D+00-0.642D+00 0.152D+01
 Gap=     0.367 Goal=   None    Shift=    0.000
 RMSDP=4.36D-08 MaxDP=3.35D-07 DE=-1.95D-12 OVMax= 4.54D-07

 Cycle  16  Pass 1  IDiag  3:
 E= 0.750313261291097     Delta-E=        0.000000000000 Rises=F Damp=F
 DIIS: error= 4.27D-09 at cycle  16 NSaved=  16.
 NSaved=16 IEnMin=16 EnMin= 0.750313261291097     IErMin=16 ErrMin= 4.27D-09
 ErrMax= 4.27D-09  0.00D+00 EMaxC= 1.00D-01 BMatC= 9.70D-16 BMatP= 2.06D-14
 IDIUse=1 WtCom= 1.00D+00 WtEn= 0.00D+00
 Large coefficients: NSaved= 16 BigCof=    0.00 CofMax=   10.00 Det=-9.36D-16
 Inversion failed.  Reducing to 15 matrices.
 Coeff-Com: -0.211D-06 0.125D-04-0.145D-03 0.402D-03-0.754D-03 0.119D-02
 Coeff-Com: -0.154D-02 0.118D-02-0.651D-03 0.856D-03 0.231D-02-0.325D-01
 Coeff-Com:  0.232D+00-0.749D+00 0.155D+01
 Coeff:     -0.211D-06 0.125D-04-0.145D-03 0.402D-03-0.754D-03 0.119D-02
 Coeff:     -0.154D-02 0.118D-02-0.651D-03 0.856D-03 0.231D-02-0.325D-01
 Coeff:      0.232D+00-0.749D+00 0.155D+01
 Gap=     0.367 Goal=   None    Shift=    0.000
 RMSDP=6.90D-09 MaxDP=4.12D-08 DE=-2.27D-13 OVMax= 5.82D-08

 Cycle  17  Pass 2  IDiag  1:
 SCF Done:  E(RAM1) =  0.750313261291     A.U. after   17 cycles
            NFock= 16  Conv=0.69D-08     -V/T= 1.0500
 KE=-1.499773878798D+01 PE=-1.710679623925D+02 EE= 8.443390919058D+01
 Leave Link  502 at Sun Nov 29 12:22:25 2015, MaxMem=    33554432 cpu:         0.0
 (Enter /home/Applications/g09/g09/l601.exe)
 Copying SCF densities to generalized density rwf, IOpCl= 0 IROHF=0.

 **********************************************************************

            Population analysis using the SCF density.

 **********************************************************************

 Orbital symmetries:
       Occupied  (A) (A) (A) (A) (A) (A) (A) (A) (A) (A) (A) (A)
                 (A)
       Virtual   (A) (A) (A) (A) (A) (A) (A) (A) (A) (A) (A)
 The electronic state is 1-A.
 Alpha  occ. eigenvalues --   -1.20522  -0.93057  -0.91828  -0.75089  -0.68852
 Alpha  occ. eigenvalues --   -0.66581  -0.61819  -0.53765  -0.52538  -0.50494
 Alpha  occ. eigenvalues --   -0.48373  -0.40634  -0.36341
 Alpha virt. eigenvalues --    0.00327   0.02311   0.10865   0.12052   0.15867
 Alpha virt. eigenvalues --    0.16695   0.19555   0.20616   0.21890   0.22715
 Alpha virt. eigenvalues --    0.23789
          Condensed to atoms (all electrons):
               1          2          3          4          5          6
     1  C    4.478493   0.000000   0.000000   0.000000   0.000000   0.000000
     2  C    0.000000   3.835720   0.000000   0.000000   0.000000   0.000000
     3  O    0.000000   0.000000   6.425206   0.000000   0.000000   0.000000
     4  C    0.000000   0.000000   0.000000   3.727643   0.000000   0.000000
     5  C    0.000000   0.000000   0.000000   0.000000   4.673000   0.000000
     6  H    0.000000   0.000000   0.000000   0.000000   0.000000   0.683117
     7  H    0.000000   0.000000   0.000000   0.000000   0.000000   0.000000
     8  H    0.000000   0.000000   0.000000   0.000000   0.000000   0.000000
     9  H    0.000000   0.000000   0.000000   0.000000   0.000000   0.000000
               7          8          9
     1  C    0.000000   0.000000   0.000000
     2  C    0.000000   0.000000   0.000000
     3  O    0.000000   0.000000   0.000000
     4  C    0.000000   0.000000   0.000000
     5  C    0.000000   0.000000   0.000000
     6  H    0.000000   0.000000   0.000000
     7  H    0.730538   0.000000   0.000000
     8  H    0.000000   0.737085   0.000000
     9  H    0.000000   0.000000   0.709198
 Mulliken charges:
               1
     1  C   -0.478493
     2  C    0.164280
     3  O   -0.425206
     4  C    0.272357
     5  C   -0.673000
     6  H    0.316883
     7  H    0.269462
     8  H    0.262915
     9  H    0.290802
 Sum of Mulliken charges =   0.00000
 Mulliken charges with hydrogens summed into heavy atoms:
               1
     1  C   -0.187690
     2  C    0.427195
     3  O   -0.425206
     4  C    0.541819
     5  C   -0.356117
 Charge=              0.0000 electrons
 Dipole moment (field-independent basis, Debye):
    X=             -0.0803    Y=             -0.5120    Z=              0.0873  Tot=              0.5256
 N-N= 1.023821052512D+02 E-N=-1.710679623839D+02  KE=-1.499773878798D+01
 Leave Link  601 at Sun Nov 29 12:22:25 2015, MaxMem=    33554432 cpu:         0.0
 (Enter /home/Applications/g09/g09/l701.exe)
 Compute integral first derivatives.
 ... and contract with generalized density number  0.
 Leave Link  701 at Sun Nov 29 12:22:25 2015, MaxMem=    33554432 cpu:         0.0
 (Enter /home/Applications/g09/g09/l702.exe)
 L702 exits ... SP integral derivatives will be done elsewhere.
 Leave Link  702 at Sun Nov 29 12:22:25 2015, MaxMem=    33554432 cpu:         0.0
 (Enter /home/Applications/g09/g09/l703.exe)
 Compute integral first derivatives, UseDBF=F ICtDFT=           0.
 Integral derivatives from FoFJK, PRISM(SPDF).
 Calling FoFJK, ICntrl=      2127 FMM=F ISym2X=0 I1Cent= 0 IOpClX= 0 NMat=1 NMatS=1 NMatT=0.
 FoFJK:  IHMeth= 8 ICntrl=    2127 DoSepK=F KAlg= 0 I1Cent=   0 FoldK=F
 IRaf=         0 NMat=   1 IRICut=       1 DoRegI=T DoRafI=F ISym2E= 0.
 FoFCou: FMM=F IPFlag=           0 FMFlag=      100000 FMFlg1=         800
         NFxFlg=           0 DoJE=F BraDBF=F KetDBF=F FulRan=T
         wScrn=  0.000000 ICntrl=    2127 IOpCl=  0 I1Cent=           0 NGrid=           0
         NMat0=    1 NMatS0=      1 NMatT0=    0 NMatD0=    1 NMtDS0=    0 NMtDT0=    0
 Symmetry not used in FoFCou.
 Leave Link  703 at Sun Nov 29 12:22:25 2015, MaxMem=    33554432 cpu:         0.0
 (Enter /home/Applications/g09/g09/l716.exe)
 Dipole        =-3.15902024D-02-2.01440258D-01 3.43372373D-02
 ***** Axes restored to original set *****
 -------------------------------------------------------------------
 Center     Atomic                   Forces (Hartrees/Bohr)
 Number     Number              X              Y              Z
 -------------------------------------------------------------------
      1        6          -0.078407663    0.055319262    0.013846343
      2        6           0.067595372    0.054551754   -0.016230856
      3        8          -0.003296527   -0.026366745    0.009447356
      4        6          -0.055677162    0.058131820   -0.004958460
      5        6           0.071824371   -0.074878610   -0.003691917
      6        1          -0.001606435    0.000293164    0.000585866
      7        1           0.000205215   -0.005042613    0.000961533
      8        1          -0.024453852   -0.047418196    0.000883108
      9        1           0.023816681   -0.014589836   -0.000842971
 -------------------------------------------------------------------
 Cartesian Forces:  Max     0.078407663 RMS     0.037978544
 Leave Link  716 at Sun Nov 29 12:22:25 2015, MaxMem=    33554432 cpu:         0.0
 (Enter /home/Applications/g09/g09/l103.exe)

 GradGradGradGradGradGradGradGradGradGradGradGradGradGradGradGradGradGrad
 Berny optimization.
 FormGI is forming the generalized inverse of G from B-inverse, IUseBI=4.
 Internal  Forces:  Max     0.060900344 RMS     0.018711850
 Search for a local minimum.
 Step number   1 out of a maximum of   48
 All quantities printed in internal units (Hartrees-Bohrs-Radians)
 RMS Force = .18712D-01 SwitMx=.10000D-02 MixMth= 1
 Mixed Optimization -- RFO/linear search
 Second derivative matrix not updated -- first step.
 ITU=  0
     Eigenvalues ---    0.01182   0.01630   0.02017   0.02287   0.02608
     Eigenvalues ---    0.03259   0.15799   0.15885   0.15987   0.15995
     Eigenvalues ---    0.21984   0.22859   0.29235   0.32412   0.35194
     Eigenvalues ---    0.41502   0.41831   0.44999   0.45143   0.55098
     Eigenvalues ---    0.65508
 RFO step:  Lambda=-3.08861345D-02 EMin= 1.18173620D-02
 Linear search not attempted -- first point.
 Iteration  1 RMS(Cart)=  0.04470019 RMS(Int)=  0.00219899
 Iteration  2 RMS(Cart)=  0.00225586 RMS(Int)=  0.00079088
 Iteration  3 RMS(Cart)=  0.00000336 RMS(Int)=  0.00079087
 Iteration  4 RMS(Cart)=  0.00000000 RMS(Int)=  0.00079087
 ITry= 1 IFail=0 DXMaxC= 1.17D-01 DCOld= 1.00D+10 DXMaxT= 3.00D-01 DXLimC= 3.00D+00 Rises=F
 Variable       Old X    -DE/DX   Delta X   Delta X   Delta X     New X
                                 (Linear)    (Quad)   (Total)
    R1        2.65374  -0.03962   0.00000  -0.09654  -0.09649   2.55725
    R2        2.88222  -0.04474   0.00000  -0.13893  -0.13887   2.74334
    R3        1.96262   0.02789   0.00000   0.06255   0.06255   2.02517
    R4        2.62892  -0.00138   0.00000  -0.00822  -0.00824   2.62067
    R5        1.91977   0.05322   0.00000   0.11067   0.11067   2.03043
    R6        2.52636   0.01749   0.00000   0.03716   0.03710   2.56346
    R7        2.44458   0.06090   0.00000   0.09302   0.09300   2.53759
    R8        2.10096  -0.00464   0.00000  -0.01306  -0.01306   2.08790
    R9        2.05361  -0.00121   0.00000  -0.00316  -0.00316   2.05044
    A1        1.79035   0.02239   0.00000   0.05927   0.05813   1.84848
    A2        2.30811  -0.01028   0.00000  -0.02302  -0.02336   2.28476
    A3        2.18053  -0.01186   0.00000  -0.03078  -0.03108   2.14945
    A4        1.91839   0.00885   0.00000   0.00396   0.00176   1.92015
    A5        2.34077  -0.00567   0.00000  -0.00362  -0.00496   2.33581
    A6        2.01328  -0.00249   0.00000   0.01400   0.01278   2.02607
    A7        1.85562  -0.00180   0.00000   0.00523   0.00413   1.85976
    A8        2.01143  -0.02695   0.00000  -0.06910  -0.06991   1.94152
    A9        2.01145   0.01133   0.00000   0.02370   0.02393   2.03537
   A10        2.25938   0.01569   0.00000   0.04658   0.04680   2.30618
   A11        1.84301  -0.00188   0.00000   0.01246   0.01176   1.85477
   A12        2.08797   0.00207   0.00000  -0.00011   0.00005   2.08802
   A13        2.35197  -0.00015   0.00000  -0.01175  -0.01159   2.34038
    D1        0.09523  -0.00405   0.00000  -0.09749  -0.09888  -0.00365
    D2        3.06723   0.00158   0.00000   0.01644   0.01529   3.08252
    D3        3.13933  -0.00124   0.00000  -0.03462  -0.03516   3.10416
    D4       -0.17185   0.00439   0.00000   0.07931   0.07900  -0.09285
    D5       -0.05308   0.00324   0.00000   0.06329   0.06332   0.01024
    D6        3.10831   0.00159   0.00000   0.03788   0.03838  -3.13649
    D7       -3.10666   0.00080   0.00000   0.00651   0.00580  -3.10086
    D8        0.05473  -0.00085   0.00000  -0.01890  -0.01913   0.03559
    D9       -0.10446   0.00500   0.00000   0.10078   0.10023  -0.00422
   D10       -3.11156   0.00113   0.00000   0.01213   0.01025  -3.10131
   D11        0.07022  -0.00390   0.00000  -0.05958  -0.05899   0.01123
   D12       -3.11318  -0.00190   0.00000  -0.03155  -0.03105   3.13895
   D13       -0.00983  -0.00035   0.00000  -0.00494  -0.00353  -0.01336
   D14        3.10752   0.00170   0.00000   0.02645   0.02692   3.13445
   D15       -3.10244  -0.00232   0.00000  -0.03646  -0.03578  -3.13823
   D16        0.01491  -0.00027   0.00000  -0.00507  -0.00533   0.00958
         Item               Value     Threshold  Converged?
 Maximum Force            0.060900     0.000450     NO 
 RMS     Force            0.018712     0.000300     NO 
 Maximum Displacement     0.117137     0.001800     NO 
 RMS     Displacement     0.044635     0.001200     NO 
 Predicted change in Energy=-1.711688D-02
 Lowest energy point so far.  Saving SCF results.
 GradGradGradGradGradGradGradGradGradGradGradGradGradGradGradGradGradGrad

 Leave Link  103 at Sun Nov 29 12:22:25 2015, MaxMem=    33554432 cpu:         0.0
 (Enter /home/Applications/g09/g09/l202.exe)
                          Input orientation:                          
 ---------------------------------------------------------------------
 Center     Atomic      Atomic             Coordinates (Angstroms)
 Number     Number       Type             X           Y           Z
 ---------------------------------------------------------------------
      1          6           0        0.945908   -0.724860    0.007501
      2          6           0       -0.353072   -1.104193    0.009925
      3          8           0       -1.173995    0.013517    0.004760
      4          6           0       -0.354830    1.094779    0.004569
      5          6           0        0.936558    0.726773   -0.004749
      6          1           0        1.876191    1.269302   -0.013574
      7          1           0       -0.843211    2.085828   -0.001908
      8          1           0       -0.850428   -2.055849   -0.028103
      9          1           0        1.846434   -1.304910    0.040289
 ---------------------------------------------------------------------
                    Distance matrix (angstroms):
                    1          2          3          4          5
     1  C    0.000000
     2  C    1.353236   0.000000
     3  O    2.244815   1.386800   0.000000
     4  C    2.236742   2.198979   1.356525   0.000000
     5  C    1.451715   2.239597   2.227837   1.342832   0.000000
     6  H    2.200580   3.256324   3.298631   2.237911   1.085047
     7  H    3.331816   3.227477   2.098556   1.104869   2.239333
     8  H    2.235984   1.074458   2.094768   3.189537   3.307091
     9  H    1.071672   2.208854   3.295831   3.256586   2.226576
                    6          7          8          9
     6  H    0.000000
     7  H    2.839366   0.000000
     8  H    4.300150   4.141766   0.000000
     9  H    2.574948   4.328172   2.800295   0.000000
 Stoichiometry    C4H4O
 Framework group  C1[X(C4H4O)]
 Deg. of freedom    21
 Full point group                 C1      NOp   1
 RotChk:  IX=2 Diff= 2.26D-01
 Largest Abelian subgroup         C1      NOp   1
 Largest concise Abelian subgroup C1      NOp   1
                         Standard orientation:                         
 ---------------------------------------------------------------------
 Center     Atomic      Atomic             Coordinates (Angstroms)
 Number     Number       Type             X           Y           Z
 ---------------------------------------------------------------------
      1          6           0        0.861544    0.834804    0.000867
      2          6           0        1.041588   -0.506400    0.002715
      3          8           0       -0.186699   -1.150235    0.001530
      4          6           0       -1.132736   -0.178039    0.004397
      5          6           0       -0.575075    1.043472   -0.006733
      6          1           0       -0.970429    2.053900   -0.014283
      7          1           0       -2.185883   -0.512113    0.001331
      8          1           0        1.907673   -1.140979   -0.038114
      9          1           0        1.570307    1.638052    0.031356
 ---------------------------------------------------------------------
 Rotational constants (GHZ):      9.4378458      9.2315750      4.6670863
 Leave Link  202 at Sun Nov 29 12:22:25 2015, MaxMem=    33554432 cpu:         0.0
 (Enter /home/Applications/g09/g09/l301.exe)

 Semi-emprical parameters in input format:
 Method=8 CoreType=1 PeptideFC=0.0105570000 RIJScale=0.4899110000
 ****
 H       
 PQN=1 NValence=1 F0ss=0.4577290000 ZetaOverlap=1.0659780000 U=-0.3880320000
 Beta=-0.2381360000 CoreKO=1.1144350000 KON=0,0,0,1.0186160000 KON=1,0,1,1.0557690000
 KON=0,1,1,1.0725930000 KON=2,1,1,1.1590830000 EISol=-0.4188110042 EHeat=0.0830298228
 Alpha=1.5252600000
 GCore=0.0099350000,1.3986240000,2.1461900000
 GCore=0.0003630000,1.5415670000,2.7171030000
 GCore=-0.0012530000,0.5088300000,4.2039300000
 ****
 C       
 PQN=2,2 NValence=4 F0ss=0.4263360000 F0sp=0.4580860000 F0pp=0.3261620000 F2pp=0.2036090000
 G1sp=0.2073130000
 ZetaOverlap=2.1016200000,1.8587190000
 U=-1.9018080000,-1.4557970000
 Beta=-0.4792560000,-0.2700630000 DDN=0,1,0.8034860000 DDN=1,1,0.7591540000
 CoreKO=1.1325510000 KON=0,0,0,1.1996250000 KON=1,0,1,0.8437060000 KON=0,1,1,1.0478550000
 KON=2,1,1,0.8168110000 EISol=-4.4398989268 EHeat=0.2723305520 Alpha=1.4381970000
 DipHyp=1.6068795495
 GCore=0.0008260000,1.4798740000,2.8384620000
 GCore=0.0031480000,1.6675340000,3.8116200000
 GCore=-0.0011560000,1.5029710000,3.9059920000
 GCore=-0.0000920000,1.1754400000,4.8520980000
 ****
 O       
 PQN=2,2 NValence=6 F0ss=0.5413910000 F0sp=0.5145480000 F0pp=0.5091470000 F2pp=0.2175940000
 G1sp=0.4302620000
 ZetaOverlap=3.3296350000,2.5240390000
 U=-3.3343200000,-2.9854240000
 Beta=-0.9082740000,-1.1340310000 DDN=0,1,0.4988900000 DDN=1,1,0.5206270000
 CoreKO=0.9688900000 KON=0,0,0,0.8976510000 KON=1,0,1,0.5186760000 KON=0,1,1,0.8274210000
 KON=2,1,1,0.5315430000 EISol=-11.6164441184 EHeat=0.0949133088 Alpha=2.3722000000
 DipHyp=0.9977225968
 GCore=0.0212480000,1.1747580000,1.6499540000
 GCore=0.0064050000,2.1096700000,2.7148630000
 ****
 
 Standard basis: VSTO-6G (5D, 7F)
 Ernie: Thresh=  0.10000D-02 Tol=  0.10000D-05 Strict=F.
  NNHCO=     0 NNPyr=     0 NCTC=     0               EPep=         0.000000000
    EC=        67.846095336  ECS=         1.640457854   EG=         0.431109166
   EHC=         0.000000000  EAt=       -31.051283842  AtH=         1.516354808
 EPDDG=         0.000000000  ECC=        69.917662356 EAtT=        32.567638650
 There are    24 symmetry adapted cartesian basis functions of A   symmetry.
 There are    24 symmetry adapted basis functions of A   symmetry.
    24 basis functions,   144 primitive gaussians,    24 cartesian basis functions
    13 alpha electrons       13 beta electrons
       nuclear repulsion energy       102.4853010068 Hartrees.
 IExCor=    0 DFT=F Ex=HF Corr=None ExCW=0 ScaHFX=  1.000000
 ScaDFX=  1.000000  1.000000  1.000000  1.000000 ScalE2=  1.000000  1.000000
 IRadAn=      0 IRanWt=     -1 IRanGd=            0 ICorTp=0 IEmpDi=  4
 Integral buffers will be    131072 words long.
 Regular integral format.
 Two-electron integral symmetry is turned off.
 Leave Link  301 at Sun Nov 29 12:22:25 2015, MaxMem=    33554432 cpu:         0.0
 (Enter /home/Applications/g09/g09/l302.exe)
 Do NDO integrals.
 NPDir=0 NMtPBC=     1 NCelOv=     1 NCel=       1 NClECP=     1 NCelD=      1
         NCelK=      1 NCelE2=     1 NClLst=     1 CellRange=     0.0.
 One-electron integrals computed using PRISM.
 NBasis=    24 RedAO= F EigKep=  0.00D+00  NBF=    24
 NBsUse=    24 1.00D-04 EigRej=  0.00D+00 NBFU=    24
 Leave Link  302 at Sun Nov 29 12:22:25 2015, MaxMem=    33554432 cpu:         0.0
 (Enter /home/Applications/g09/g09/l303.exe)
 DipDrv:  MaxL=1.
 Leave Link  303 at Sun Nov 29 12:22:25 2015, MaxMem=    33554432 cpu:         0.0
 (Enter /home/Applications/g09/g09/l401.exe)
 Initial guess from the checkpoint file:  "/home/Applications/g09/scratch/Gau-20942.chk"
 B after Tr=     0.000000    0.000000    0.000000
         Rot=    0.996816    0.000125    0.000088    0.079740 Ang=   9.15 deg.
 Guess basis will be translated and rotated to current coordinates.
 JPrj=0 DoOrth=T DoCkMO=T.
 Leave Link  401 at Sun Nov 29 12:22:25 2015, MaxMem=    33554432 cpu:         0.0
 (Enter /home/Applications/g09/g09/l502.exe)
 Closed shell SCF:
 Using DIIS extrapolation, IDIIS=  1040.
 Overlap will be assumed to be unity.
 Two-electron integral symmetry not used.
 Keep J ints in memory in canonical form, NReq=888082.
 IVT=       79475 IEndB=       79475 NGot=    33554432 MDV=    33473473
 LenX=    33473473 LenY=    33472456
 Requested convergence on RMS density matrix=1.00D-08 within 128 cycles.
 Requested convergence on MAX density matrix=1.00D-06.
 Requested convergence on             energy=1.00D-06.
 No special actions if energy rises.
 FoFCou: FMM=F IPFlag=           0 FMFlag=           0 FMFlg1=           0
         NFxFlg=           0 DoJE=F BraDBF=F KetDBF=F FulRan=T
         wScrn=  0.000000 ICntrl=     600 IOpCl=  2 I1Cent=           0 NGrid=           0
         NMat0=    1 NMatS0=     54 NMatT0=    0 NMatD0=    1 NMtDS0=    0 NMtDT0=    0
 Symmetry not used in FoFCou.

 Cycle   1  Pass 1  IDiag  1:
 E= 0.740316798805893    
 DIIS: error= 5.18D-03 at cycle   1 NSaved=   1.
 NSaved= 1 IEnMin= 1 EnMin= 0.740316798805893     IErMin= 1 ErrMin= 5.18D-03
 ErrMax= 5.18D-03  0.00D+00 EMaxC= 1.00D-01 BMatC= 2.02D-03 BMatP= 2.02D-03
 IDIUse=3 WtCom= 9.48D-01 WtEn= 5.18D-02
 Coeff-Com:  0.100D+01
 Coeff-En:   0.100D+01
 Coeff:      0.100D+01
 GapD=    2.000 DampG=2.000 DampE=1.000 DampFc=2.0000 IDamp=-1.
 RMSDP=3.21D-03 MaxDP=1.18D-02              OVMax= 0.00D+00

 Cycle   2  Pass 1  IDiag  3:
 E= 0.733812667679729     Delta-E=       -0.006504131126 Rises=F Damp=F
 DIIS: error= 2.02D-03 at cycle   2 NSaved=   2.
 NSaved= 2 IEnMin= 2 EnMin= 0.733812667679729     IErMin= 2 ErrMin= 2.02D-03
 ErrMax= 2.02D-03  0.00D+00 EMaxC= 1.00D-01 BMatC= 2.87D-04 BMatP= 2.02D-03
 IDIUse=3 WtCom= 9.80D-01 WtEn= 2.02D-02
 Coeff-Com: -0.525D+00 0.152D+01
 Coeff-En:   0.000D+00 0.100D+01
 Coeff:     -0.514D+00 0.151D+01
 Gap=     0.370 Goal=   None    Shift=    0.000
 RMSDP=2.08D-03 MaxDP=9.35D-03 DE=-6.50D-03 OVMax= 9.93D-03

 Cycle   3  Pass 1  IDiag  3:
 E= 0.732468660062679     Delta-E=       -0.001344007617 Rises=F Damp=F
 DIIS: error= 5.21D-04 at cycle   3 NSaved=   3.
 NSaved= 3 IEnMin= 3 EnMin= 0.732468660062679     IErMin= 3 ErrMin= 5.21D-04
 ErrMax= 5.21D-04  0.00D+00 EMaxC= 1.00D-01 BMatC= 1.34D-05 BMatP= 2.87D-04
 IDIUse=3 WtCom= 9.95D-01 WtEn= 5.21D-03
 Coeff-Com:  0.297D+00-0.957D+00 0.166D+01
 Coeff-En:   0.000D+00 0.000D+00 0.100D+01
 Coeff:      0.296D+00-0.952D+00 0.166D+01
 Gap=     0.369 Goal=   None    Shift=    0.000
 RMSDP=6.60D-04 MaxDP=3.45D-03 DE=-1.34D-03 OVMax= 4.58D-03

 Cycle   4  Pass 1  IDiag  3:
 E= 0.732370393517599     Delta-E=       -0.000098266545 Rises=F Damp=F
 DIIS: error= 1.80D-04 at cycle   4 NSaved=   4.
 NSaved= 4 IEnMin= 4 EnMin= 0.732370393517599     IErMin= 4 ErrMin= 1.80D-04
 ErrMax= 1.80D-04  0.00D+00 EMaxC= 1.00D-01 BMatC= 1.29D-06 BMatP= 1.34D-05
 IDIUse=3 WtCom= 9.98D-01 WtEn= 1.80D-03
 Coeff-Com: -0.591D-01 0.201D+00-0.541D+00 0.140D+01
 Coeff-En:   0.000D+00 0.000D+00 0.000D+00 0.100D+01
 Coeff:     -0.590D-01 0.200D+00-0.540D+00 0.140D+01
 Gap=     0.370 Goal=   None    Shift=    0.000
 RMSDP=2.05D-04 MaxDP=1.50D-03 DE=-9.83D-05 OVMax= 1.55D-03

 Cycle   5  Pass 1  IDiag  3:
 E= 0.732359440647400     Delta-E=       -0.000010952870 Rises=F Damp=F
 DIIS: error= 1.32D-04 at cycle   5 NSaved=   5.
 NSaved= 5 IEnMin= 5 EnMin= 0.732359440647400     IErMin= 5 ErrMin= 1.32D-04
 ErrMax= 1.32D-04  0.00D+00 EMaxC= 1.00D-01 BMatC= 4.46D-07 BMatP= 1.29D-06
 IDIUse=3 WtCom= 9.99D-01 WtEn= 1.32D-03
 Coeff-Com: -0.877D-02 0.213D-01 0.889D-01-0.890D+00 0.179D+01
 Coeff-En:   0.000D+00 0.000D+00 0.000D+00 0.000D+00 0.100D+01
 Coeff:     -0.876D-02 0.213D-01 0.888D-01-0.888D+00 0.179D+01
 Gap=     0.369 Goal=   None    Shift=    0.000
 RMSDP=1.51D-04 MaxDP=1.51D-03 DE=-1.10D-05 OVMax= 1.27D-03

 Cycle   6  Pass 1  IDiag  3:
 E= 0.732354120459462     Delta-E=       -0.000005320188 Rises=F Damp=F
 DIIS: error= 1.00D-04 at cycle   6 NSaved=   6.
 NSaved= 6 IEnMin= 6 EnMin= 0.732354120459462     IErMin= 6 ErrMin= 1.00D-04
 ErrMax= 1.00D-04  0.00D+00 EMaxC= 1.00D-01 BMatC= 2.31D-07 BMatP= 4.46D-07
 IDIUse=3 WtCom= 9.99D-01 WtEn= 1.00D-03
 Coeff-Com:  0.306D-01-0.881D-01-0.407D-01 0.138D+01-0.368D+01 0.339D+01
 Coeff-En:   0.000D+00 0.000D+00 0.000D+00 0.000D+00 0.000D+00 0.100D+01
 Coeff:      0.306D-01-0.880D-01-0.407D-01 0.138D+01-0.367D+01 0.339D+01
 Gap=     0.369 Goal=   None    Shift=    0.000
 RMSDP=2.28D-04 MaxDP=2.36D-03 DE=-5.32D-06 OVMax= 2.21D-03

 Cycle   7  Pass 1  IDiag  3:
 E= 0.732348660819028     Delta-E=       -0.000005459640 Rises=F Damp=F
 DIIS: error= 5.84D-05 at cycle   7 NSaved=   7.
 NSaved= 7 IEnMin= 7 EnMin= 0.732348660819028     IErMin= 7 ErrMin= 5.84D-05
 ErrMax= 5.84D-05  0.00D+00 EMaxC= 1.00D-01 BMatC= 8.46D-08 BMatP= 2.31D-07
 IDIUse=1 WtCom= 1.00D+00 WtEn= 0.00D+00
 Coeff-Com: -0.290D-01 0.844D-01 0.402D-01-0.140D+01 0.393D+01-0.462D+01
 Coeff-Com:  0.299D+01
 Coeff:     -0.290D-01 0.844D-01 0.402D-01-0.140D+01 0.393D+01-0.462D+01
 Coeff:      0.299D+01
 Gap=     0.369 Goal=   None    Shift=    0.000
 RMSDP=2.37D-04 MaxDP=2.32D-03 DE=-5.46D-06 OVMax= 2.44D-03

 Cycle   8  Pass 1  IDiag  3:
 E= 0.732345978998865     Delta-E=       -0.000002681820 Rises=F Damp=F
 DIIS: error= 2.81D-05 at cycle   8 NSaved=   8.
 NSaved= 8 IEnMin= 8 EnMin= 0.732345978998865     IErMin= 8 ErrMin= 2.81D-05
 ErrMax= 2.81D-05  0.00D+00 EMaxC= 1.00D-01 BMatC= 1.44D-08 BMatP= 8.46D-08
 IDIUse=1 WtCom= 1.00D+00 WtEn= 0.00D+00
 Coeff-Com:  0.261D-01-0.774D-01 0.825D-02 0.923D+00-0.276D+01 0.349D+01
 Coeff-Com: -0.271D+01 0.210D+01
 Coeff:      0.261D-01-0.774D-01 0.825D-02 0.923D+00-0.276D+01 0.349D+01
 Coeff:     -0.271D+01 0.210D+01
 Gap=     0.369 Goal=   None    Shift=    0.000
 RMSDP=6.36D-05 MaxDP=6.35D-04 DE=-2.68D-06 OVMax= 6.51D-04

 Cycle   9  Pass 1  IDiag  3:
 E= 0.732345714109002     Delta-E=       -0.000000264890 Rises=F Damp=F
 DIIS: error= 1.16D-05 at cycle   9 NSaved=   9.
 NSaved= 9 IEnMin= 9 EnMin= 0.732345714109002     IErMin= 9 ErrMin= 1.16D-05
 ErrMax= 1.16D-05  0.00D+00 EMaxC= 1.00D-01 BMatC= 3.22D-09 BMatP= 1.44D-08
 IDIUse=1 WtCom= 1.00D+00 WtEn= 0.00D+00
 Coeff-Com: -0.162D-01 0.471D-01 0.182D-01-0.756D+00 0.218D+01-0.274D+01
 Coeff-Com:  0.215D+01-0.210D+01 0.221D+01
 Coeff:     -0.162D-01 0.471D-01 0.182D-01-0.756D+00 0.218D+01-0.274D+01
 Coeff:      0.215D+01-0.210D+01 0.221D+01
 Gap=     0.369 Goal=   None    Shift=    0.000
 RMSDP=2.84D-05 MaxDP=3.08D-04 DE=-2.65D-07 OVMax= 2.64D-04

 Cycle  10  Pass 1  IDiag  3:
 E= 0.732345663123553     Delta-E=       -0.000000050985 Rises=F Damp=F
 DIIS: error= 3.37D-06 at cycle  10 NSaved=  10.
 NSaved=10 IEnMin=10 EnMin= 0.732345663123553     IErMin=10 ErrMin= 3.37D-06
 ErrMax= 3.37D-06  0.00D+00 EMaxC= 1.00D-01 BMatC= 4.40D-10 BMatP= 3.22D-09
 IDIUse=1 WtCom= 1.00D+00 WtEn= 0.00D+00
 Coeff-Com:  0.104D-01-0.303D-01-0.116D-01 0.487D+00-0.140D+01 0.177D+01
 Coeff-Com: -0.139D+01 0.140D+01-0.185D+01 0.202D+01
 Coeff:      0.104D-01-0.303D-01-0.116D-01 0.487D+00-0.140D+01 0.177D+01
 Coeff:     -0.139D+01 0.140D+01-0.185D+01 0.202D+01
 Gap=     0.369 Goal=   None    Shift=    0.000
 RMSDP=7.84D-06 MaxDP=7.93D-05 DE=-5.10D-08 OVMax= 8.63D-05

 Cycle  11  Pass 1  IDiag  3:
 E= 0.732345657256317     Delta-E=       -0.000000005867 Rises=F Damp=F
 DIIS: error= 1.11D-06 at cycle  11 NSaved=  11.
 NSaved=11 IEnMin=11 EnMin= 0.732345657256317     IErMin=11 ErrMin= 1.11D-06
 ErrMax= 1.11D-06  0.00D+00 EMaxC= 1.00D-01 BMatC= 3.16D-11 BMatP= 4.40D-10
 IDIUse=1 WtCom= 1.00D+00 WtEn= 0.00D+00
 Coeff-Com: -0.309D-02 0.885D-02 0.559D-02-0.160D+00 0.453D+00-0.572D+00
 Coeff-Com:  0.447D+00-0.449D+00 0.642D+00-0.952D+00 0.158D+01
 Coeff:     -0.309D-02 0.885D-02 0.559D-02-0.160D+00 0.453D+00-0.572D+00
 Coeff:      0.447D+00-0.449D+00 0.642D+00-0.952D+00 0.158D+01
 Gap=     0.369 Goal=   None    Shift=    0.000
 RMSDP=1.92D-06 MaxDP=1.71D-05 DE=-5.87D-09 OVMax= 1.96D-05

 Cycle  12  Pass 1  IDiag  3:
 E= 0.732345656906190     Delta-E=       -0.000000000350 Rises=F Damp=F
 DIIS: error= 2.68D-07 at cycle  12 NSaved=  12.
 NSaved=12 IEnMin=12 EnMin= 0.732345656906190     IErMin=12 ErrMin= 2.68D-07
 ErrMax= 2.68D-07  0.00D+00 EMaxC= 1.00D-01 BMatC= 2.14D-12 BMatP= 3.16D-11
 IDIUse=1 WtCom= 1.00D+00 WtEn= 0.00D+00
 Coeff-Com:  0.331D-03-0.886D-03-0.172D-02 0.255D-01-0.696D-01 0.881D-01
 Coeff-Com: -0.680D-01 0.710D-01-0.124D+00 0.251D+00-0.695D+00 0.152D+01
 Coeff:      0.331D-03-0.886D-03-0.172D-02 0.255D-01-0.696D-01 0.881D-01
 Coeff:     -0.680D-01 0.710D-01-0.124D+00 0.251D+00-0.695D+00 0.152D+01
 Gap=     0.369 Goal=   None    Shift=    0.000
 RMSDP=4.23D-07 MaxDP=3.92D-06 DE=-3.50D-10 OVMax= 4.82D-06

 Cycle  13  Pass 1  IDiag  3:
 E= 0.732345656884860     Delta-E=       -0.000000000021 Rises=F Damp=F
 DIIS: error= 5.30D-08 at cycle  13 NSaved=  13.
 NSaved=13 IEnMin=13 EnMin= 0.732345656884860     IErMin=13 ErrMin= 5.30D-08
 ErrMax= 5.30D-08  0.00D+00 EMaxC= 1.00D-01 BMatC= 1.31D-13 BMatP= 2.14D-12
 IDIUse=1 WtCom= 1.00D+00 WtEn= 0.00D+00
 Coeff-Com: -0.346D-04 0.620D-04 0.724D-03-0.672D-02 0.174D-01-0.219D-01
 Coeff-Com:  0.163D-01-0.170D-01 0.363D-01-0.915D-01 0.304D+00-0.870D+00
 Coeff-Com:  0.163D+01
 Coeff:     -0.346D-04 0.620D-04 0.724D-03-0.672D-02 0.174D-01-0.219D-01
 Coeff:      0.163D-01-0.170D-01 0.363D-01-0.915D-01 0.304D+00-0.870D+00
 Coeff:      0.163D+01
 Gap=     0.369 Goal=   None    Shift=    0.000
 RMSDP=8.77D-08 MaxDP=6.02D-07 DE=-2.13D-11 OVMax= 7.58D-07

 Cycle  14  Pass 1  IDiag  3:
 E= 0.732345656884021     Delta-E=       -0.000000000001 Rises=F Damp=F
 DIIS: error= 9.76D-09 at cycle  14 NSaved=  14.
 NSaved=14 IEnMin=14 EnMin= 0.732345656884021     IErMin=14 ErrMin= 9.76D-09
 ErrMax= 9.76D-09  0.00D+00 EMaxC= 1.00D-01 BMatC= 4.91D-15 BMatP= 1.31D-13
 IDIUse=1 WtCom= 1.00D+00 WtEn= 0.00D+00
 Coeff-Com: -0.703D-05 0.389D-04-0.319D-03 0.211D-02-0.513D-02 0.642D-02
 Coeff-Com: -0.453D-02 0.469D-02-0.130D-01 0.389D-01-0.142D+00 0.431D+00
 Coeff-Com: -0.923D+00 0.161D+01
 Coeff:     -0.703D-05 0.389D-04-0.319D-03 0.211D-02-0.513D-02 0.642D-02
 Coeff:     -0.453D-02 0.469D-02-0.130D-01 0.389D-01-0.142D+00 0.431D+00
 Coeff:     -0.923D+00 0.161D+01
 Gap=     0.369 Goal=   None    Shift=    0.000
 RMSDP=1.48D-08 MaxDP=8.36D-08 DE=-8.38D-13 OVMax= 1.11D-07

 Cycle  15  Pass 1  IDiag  3:
 E= 0.732345656883936     Delta-E=        0.000000000000 Rises=F Damp=F
 DIIS: error= 1.53D-09 at cycle  15 NSaved=  15.
 NSaved=15 IEnMin=15 EnMin= 0.732345656883936     IErMin=15 ErrMin= 1.53D-09
 ErrMax= 1.53D-09  0.00D+00 EMaxC= 1.00D-01 BMatC= 1.61D-16 BMatP= 4.91D-15
 IDIUse=1 WtCom= 1.00D+00 WtEn= 0.00D+00
 Coeff-Com:  0.299D-05-0.166D-04 0.136D-03-0.897D-03 0.218D-02-0.274D-02
 Coeff-Com:  0.192D-02-0.198D-02 0.562D-02-0.171D-01 0.629D-01-0.191D+00
 Coeff-Com:  0.416D+00-0.814D+00 0.154D+01
 Coeff:      0.299D-05-0.166D-04 0.136D-03-0.897D-03 0.218D-02-0.274D-02
 Coeff:      0.192D-02-0.198D-02 0.562D-02-0.171D-01 0.629D-01-0.191D+00
 Coeff:      0.416D+00-0.814D+00 0.154D+01
 Gap=     0.369 Goal=   None    Shift=    0.000
 RMSDP=2.25D-09 MaxDP=1.14D-08 DE=-8.53D-14 OVMax= 1.10D-08

 Cycle  16  Pass 2  IDiag  1:
 SCF Done:  E(RAM1) =  0.732345656884     A.U. after   16 cycles
            NFock= 15  Conv=0.23D-08     -V/T= 1.0489
 KE=-1.498615920830D+01 PE=-1.714000734498D+02 EE= 8.463327730825D+01
 Leave Link  502 at Sun Nov 29 12:22:25 2015, MaxMem=    33554432 cpu:         0.0
 (Enter /home/Applications/g09/g09/l701.exe)
 Compute integral first derivatives.
 ... and contract with generalized density number  0.
 Leave Link  701 at Sun Nov 29 12:22:25 2015, MaxMem=    33554432 cpu:         0.0
 (Enter /home/Applications/g09/g09/l702.exe)
 L702 exits ... SP integral derivatives will be done elsewhere.
 Leave Link  702 at Sun Nov 29 12:22:25 2015, MaxMem=    33554432 cpu:         0.0
 (Enter /home/Applications/g09/g09/l703.exe)
 Compute integral first derivatives, UseDBF=F ICtDFT=           0.
 Integral derivatives from FoFJK, PRISM(SPDF).
 Calling FoFJK, ICntrl=      2127 FMM=F ISym2X=0 I1Cent= 0 IOpClX= 0 NMat=1 NMatS=1 NMatT=0.
 FoFJK:  IHMeth= 8 ICntrl=    2127 DoSepK=F KAlg= 0 I1Cent=   0 FoldK=F
 IRaf=         0 NMat=   1 IRICut=       1 DoRegI=T DoRafI=F ISym2E= 0.
 FoFCou: FMM=F IPFlag=           0 FMFlag=      100000 FMFlg1=         800
         NFxFlg=           0 DoJE=F BraDBF=F KetDBF=F FulRan=T
         wScrn=  0.000000 ICntrl=    2127 IOpCl=  0 I1Cent=           0 NGrid=           0
         NMat0=    1 NMatS0=      1 NMatT0=    0 NMatD0=    1 NMtDS0=    0 NMtDT0=    0
 Symmetry not used in FoFCou.
 Leave Link  703 at Sun Nov 29 12:22:25 2015, MaxMem=    33554432 cpu:         0.0
 (Enter /home/Applications/g09/g09/l716.exe)
 Dipole        =-3.55310034D-02-1.85121674D-01 1.75417278D-03
 ***** Axes restored to original set *****
 -------------------------------------------------------------------
 Center     Atomic                   Forces (Hartrees/Bohr)
 Number     Number              X              Y              Z
 -------------------------------------------------------------------
      1        6          -0.006660615    0.014842483    0.001352002
      2        6           0.000564153    0.008763159   -0.002523259
      3        8          -0.001540729   -0.010084636    0.000864840
      4        6          -0.010333098    0.021023261   -0.001789898
      5        6           0.017145107   -0.018510103    0.001498932
      6        1          -0.001535696    0.003572863   -0.000022395
      7        1           0.000886729   -0.005234932    0.000327725
      8        1          -0.005999850   -0.009360791    0.001151613
      9        1           0.007473998   -0.005011304   -0.000859560
 -------------------------------------------------------------------
 Cartesian Forces:  Max     0.021023261 RMS     0.008379106
 Leave Link  716 at Sun Nov 29 12:22:25 2015, MaxMem=    33554432 cpu:         0.0
 (Enter /home/Applications/g09/g09/l103.exe)

 GradGradGradGradGradGradGradGradGradGradGradGradGradGradGradGradGradGrad
 Berny optimization.
 Using GEDIIS/GDIIS optimizer.
 FormGI is forming the generalized inverse of G from B-inverse, IUseBI=4.
 Internal  Forces:  Max     0.014073947 RMS     0.004133930
 Search for a local minimum.
 Step number   2 out of a maximum of   48
 All quantities printed in internal units (Hartrees-Bohrs-Radians)
 RMS Force = .41339D-02 SwitMx=.10000D-02 MixMth= 1
 Mixed Optimization -- RFO/linear search
 Update second derivatives using D2CorX and points    1    2
 DE= -1.80D-02 DEPred=-1.71D-02 R= 1.05D+00
 TightC=F SS=  1.41D+00  RLast= 3.29D-01 DXNew= 5.0454D-01 9.8619D-01
 Trust test= 1.05D+00 RLast= 3.29D-01 DXMaxT set to 5.05D-01
 ITU=  1  0
 Use linear search instead of GDIIS.
     Eigenvalues ---    0.01166   0.01682   0.01990   0.02274   0.02610
     Eigenvalues ---    0.03268   0.15781   0.15981   0.15993   0.16023
     Eigenvalues ---    0.21995   0.22610   0.28439   0.32329   0.35198
     Eigenvalues ---    0.38958   0.43088   0.43756   0.46232   0.54656
     Eigenvalues ---    0.62902
 RFO step:  Lambda=-1.27435066D-03 EMin= 1.16559077D-02
 Quartic linear search produced a step of  0.18272.
 Iteration  1 RMS(Cart)=  0.02001757 RMS(Int)=  0.00037962
 Iteration  2 RMS(Cart)=  0.00031339 RMS(Int)=  0.00021205
 Iteration  3 RMS(Cart)=  0.00000007 RMS(Int)=  0.00021205
 ITry= 1 IFail=0 DXMaxC= 5.90D-02 DCOld= 1.00D+10 DXMaxT= 5.05D-01 DXLimC= 3.00D+00 Rises=F
 Variable       Old X    -DE/DX   Delta X   Delta X   Delta X     New X
                                 (Linear)    (Quad)   (Total)
    R1        2.55725   0.00484  -0.01763   0.02380   0.00613   2.56337
    R2        2.74334  -0.00672  -0.02537  -0.00583  -0.03126   2.71208
    R3        2.02517   0.00897   0.01143   0.01647   0.02790   2.05307
    R4        2.62067  -0.00282  -0.00151  -0.00723  -0.00870   2.61197
    R5        2.03043   0.01103   0.02022   0.01310   0.03332   2.06375
    R6        2.56346   0.00773   0.00678   0.01205   0.01890   2.58236
    R7        2.53759   0.01407   0.01699   0.01300   0.03000   2.56759
    R8        2.08790  -0.00509  -0.00239  -0.01656  -0.01895   2.06895
    R9        2.05044   0.00046  -0.00058   0.00199   0.00142   2.05186
    A1        1.84848   0.00310   0.01062   0.00172   0.01188   1.86036
    A2        2.28476  -0.00170  -0.00427  -0.00284  -0.00705   2.27771
    A3        2.14945  -0.00140  -0.00568   0.00063  -0.00498   2.14447
    A4        1.92015   0.00071   0.00032  -0.00369  -0.00395   1.91620
    A5        2.33581   0.00071  -0.00091   0.01071   0.00962   2.34543
    A6        2.02607  -0.00137   0.00234  -0.00743  -0.00527   2.02079
    A7        1.85976   0.00090   0.00076   0.00505   0.00555   1.86531
    A8        1.94152  -0.00436  -0.01277  -0.00413  -0.01722   1.92431
    A9        2.03537   0.00059   0.00437  -0.00752  -0.00317   2.03220
   A10        2.30618   0.00377   0.00855   0.01193   0.02046   2.32664
   A11        1.85477  -0.00034   0.00215   0.00154   0.00328   1.85805
   A12        2.08802   0.00413   0.00001   0.02736   0.02742   2.11544
   A13        2.34038  -0.00379  -0.00212  -0.02876  -0.03081   2.30957
    D1       -0.00365  -0.00006  -0.01807   0.05102   0.03292   0.02927
    D2        3.08252   0.00087   0.00279   0.04065   0.04340   3.12593
    D3        3.10416   0.00013  -0.00643   0.03444   0.02806   3.13222
    D4       -0.09285   0.00106   0.01443   0.02407   0.03854  -0.05431
    D5        0.01024  -0.00032   0.01157  -0.05247  -0.04108  -0.03084
    D6       -3.13649  -0.00003   0.00701  -0.02857  -0.02118   3.12551
    D7       -3.10086  -0.00048   0.00106  -0.03742  -0.03659  -3.13745
    D8        0.03559  -0.00019  -0.00350  -0.01352  -0.01669   0.01890
    D9       -0.00422   0.00037   0.01831  -0.03084  -0.01243  -0.01665
   D10       -3.10131  -0.00043   0.00187  -0.02314  -0.02127  -3.12258
   D11        0.01123  -0.00065  -0.01078  -0.00464  -0.01502  -0.00379
   D12        3.13895  -0.00006  -0.00567   0.01321   0.00754  -3.13669
   D13       -0.01336   0.00062  -0.00064   0.03523   0.03468   0.02131
   D14        3.13445   0.00023   0.00492   0.00603   0.01138  -3.13736
   D15       -3.13823  -0.00004  -0.00654   0.01396   0.00725  -3.13097
   D16        0.00958  -0.00043  -0.00097  -0.01524  -0.01604  -0.00646
         Item               Value     Threshold  Converged?
 Maximum Force            0.014074     0.000450     NO 
 RMS     Force            0.004134     0.000300     NO 
 Maximum Displacement     0.058951     0.001800     NO 
 RMS     Displacement     0.020027     0.001200     NO 
 Predicted change in Energy=-1.096038D-03
 Lowest energy point so far.  Saving SCF results.
 GradGradGradGradGradGradGradGradGradGradGradGradGradGradGradGradGradGrad

 Leave Link  103 at Sun Nov 29 12:22:25 2015, MaxMem=    33554432 cpu:         0.0
 (Enter /home/Applications/g09/g09/l202.exe)
                          Input orientation:                          
 ---------------------------------------------------------------------
 Center     Atomic      Atomic             Coordinates (Angstroms)
 Number     Number       Type             X           Y           Z
 ---------------------------------------------------------------------
      1          6           0        0.945275   -0.717138   -0.003545
      2          6           0       -0.355194   -1.102570    0.012454
      3          8           0       -1.173613    0.011173   -0.002843
      4          6           0       -0.354720    1.105148   -0.007061
      5          6           0        0.947544    0.717968    0.009865
      6          1           0        1.877125    1.279035    0.016042
      7          1           0       -0.847452    2.082818   -0.014184
      8          1           0       -0.866085   -2.067696   -0.001112
      9          1           0        1.856675   -1.308351    0.009093
 ---------------------------------------------------------------------
                    Distance matrix (angstroms):
                    1          2          3          4          5
     1  C    0.000000
     2  C    1.356478   0.000000
     3  O    2.240564   1.382197   0.000000
     4  C    2.238465   2.207804   1.366524   0.000000
     5  C    1.435171   2.238636   2.235851   1.358707   0.000000
     6  H    2.203051   3.264246   3.303761   2.238727   1.085796
     7  H    3.324716   3.223309   2.097194   1.094840   2.255084
     8  H    2.259434   1.092091   2.101493   3.213794   3.324049
     9  H    1.086436   2.221423   3.305138   3.273455   2.220921
                    6          7          8          9
     6  H    0.000000
     7  H    2.840828   0.000000
     8  H    4.327367   4.150577   0.000000
     9  H    2.587477   4.337381   2.826682   0.000000
 Stoichiometry    C4H4O
 Framework group  C1[X(C4H4O)]
 Deg. of freedom    21
 Full point group                 C1      NOp   1
 RotChk:  IX=2 Diff= 8.63D-02
 Largest Abelian subgroup         C1      NOp   1
 Largest concise Abelian subgroup C1      NOp   1
                         Standard orientation:                         
 ---------------------------------------------------------------------
 Center     Atomic      Atomic             Coordinates (Angstroms)
 Number     Number       Type             X           Y           Z
 ---------------------------------------------------------------------
      1          6           0        0.802274    0.884433   -0.010464
      2          6           0        1.069648   -0.445290    0.009039
      3          8           0       -0.113005   -1.160631   -0.000321
      4          6           0       -1.129192   -0.246993   -0.004402
      5          6           0       -0.626806    1.015372    0.006888
      6          1           0       -1.102279    1.991517    0.011346
      7          1           0       -2.147106   -0.650130   -0.007105
      8          1           0        1.985056   -1.040675   -0.005389
      9          1           0        1.472828    1.739207   -0.002651
 ---------------------------------------------------------------------
 Rotational constants (GHZ):      9.4222642      9.1903725      4.6527194
 Leave Link  202 at Sun Nov 29 12:22:25 2015, MaxMem=    33554432 cpu:         0.0
 (Enter /home/Applications/g09/g09/l301.exe)

 Semi-emprical parameters in input format:
 Method=8 CoreType=1 PeptideFC=0.0105570000 RIJScale=0.4899110000
 ****
 H       
 PQN=1 NValence=1 F0ss=0.4577290000 ZetaOverlap=1.0659780000 U=-0.3880320000
 Beta=-0.2381360000 CoreKO=1.1144350000 KON=0,0,0,1.0186160000 KON=1,0,1,1.0557690000
 KON=0,1,1,1.0725930000 KON=2,1,1,1.1590830000 EISol=-0.4188110042 EHeat=0.0830298228
 Alpha=1.5252600000
 GCore=0.0099350000,1.3986240000,2.1461900000
 GCore=0.0003630000,1.5415670000,2.7171030000
 GCore=-0.0012530000,0.5088300000,4.2039300000
 ****
 C       
 PQN=2,2 NValence=4 F0ss=0.4263360000 F0sp=0.4580860000 F0pp=0.3261620000 F2pp=0.2036090000
 G1sp=0.2073130000
 ZetaOverlap=2.1016200000,1.8587190000
 U=-1.9018080000,-1.4557970000
 Beta=-0.4792560000,-0.2700630000 DDN=0,1,0.8034860000 DDN=1,1,0.7591540000
 CoreKO=1.1325510000 KON=0,0,0,1.1996250000 KON=1,0,1,0.8437060000 KON=0,1,1,1.0478550000
 KON=2,1,1,0.8168110000 EISol=-4.4398989268 EHeat=0.2723305520 Alpha=1.4381970000
 DipHyp=1.6068795495
 GCore=0.0008260000,1.4798740000,2.8384620000
 GCore=0.0031480000,1.6675340000,3.8116200000
 GCore=-0.0011560000,1.5029710000,3.9059920000
 GCore=-0.0000920000,1.1754400000,4.8520980000
 ****
 O       
 PQN=2,2 NValence=6 F0ss=0.5413910000 F0sp=0.5145480000 F0pp=0.5091470000 F2pp=0.2175940000
 G1sp=0.4302620000
 ZetaOverlap=3.3296350000,2.5240390000
 U=-3.3343200000,-2.9854240000
 Beta=-0.9082740000,-1.1340310000 DDN=0,1,0.4988900000 DDN=1,1,0.5206270000
 CoreKO=0.9688900000 KON=0,0,0,0.8976510000 KON=1,0,1,0.5186760000 KON=0,1,1,0.8274210000
 KON=2,1,1,0.5315430000 EISol=-11.6164441184 EHeat=0.0949133088 Alpha=2.3722000000
 DipHyp=0.9977225968
 GCore=0.0212480000,1.1747580000,1.6499540000
 GCore=0.0064050000,2.1096700000,2.7148630000
 ****
 
 Standard basis: VSTO-6G (5D, 7F)
 Ernie: Thresh=  0.10000D-02 Tol=  0.10000D-05 Strict=F.
  NNHCO=     0 NNPyr=     0 NCTC=     0               EPep=         0.000000000
    EC=        67.758080064  ECS=         1.620761480   EG=         0.428626380
   EHC=         0.000000000  EAt=       -31.051283842  AtH=         1.516354808
 EPDDG=         0.000000000  ECC=        69.807467924 EAtT=        32.567638650
 There are    24 symmetry adapted cartesian basis functions of A   symmetry.
 There are    24 symmetry adapted basis functions of A   symmetry.
    24 basis functions,   144 primitive gaussians,    24 cartesian basis functions
    13 alpha electrons       13 beta electrons
       nuclear repulsion energy       102.3751065749 Hartrees.
 IExCor=    0 DFT=F Ex=HF Corr=None ExCW=0 ScaHFX=  1.000000
 ScaDFX=  1.000000  1.000000  1.000000  1.000000 ScalE2=  1.000000  1.000000
 IRadAn=      0 IRanWt=     -1 IRanGd=            0 ICorTp=0 IEmpDi=  4
 Integral buffers will be    131072 words long.
 Regular integral format.
 Two-electron integral symmetry is turned off.
 Leave Link  301 at Sun Nov 29 12:22:25 2015, MaxMem=    33554432 cpu:         0.0
 (Enter /home/Applications/g09/g09/l302.exe)
 Do NDO integrals.
 NPDir=0 NMtPBC=     1 NCelOv=     1 NCel=       1 NClECP=     1 NCelD=      1
         NCelK=      1 NCelE2=     1 NClLst=     1 CellRange=     0.0.
 One-electron integrals computed using PRISM.
 NBasis=    24 RedAO= F EigKep=  0.00D+00  NBF=    24
 NBsUse=    24 1.00D-04 EigRej=  0.00D+00 NBFU=    24
 Leave Link  302 at Sun Nov 29 12:22:25 2015, MaxMem=    33554432 cpu:         0.0
 (Enter /home/Applications/g09/g09/l303.exe)
 DipDrv:  MaxL=1.
 Leave Link  303 at Sun Nov 29 12:22:25 2015, MaxMem=    33554432 cpu:         0.0
 (Enter /home/Applications/g09/g09/l401.exe)
 Initial guess from the checkpoint file:  "/home/Applications/g09/scratch/Gau-20942.chk"
 B after Tr=     0.000000    0.000000    0.000000
         Rot=    0.999550    0.000014   -0.000001   -0.029990 Ang=   3.44 deg.
 Guess basis will be translated and rotated to current coordinates.
 JPrj=0 DoOrth=T DoCkMO=T.
 Leave Link  401 at Sun Nov 29 12:22:25 2015, MaxMem=    33554432 cpu:         0.0
 (Enter /home/Applications/g09/g09/l502.exe)
 Closed shell SCF:
 Using DIIS extrapolation, IDIIS=  1040.
 Overlap will be assumed to be unity.
 Two-electron integral symmetry not used.
 Keep J ints in memory in canonical form, NReq=888082.
 IVT=       79475 IEndB=       79475 NGot=    33554432 MDV=    33473473
 LenX=    33473473 LenY=    33472456
 Requested convergence on RMS density matrix=1.00D-08 within 128 cycles.
 Requested convergence on MAX density matrix=1.00D-06.
 Requested convergence on             energy=1.00D-06.
 No special actions if energy rises.
 FoFCou: FMM=F IPFlag=           0 FMFlag=           0 FMFlg1=           0
         NFxFlg=           0 DoJE=F BraDBF=F KetDBF=F FulRan=T
         wScrn=  0.000000 ICntrl=     600 IOpCl=  2 I1Cent=           0 NGrid=           0
         NMat0=    1 NMatS0=     54 NMatT0=    0 NMatD0=    1 NMtDS0=    0 NMtDT0=    0
 Symmetry not used in FoFCou.

 Cycle   1  Pass 1  IDiag  1:
 E= 0.732116246650378    
 DIIS: error= 1.81D-03 at cycle   1 NSaved=   1.
 NSaved= 1 IEnMin= 1 EnMin= 0.732116246650378     IErMin= 1 ErrMin= 1.81D-03
 ErrMax= 1.81D-03  0.00D+00 EMaxC= 1.00D-01 BMatC= 1.87D-04 BMatP= 1.87D-04
 IDIUse=3 WtCom= 9.82D-01 WtEn= 1.81D-02
 Coeff-Com:  0.100D+01
 Coeff-En:   0.100D+01
 Coeff:      0.100D+01
 GapD=    2.000 DampG=2.000 DampE=1.000 DampFc=2.0000 IDamp=-1.
 RMSDP=1.10D-03 MaxDP=4.83D-03              OVMax= 0.00D+00

 Cycle   2  Pass 1  IDiag  3:
 E= 0.731429140052029     Delta-E=       -0.000687106598 Rises=F Damp=F
 DIIS: error= 7.59D-04 at cycle   2 NSaved=   2.
 NSaved= 2 IEnMin= 2 EnMin= 0.731429140052029     IErMin= 2 ErrMin= 7.59D-04
 ErrMax= 7.59D-04  0.00D+00 EMaxC= 1.00D-01 BMatC= 3.05D-05 BMatP= 1.87D-04
 IDIUse=3 WtCom= 9.92D-01 WtEn= 7.59D-03
 Coeff-Com: -0.572D+00 0.157D+01
 Coeff-En:   0.000D+00 0.100D+01
 Coeff:     -0.567D+00 0.157D+01
 Gap=     0.365 Goal=   None    Shift=    0.000
 RMSDP=8.03D-04 MaxDP=4.03D-03 DE=-6.87D-04 OVMax= 4.49D-03

 Cycle   3  Pass 1  IDiag  3:
 E= 0.731256728289964     Delta-E=       -0.000172411762 Rises=F Damp=F
 DIIS: error= 1.87D-04 at cycle   3 NSaved=   3.
 NSaved= 3 IEnMin= 3 EnMin= 0.731256728289964     IErMin= 3 ErrMin= 1.87D-04
 ErrMax= 1.87D-04  0.00D+00 EMaxC= 1.00D-01 BMatC= 1.70D-06 BMatP= 3.05D-05
 IDIUse=3 WtCom= 9.98D-01 WtEn= 1.87D-03
 Coeff-Com:  0.349D+00-0.106D+01 0.171D+01
 Coeff-En:   0.000D+00 0.000D+00 0.100D+01
 Coeff:      0.348D+00-0.106D+01 0.171D+01
 Gap=     0.364 Goal=   None    Shift=    0.000
 RMSDP=2.74D-04 MaxDP=1.37D-03 DE=-1.72D-04 OVMax= 1.72D-03

 Cycle   4  Pass 1  IDiag  3:
 E= 0.731242274811748     Delta-E=       -0.000014453478 Rises=F Damp=F
 DIIS: error= 7.80D-05 at cycle   4 NSaved=   4.
 NSaved= 4 IEnMin= 4 EnMin= 0.731242274811748     IErMin= 4 ErrMin= 7.80D-05
 ErrMax= 7.80D-05  0.00D+00 EMaxC= 1.00D-01 BMatC= 1.94D-07 BMatP= 1.70D-06
 IDIUse=1 WtCom= 1.00D+00 WtEn= 0.00D+00
 Coeff-Com: -0.433D-01 0.145D+00-0.401D+00 0.130D+01
 Coeff:     -0.433D-01 0.145D+00-0.401D+00 0.130D+01
 Gap=     0.365 Goal=   None    Shift=    0.000
 RMSDP=7.93D-05 MaxDP=6.61D-04 DE=-1.45D-05 OVMax= 5.79D-04

 Cycle   5  Pass 1  IDiag  3:
 E= 0.731240443054176     Delta-E=       -0.000001831758 Rises=F Damp=F
 DIIS: error= 6.81D-05 at cycle   5 NSaved=   5.
 NSaved= 5 IEnMin= 5 EnMin= 0.731240443054176     IErMin= 5 ErrMin= 6.81D-05
 ErrMax= 6.81D-05  0.00D+00 EMaxC= 1.00D-01 BMatC= 1.11D-07 BMatP= 1.94D-07
 IDIUse=1 WtCom= 1.00D+00 WtEn= 0.00D+00
 Coeff-Com:  0.154D-01-0.569D-01 0.289D+00-0.173D+01 0.249D+01
 Coeff:      0.154D-01-0.569D-01 0.289D+00-0.173D+01 0.249D+01
 Gap=     0.364 Goal=   None    Shift=    0.000
 RMSDP=1.04D-04 MaxDP=1.02D-03 DE=-1.83D-06 OVMax= 9.61D-04

 Cycle   6  Pass 1  IDiag  3:
 E= 0.731238582143902     Delta-E=       -0.000001860910 Rises=F Damp=F
 DIIS: error= 4.63D-05 at cycle   6 NSaved=   6.
 NSaved= 6 IEnMin= 6 EnMin= 0.731238582143902     IErMin= 6 ErrMin= 4.63D-05
 ErrMax= 4.63D-05  0.00D+00 EMaxC= 1.00D-01 BMatC= 5.83D-08 BMatP= 1.11D-07
 IDIUse=1 WtCom= 1.00D+00 WtEn= 0.00D+00
 Coeff-Com:  0.291D-01-0.740D-01-0.151D+00 0.235D+01-0.494D+01 0.378D+01
 Coeff:      0.291D-01-0.740D-01-0.151D+00 0.235D+01-0.494D+01 0.378D+01
 Gap=     0.364 Goal=   None    Shift=    0.000
 RMSDP=1.78D-04 MaxDP=1.73D-03 DE=-1.86D-06 OVMax= 1.77D-03

 Cycle   7  Pass 1  IDiag  3:
 E= 0.731236751988377     Delta-E=       -0.000001830156 Rises=F Damp=F
 DIIS: error= 2.08D-05 at cycle   7 NSaved=   7.
 NSaved= 7 IEnMin= 7 EnMin= 0.731236751988377     IErMin= 7 ErrMin= 2.08D-05
 ErrMax= 2.08D-05  0.00D+00 EMaxC= 1.00D-01 BMatC= 1.13D-08 BMatP= 5.83D-08
 IDIUse=1 WtCom= 1.00D+00 WtEn= 0.00D+00
 Coeff-Com: -0.301D-01 0.813D-01 0.428D-01-0.149D+01 0.346D+01-0.322D+01
 Coeff-Com:  0.216D+01
 Coeff:     -0.301D-01 0.813D-01 0.428D-01-0.149D+01 0.346D+01-0.322D+01
 Coeff:      0.216D+01
 Gap=     0.364 Goal=   None    Shift=    0.000
 RMSDP=7.86D-05 MaxDP=7.12D-04 DE=-1.83D-06 OVMax= 8.12D-04

 Cycle   8  Pass 1  IDiag  3:
 E= 0.731236446419061     Delta-E=       -0.000000305569 Rises=F Damp=F
 DIIS: error= 8.67D-06 at cycle   8 NSaved=   8.
 NSaved= 8 IEnMin= 8 EnMin= 0.731236446419061     IErMin= 8 ErrMin= 8.67D-06
 ErrMax= 8.67D-06  0.00D+00 EMaxC= 1.00D-01 BMatC= 2.06D-09 BMatP= 1.13D-08
 IDIUse=1 WtCom= 1.00D+00 WtEn= 0.00D+00
 Coeff-Com:  0.121D-01-0.302D-01-0.598D-01 0.952D+00-0.212D+01 0.197D+01
 Coeff-Com: -0.164D+01 0.191D+01
 Coeff:      0.121D-01-0.302D-01-0.598D-01 0.952D+00-0.212D+01 0.197D+01
 Coeff:     -0.164D+01 0.191D+01
 Gap=     0.364 Goal=   None    Shift=    0.000
 RMSDP=2.34D-05 MaxDP=2.42D-04 DE=-3.06D-07 OVMax= 2.27D-04

 Cycle   9  Pass 1  IDiag  3:
 E= 0.731236411358410     Delta-E=       -0.000000035061 Rises=F Damp=F
 DIIS: error= 3.78D-06 at cycle   9 NSaved=   9.
 NSaved= 9 IEnMin= 9 EnMin= 0.731236411358410     IErMin= 9 ErrMin= 3.78D-06
 ErrMax= 3.78D-06  0.00D+00 EMaxC= 1.00D-01 BMatC= 4.42D-10 BMatP= 2.06D-09
 IDIUse=1 WtCom= 1.00D+00 WtEn= 0.00D+00
 Coeff-Com: -0.138D-01 0.367D-01 0.230D-01-0.701D+00 0.161D+01-0.151D+01
 Coeff-Com:  0.130D+01-0.186D+01 0.212D+01
 Coeff:     -0.138D-01 0.367D-01 0.230D-01-0.701D+00 0.161D+01-0.151D+01
 Coeff:      0.130D+01-0.186D+01 0.212D+01
 Gap=     0.364 Goal=   None    Shift=    0.000
 RMSDP=7.74D-06 MaxDP=8.59D-05 DE=-3.51D-08 OVMax= 7.06D-05

[...]
     38  0.000000D+00  0.000000D+00  0.000000D+00  0.000000D+00 -0.168581D-05
               16            17            18            19            20 
     16  0.127629D+00
     17 -0.696850D-01  0.100867D+00
     18  0.370496D-01 -0.575394D-01  0.741275D-01
     19  0.326355D-01 -0.433274D-01 -0.165881D-01  0.599154D-01
     20  0.588615D-02 -0.387251D-01  0.236741D-01  0.150510D-01  0.768340D-01
     21  0.116851D-02  0.194936D-01 -0.119250D-01 -0.756861D-02 -0.375219D-01
     22 -0.705466D-02  0.192315D-01 -0.117491D-01 -0.748240D-02 -0.393121D-01
     23 -0.678210D-05  0.319662D-05 -0.275510D-05  0.000000D+00 -0.574193D-05
     24  0.000000D+00  0.000000D+00  0.000000D+00  0.000000D+00 -0.193073D-05
     25 -0.638622D-05  0.465255D-05 -0.302775D-05 -0.106411D-05 -0.483802D-05
     26  0.114153D-05  0.000000D+00  0.000000D+00  0.000000D+00 -0.102683D-05
     27 -0.267833D-05  0.464257D-05 -0.261598D-05 -0.121220D-05 -0.198708D-05
     28 -0.237791D-05  0.399065D-05 -0.149433D-05 -0.195550D-05  0.000000D+00
     29 -0.266383D-05  0.300032D-05 -0.219887D-05  0.000000D+00 -0.316828D-05
     30 -0.236342D-05  0.234840D-05 -0.107722D-05 -0.126206D-05 -0.153115D-05
     31  0.101679D-05 -0.106586D-05  0.173069D-05 -0.144322D-05  0.000000D+00
     32 -0.225802D-05  0.241079D-05  0.000000D+00 -0.183620D-05 -0.349599D-05
     33  0.000000D+00  0.000000D+00  0.000000D+00  0.170639D-05  0.181728D-05
     34 -0.171930D-05  0.172599D-05  0.355103D-05 -0.560888D-05  0.239996D-05
     35 -0.207196D-05  0.170085D-05 -0.108269D-05 -0.193855D-05  0.204083D-05
     36 -0.202100D-05  0.222902D-05 -0.219278D-05 -0.105908D-05  0.000000D+00
     37 -0.201530D-05  0.199761D-05  0.101275D-05 -0.225987D-05  0.000000D+00
     38 -0.196434D-05  0.252578D-05  0.000000D+00 -0.138040D-05  0.000000D+00
               21            22            23            24            25 
     21  0.538573D-01
     22 -0.163354D-01  0.556476D-01
     23  0.260796D-05  0.274475D-05  0.151773D-01
     24  0.000000D+00  0.108764D-05  0.289715D-02  0.988282D-02
     25  0.261295D-05  0.206209D-05  0.511316D-02 -0.440621D-02  0.889444D-02
     26  0.000000D+00  0.000000D+00 -0.716702D-02  0.257946D-02 -0.624931D-03
     27  0.000000D+00  0.201727D-05 -0.126796D-01 -0.510224D-02 -0.179993D-02
     28  0.152161D-05 -0.126319D-05 -0.549310D-02 -0.287173D-02  0.120926D-02
     29  0.000000D+00  0.279647D-05 -0.343972D-02  0.160295D-02 -0.527152D-02
     30  0.171589D-05  0.000000D+00  0.374678D-02  0.383347D-02 -0.226232D-02
     31  0.000000D+00  0.000000D+00 -0.118695D-01  0.395376D-03 -0.645136D-02
     32  0.134851D-05  0.202340D-05 -0.209613D-02 -0.516425D-02  0.112474D-02
     33  0.000000D+00  0.000000D+00  0.345998D-02 -0.377969D-02  0.525792D-02
     34  0.000000D+00 -0.137380D-05  0.359667D-02  0.102933D-03  0.109927D-02
     35 -0.105126D-05 -0.149071D-05  0.566057D-02  0.548946D-02 -0.215649D-02
     36  0.000000D+00 -0.116844D-05 -0.215621D-02  0.306332D-02 -0.542960D-02
     37  0.000000D+00  0.000000D+00  0.548906D-02  0.617851D-03  0.306146D-02
     38  0.000000D+00  0.000000D+00 -0.232771D-02 -0.180828D-02 -0.211645D-03
               26            27            28            29            30 
     26  0.912155D-02
     27  0.577743D-02  0.154301D-01
     28  0.383064D-02  0.542816D-02  0.711818D-02
     29 -0.228843D-03  0.544147D-02 -0.725252D-03  0.712324D-02
     30 -0.217564D-02 -0.456042D-02  0.964759D-03  0.956515D-03  0.648169D-02
     31  0.581348D-02  0.511644D-02  0.346333D-02  0.142100D-03 -0.151101D-02
     32 -0.194337D-02 -0.914093D-03  0.137708D-02 -0.387117D-02 -0.158000D-02
     33 -0.198175D-02  0.511787D-02  0.136894D-03  0.346719D-02 -0.151379D-02
     34 -0.239446D-02 -0.922398D-03 -0.387434D-02  0.137045D-02 -0.158149D-02
     35 -0.232760D-02 -0.126811D-01 -0.342811D-02 -0.550433D-02  0.374870D-02
     36 -0.210064D-03 -0.180205D-02 -0.526634D-02  0.120323D-02 -0.226105D-02
     37 -0.180975D-02 -0.510229D-02  0.160488D-02 -0.287351D-02  0.383365D-02
     38  0.307781D-03  0.577680D-02 -0.233351D-03  0.383405D-02 -0.217610D-02
               31            32            33            34            35 
     31  0.140450D-01
     32  0.428391D-02  0.672571D-02
     33 -0.106523D-01 -0.489052D-02  0.140477D-01
     34 -0.487901D-02 -0.209849D-02  0.426753D-02  0.672884D-02
     35  0.346368D-02  0.359986D-02 -0.118752D-01 -0.208194D-02  0.151843D-01
     36  0.526177D-02  0.110774D-02 -0.645742D-02  0.112890D-02  0.511975D-02
     37 -0.378018D-02  0.966342D-04  0.396124D-03 -0.517020D-02  0.289642D-02
     38 -0.198209D-02 -0.239548D-02  0.581395D-02 -0.195936D-02 -0.716813D-02
               36            37            38 
     36  0.888786D-02
     37 -0.439898D-02  0.988061D-02
     38 -0.630872D-03  0.258521D-02  0.912247D-02
 Leave Link  716 at Sun Nov 29 12:22:27 2015, MaxMem=    33554432 cpu:         0.0
 (Enter /home/Applications/g09/g09/l103.exe)

 GradGradGradGradGradGradGradGradGradGradGradGradGradGradGradGradGradGrad
 Berny optimization.
 Red2BG is reusing G-inverse.
 Internal  Forces:  Max     0.000112722 RMS     0.000034222
 Search for a local minimum.
 Step number   1 out of a maximum of    2
 All quantities printed in internal units (Hartrees-Bohrs-Radians)
 Second derivative matrix not updated -- analytic derivatives used.
 ITU=  0
     Eigenvalues ---    0.00899   0.01177   0.01843   0.02432   0.04719
     Eigenvalues ---    0.05314   0.06569   0.06793   0.07047   0.07707
     Eigenvalues ---    0.17808   0.24464   0.25294   0.31172   0.31873
     Eigenvalues ---    0.31939   0.32950   0.35149   0.39676   0.47686
     Eigenvalues ---    0.63809
 Angle between quadratic step and forces=  41.28 degrees.
 Linear search not attempted -- first point.
 Iteration  1 RMS(Cart)=  0.00036017 RMS(Int)=  0.00000017
 Iteration  2 RMS(Cart)=  0.00000016 RMS(Int)=  0.00000003
 ITry= 1 IFail=0 DXMaxC= 1.33D-03 DCOld= 1.00D+10 DXMaxT= 3.00D-01 DXLimC= 3.00D+00 Rises=F
 Variable       Old X    -DE/DX   Delta X   Delta X   Delta X     New X
                                 (Linear)    (Quad)   (Total)
    R1        2.56804   0.00002   0.00000   0.00011   0.00011   2.56814
    R2        2.71020  -0.00010   0.00000  -0.00017  -0.00017   2.71003
    R3        2.05263   0.00006   0.00000   0.00016   0.00016   2.05279
    R4        2.59510  -0.00011   0.00000  -0.00060  -0.00060   2.59450
    R5        2.06574   0.00003   0.00000   0.00013   0.00013   2.06587
    R6        2.59411   0.00004   0.00000   0.00039   0.00039   2.59450
    R7        2.56821   0.00000   0.00000  -0.00006  -0.00006   2.56814
    R8        2.06599  -0.00003   0.00000  -0.00012  -0.00012   2.06587
    R9        2.05281  -0.00002   0.00000  -0.00003  -0.00003   2.05279
    A1        1.85894   0.00000   0.00000  -0.00005  -0.00005   1.85890
    A2        2.26925   0.00000   0.00000   0.00000   0.00000   2.26925
    A3        2.15499  -0.00001   0.00000   0.00005   0.00005   2.15504
    A4        1.92014   0.00004   0.00000   0.00019   0.00019   1.92033
    A5        2.34251  -0.00005   0.00000  -0.00065  -0.00065   2.34186
    A6        2.02054   0.00001   0.00000   0.00046   0.00046   2.02100
    A7        1.86642  -0.00004   0.00000  -0.00008  -0.00008   1.86633
    A8        1.92037   0.00001   0.00000  -0.00005  -0.00005   1.92033
    A9        2.02136  -0.00003   0.00000  -0.00035  -0.00035   2.02100
   A10        2.34146   0.00002   0.00000   0.00040   0.00040   2.34186
   A11        1.85890  -0.00001   0.00000  -0.00001  -0.00001   1.85890
   A12        2.15594  -0.00006   0.00000  -0.00090  -0.00090   2.15504
   A13        2.26835   0.00007   0.00000   0.00090   0.00090   2.26925
    D1        0.00017  -0.00001   0.00000  -0.00017  -0.00017   0.00000
    D2       -3.14118  -0.00001   0.00000  -0.00041  -0.00041   3.14159
    D3       -3.14149   0.00000   0.00000  -0.00010  -0.00010  -3.14159
    D4        0.00035   0.00000   0.00000  -0.00035  -0.00035   0.00000
    D5       -0.00017   0.00001   0.00000   0.00017   0.00017   0.00000
    D6        3.14147   0.00000   0.00000   0.00012   0.00012  -3.14159
    D7        3.14148   0.00000   0.00000   0.00012   0.00012   3.14159
    D8       -0.00006   0.00000   0.00000   0.00006   0.00006   0.00000
    D9       -0.00010   0.00000   0.00000   0.00010   0.00010   0.00000
   D10        3.14130   0.00000   0.00000   0.00029   0.00029  -3.14159
   D11       -0.00002   0.00000   0.00000   0.00002   0.00002   0.00000
   D12       -3.14150   0.00000   0.00000  -0.00010  -0.00010  -3.14159
   D13        0.00012  -0.00001   0.00000  -0.00012  -0.00012   0.00000
   D14       -3.14153   0.00000   0.00000  -0.00006  -0.00006   3.14159
   D15        3.14157   0.00000   0.00000   0.00003   0.00003   3.14159
   D16       -0.00008   0.00000   0.00000   0.00008   0.00008   0.00000
         Item               Value     Threshold  Converged?
 Maximum Force            0.000113     0.000450     YES
 RMS     Force            0.000034     0.000300     YES
 Maximum Displacement     0.001330     0.001800     YES
 RMS     Displacement     0.000360     0.001200     YES
 Predicted change in Energy=-1.531152D-07
 Optimization completed.
    -- Stationary point found.
                           ----------------------------
                           !   Optimized Parameters   !
                           ! (Angstroms and Degrees)  !
 --------------------------                            --------------------------
 ! Name  Definition              Value          Derivative Info.                !
 --------------------------------------------------------------------------------
 ! R1    R(1,2)                  1.3589         -DE/DX =    0.0                 !
 ! R2    R(1,5)                  1.4342         -DE/DX =   -0.0001              !
 ! R3    R(1,9)                  1.0862         -DE/DX =    0.0001              !
 ! R4    R(2,3)                  1.3733         -DE/DX =   -0.0001              !
 ! R5    R(2,8)                  1.0931         -DE/DX =    0.0                 !
 ! R6    R(3,4)                  1.3727         -DE/DX =    0.0                 !
 ! R7    R(4,5)                  1.359          -DE/DX =    0.0                 !
 ! R8    R(4,7)                  1.0933         -DE/DX =    0.0                 !
 ! R9    R(5,6)                  1.0863         -DE/DX =    0.0                 !
 ! A1    A(2,1,5)              106.5097         -DE/DX =    0.0                 !
 ! A2    A(2,1,9)              130.0185         -DE/DX =    0.0                 !
 ! A3    A(5,1,9)              123.4718         -DE/DX =    0.0                 !
 ! A4    A(1,2,3)              110.0159         -DE/DX =    0.0                 !
 ! A5    A(1,2,8)              134.2157         -DE/DX =    0.0                 !
 ! A6    A(3,2,8)              115.7684         -DE/DX =    0.0                 !
 ! A7    A(2,3,4)              106.9379         -DE/DX =    0.0                 !
 ! A8    A(3,4,5)              110.0292         -DE/DX =    0.0                 !
 ! A9    A(3,4,7)              115.8153         -DE/DX =    0.0                 !
 ! A10   A(5,4,7)              134.1555         -DE/DX =    0.0                 !
 ! A11   A(1,5,4)              106.5073         -DE/DX =    0.0                 !
 ! A12   A(1,5,6)              123.526          -DE/DX =   -0.0001              !
 ! A13   A(4,5,6)              129.9667         -DE/DX =    0.0001              !
 ! D1    D(5,1,2,3)              0.0095         -DE/DX =    0.0                 !
 ! D2    D(5,1,2,8)            180.0236         -DE/DX =    0.0                 !
 ! D3    D(9,1,2,3)           -179.9941         -DE/DX =    0.0                 !
 ! D4    D(9,1,2,8)              0.02           -DE/DX =    0.0                 !
 ! D5    D(2,1,5,4)             -0.0099         -DE/DX =    0.0                 !
 ! D6    D(2,1,5,6)           -180.0069         -DE/DX =    0.0                 !
 ! D7    D(9,1,5,4)            179.9934         -DE/DX =    0.0                 !
 ! D8    D(9,1,5,6)             -0.0037         -DE/DX =    0.0                 !
 ! D9    D(1,2,3,4)             -0.0055         -DE/DX =    0.0                 !
 ! D10   D(8,2,3,4)           -180.0167         -DE/DX =    0.0                 !
 ! D11   D(2,3,4,5)             -0.0011         -DE/DX =    0.0                 !
 ! D12   D(2,3,4,7)           -179.9945         -DE/DX =    0.0                 !
 ! D13   D(3,4,5,1)              0.0067         -DE/DX =    0.0                 !
 ! D14   D(3,4,5,6)            180.0035         -DE/DX =    0.0                 !
 ! D15   D(7,4,5,1)            179.9985         -DE/DX =    0.0                 !
 ! D16   D(7,4,5,6)             -0.0047         -DE/DX =    0.0                 !
 --------------------------------------------------------------------------------
 GradGradGradGradGradGradGradGradGradGradGradGradGradGradGradGradGradGrad

 Leave Link  103 at Sun Nov 29 12:22:27 2015, MaxMem=    33554432 cpu:         0.0
 (Enter /home/Applications/g09/g09/l9999.exe)
 1\1\GINC-DUSTIN-DESKTOP\Freq\RAM1\ZDO\C4H4O1\DUSTIN\29-Nov-2015\0\\#P 
 Geom=AllCheck Guess=TCheck SCRF=Check GenChk RAM1/ZDO Freq\\AM1-Repara
 m Input\\0,1\C,0.947759715,-0.7212243872,0.0074435917\C,-0.3572496689,
 -1.1002307121,0.0009945799\O,-1.1684837361,0.0077912058,-0.0057792248\
 C,-0.3451871163,1.1062441692,-0.0033538012\C,0.9556658022,0.7129286055
 ,0.0047634093\H,1.8645250459,1.3079177998,0.0087349413\H,-0.8471581749
 ,2.0774566496,-0.0080227867\H,-0.8708111768,-2.0652263076,0.0003284161
 \H,1.85049431,-1.3252700232,0.0136008744\\Version=ES64L-G09RevD.01\Sta
 te=1-A\HF=0.7309422\RMSD=6.960e-10\RMSF=5.212e-05\ZeroPoint=0.0648979\
 Thermal=0.0688482\Dipole=-0.2019921,0.0018617,-0.000963\DipoleDeriv=-0
 .5713895,0.081178,-0.0002329,0.3429994,-0.6067244,0.0020437,-0.000725,
 0.0005822,-0.5529608,0.2693142,0.0013776,0.0005196,-0.3380676,-0.22210
 96,-0.0010016,0.0012906,0.0007978,0.1599302,-0.8849035,0.0060155,-0.00
 33698,0.0042893,0.0830865,-0.000904,-0.0033828,-0.0006918,-0.2806257,0
 .2759793,-0.0091801,0.0007292,0.3333348,-0.2259907,0.0027456,0.0000008
 ,0.000755,0.1611799,-0.5779503,-0.0803957,0.0000289,-0.3432612,-0.6054
 395,-0.0018341,0.0005029,-0.0003945,-0.5546609,0.4672768,0.090778,0.00
 07593,0.2031943,0.303659,0.0011555,0.0005252,0.0005198,0.3035864,0.276
 4243,-0.191143,0.0006447,-0.1938622,0.4857016,-0.0016026,0.0006424,-0.
 0015798,0.2300002,0.2811451,0.1938274,-0.0001313,0.1962034,0.4812301,0
 .0005298,-0.0001437,0.0005203,0.230175,0.4641591,-0.0924833,0.0010527,
 -0.2048653,0.3066332,-0.0011324,0.0012887,-0.000509,0.303377\Polar=57.
 0036581,-0.0346362,48.6531272,0.2694528,-0.0816641,8.7891564\HyperPola
 r=46.4038479,-2.4079363,-235.9377528,3.8987393,0.190705,0.4994762,-1.3
 375094,6.1472442,-0.0352544,0.099978\PG=C01 [X(C4H4O1)]\NImag=0\\0.786
 62306,-0.08883403,0.56895941,0.00373233,-0.00132259,0.14171093,-0.3984
 0348,-0.06699514,-0.00161665,0.63155265,-0.13028928,-0.11965364,-0.000
 64139,0.20244274,0.60678858,-0.00148882,-0.00028370,-0.08035839,0.0023
 0190,0.00012703,0.13718998,-0.09961236,0.01353308,-0.00068093,-0.15039
 368,0.07879187,-0.00064770,0.49301585,0.05582988,0.00336403,0.00033795
 ,0.04110440,-0.13420781,0.00037909,-0.00027990,0.34516496,-0.00076188,
 0.00010089,0.01733717,-0.00057148,0.00058531,-0.06282026,0.00232789,-0
 .00053872,0.07699605,0.00152675,0.07798210,-0.00024506,0.02577926,-0.0
 1818984,0.00011844,-0.15214019,-0.04133078,-0.00041493,0.62705610,0.02
 933665,-0.03062321,0.00026154,0.01657600,-0.11077594,0.00033511,-0.079
 11341,-0.13365696,-0.00030368,-0.20185414,0.61206020,-0.00015005,0.000
 53163,0.01828434,0.00004770,0.00014338,0.01063511,-0.00034103,-0.00009
 616,-0.06279577,0.00314850,-0.00205954,0.13724831,-0.06596985,-0.03297
 964,0.00011832,0.00032321,-0.02963603,-0.00004025,-0.10042982,-0.05476
 288,-0.00055473,-0.39596807,0.13331650,-0.00204177,0.78812202,0.030490
 56,-0.29189884,0.00058101,-0.07827917,-0.02949672,-0.00034627,-0.01239
 983,0.00422367,-0.00004129,0.06995991,-0.12189014,0.00047677,0.0864686
 9,0.56723637,-0.00000752,0.00022432,-0.07577388,0.00005716,-0.00007205
 ,0.01827598,-0.00063678,-0.00027926,0.01736216,-0.00192081,0.00083138,
 -0.08040902,0.00347461,-0.00033358,0.14175135,-0.00048713,-0.00383071,
 -0.00002159,0.00215217,-0.00193384,0.00000563,-0.00045299,0.00594406,-
 0.00004017,-0.02676076,-0.01222768,-0.00015370,-0.21144694,-0.12067579
 ,-0.00076117,0.23587068,-0.01627827,-0.01973852,-0.00004494,0.00150091
 ,-0.00378698,0.00001961,0.00303374,0.00365070,0.00001829,0.00370684,0.
 00519904,0.00002026,-0.12404615,-0.10595832,-0.00056196,0.13221235,0.1
 2022816,0.00000290,0.00002581,0.00463172,-0.00000180,0.00000048,0.0018
 2974,-0.00003358,0.00003468,0.00455565,-0.00018536,-0.00006963,0.00477
 655,-0.00075425,-0.00054354,-0.03501474,0.00096427,0.00055081,0.019468
 13,-0.00227067,-0.00071992,-0.00003029,-0.00051975,-0.00504226,-0.0000
 0818,0.00521985,-0.01341929,0.00004209,-0.08125468,0.10700389,-0.00047
 996,-0.01209077,0.02003306,-0.00013935,-0.00027523,-0.00042564,0.00000
 068,0.09046318,-0.00047031,0.00205655,-0.00000022,-0.00538279,0.002180
 74,-0.00002912,0.00170890,-0.04606881,0.00010469,0.10587085,-0.2185723
 1,0.00094895,0.00506349,-0.00430488,0.00004817,0.00118764,0.00119740,0
 .00000385,-0.10787121,0.26467429,-0.00003065,-0.00000137,0.00335148,-0
 .00000775,-0.00002746,0.00278669,0.00001282,0.00002118,0.00240277,-0.0
 0047726,0.00095371,-0.03235198,-0.00011089,0.00013254,0.00581683,-0.00
 000253,-0.00000526,-0.00023890,0.00061234,-0.00107830,0.01814198,-0.01
 237110,-0.01994558,-0.00005844,-0.08383326,-0.10870730,-0.00004232,0.0
 0533348,0.01281637,-0.00001047,-0.00038971,0.00508414,-0.00002770,-0.0
 0226062,0.00077566,-0.00003234,-0.00002343,-0.00020643,0.00000060,0.00
 074912,-0.00025668,0.00000386,0.09308166,-0.00498010,-0.00401888,-0.00
 000596,-0.10757003,-0.21615517,-0.00018213,-0.00229349,-0.04621020,0.0
 0008984,0.00541743,0.00205550,0.00003221,0.00051662,0.00205022,0.00000
 684,-0.00015201,-0.00020459,-0.00000071,0.00023618,-0.00095575,0.00000
 355,0.10999676,0.26223427,-0.00009320,-0.00009029,0.00580710,-0.000040
 90,-0.00018357,-0.03230609,0.00002149,0.00017243,0.00240225,-0.0000286
 1,0.00002915,0.00278207,-0.00003231,0.00000674,0.00335585,0.00000063,-
 0.00000079,-0.00007574,0.00000269,0.00000095,0.00016749,0.00016793,0.0
 0006591,0.01810537,-0.20903990,0.12178938,-0.00119772,-0.02664607,0.01
 256507,-0.00019865,-0.00055340,-0.00589932,-0.00001641,0.00216088,0.00
 187426,-0.00000195,-0.00028432,0.00362737,-0.00003382,0.00142311,0.000
 50205,0.00000654,-0.00001965,0.00014973,0.00000006,-0.00028437,-0.0011
 7051,0.00000230,0.23324356,0.12518614,-0.10844821,0.00083455,-0.003396
 09,0.00511261,-0.00001963,-0.00298078,0.00373742,-0.00001532,-0.001564
 18,-0.00379074,0.00000248,0.01606890,-0.01996359,0.00013620,-0.0005232
 3,-0.00058795,-0.00000173,0.00020403,-0.00020846,0.00000141,0.00044423
 ,0.00120353,-0.00000053,-0.13343876,0.12294413,-0.00120313,0.00081531,
 -0.03499089,-0.00016810,0.00006825,0.00476751,-0.00002230,-0.00003121,
 0.00455989,0.00000519,0.00002196,0.00183069,-0.00005879,0.00006762,0.0
 0463509,0.00000863,0.00000399,0.00006772,-0.00000001,0.00000103,-0.000
 07631,-0.00000111,-0.00000954,-0.00023829,0.00143963,-0.00093742,0.019
 44471\\0.00001133,-0.00009852,-0.00001523,0.00007881,-0.00016885,0.000
 00118,0.00000016,0.00012205,-0.00000311,-0.00003669,-0.00002514,-0.000
 01235,0.00002254,0.00000499,0.00001928,-0.00002135,0.00006369,0.,0.000
 00368,0.00003701,0.00000275,-0.00000945,0.00003683,0.00000863,-0.00004
 903,0.00002795,-0.00000115\\\@


 THE BEST WAY TO CONVINCE A FOOL THAT HE IS WRONG 
 IS TO LET HIM HAVE HIS OWN WAY.

                                         JOSH BILLINGS
 Job cpu time:       0 days  0 hours  0 minutes  0.3 seconds.
 File lengths (MBytes):  RWF=      5 Int=      0 D2E=      0 Chk=      2 Scr=      1
 Normal termination of Gaussian 09 at Sun Nov 29 12:22:27 2015.
