 Entering Gaussian System, Link 0=g09
 Input=FuranAM1BestFreq.com
 Output=FuranAM1BestFreq.log
 Initial command:
 /home/Applications/g09/g09/l1.exe "/home/Applications/g09/scratch/Gau-12698.inp" -scrdir="/home/Applications/g09/scratch/"
 Entering Link 1 = /home/Applications/g09/g09/l1.exe PID=     12700.
  
 Copyright (c) 1988,1990,1992,1993,1995,1998,2003,2009,2013,
            Gaussian, Inc.  All Rights Reserved.
  
 This is part of the Gaussian(R) 09 program.  It is based on
 the Gaussian(R) 03 system (copyright 2003, Gaussian, Inc.),
 the Gaussian(R) 98 system (copyright 1998, Gaussian, Inc.),
 the Gaussian(R) 94 system (copyright 1995, Gaussian, Inc.),
 the Gaussian 92(TM) system (copyright 1992, Gaussian, Inc.),
 the Gaussian 90(TM) system (copyright 1990, Gaussian, Inc.),
 the Gaussian 88(TM) system (copyright 1988, Gaussian, Inc.),
 the Gaussian 86(TM) system (copyright 1986, Carnegie Mellon
 University), and the Gaussian 82(TM) system (copyright 1983,
 Carnegie Mellon University). Gaussian is a federally registered
 trademark of Gaussian, Inc.
  
 This software contains proprietary and confidential information,
 including trade secrets, belonging to Gaussian, Inc.
  
 This software is provided under written license and may be
 used, copied, transmitted, or stored only in accord with that
 written license.
  
 The following legend is applicable only to US Government
 contracts under FAR:
  
                    RESTRICTED RIGHTS LEGEND
  
 Use, reproduction and disclosure by the US Government is
 subject to restrictions as set forth in subparagraphs (a)
 and (c) of the Commercial Computer Software - Restricted
 Rights clause in FAR 52.227-19.
  
 Gaussian, Inc.
 340 Quinnipiac St., Bldg. 40, Wallingford CT 06492
  
  
 ---------------------------------------------------------------
 Warning -- This program may not be used in any manner that
 competes with the business of Gaussian, Inc. or will provide
 assistance to any competitor of Gaussian, Inc.  The licensee
 of this program is prohibited from giving any competitor of
 Gaussian, Inc. access to this program.  By using this program,
 the user acknowledges that Gaussian, Inc. is engaged in the
 business of creating and licensing software in the field of
 computational chemistry and represents and warrants to the
 licensee that it is not a competitor of Gaussian, Inc. and that
 it will not use this program in any manner prohibited above.
 ---------------------------------------------------------------
  

 Cite this work as:
 Gaussian 09, Revision D.01,
 M. J. Frisch, G. W. Trucks, H. B. Schlegel, G. E. Scuseria, 
 M. A. Robb, J. R. Cheeseman, G. Scalmani, V. Barone, B. Mennucci, 
 G. A. Petersson, H. Nakatsuji, M. Caricato, X. Li, H. P. Hratchian, 
 A. F. Izmaylov, J. Bloino, G. Zheng, J. L. Sonnenberg, M. Hada, 
 M. Ehara, K. Toyota, R. Fukuda, J. Hasegawa, M. Ishida, T. Nakajima, 
 Y. Honda, O. Kitao, H. Nakai, T. Vreven, J. A. Montgomery, Jr., 
 J. E. Peralta, F. Ogliaro, M. Bearpark, J. J. Heyd, E. Brothers, 
 K. N. Kudin, V. N. Staroverov, T. Keith, R. Kobayashi, J. Normand, 
 K. Raghavachari, A. Rendell, J. C. Burant, S. S. Iyengar, J. Tomasi, 
 M. Cossi, N. Rega, J. M. Millam, M. Klene, J. E. Knox, J. B. Cross, 
 V. Bakken, C. Adamo, J. Jaramillo, R. Gomperts, R. E. Stratmann, 
 O. Yazyev, A. J. Austin, R. Cammi, C. Pomelli, J. W. Ochterski, 
 R. L. Martin, K. Morokuma, V. G. Zakrzewski, G. A. Voth, 
 P. Salvador, J. J. Dannenberg, S. Dapprich, A. D. Daniels, 
 O. Farkas, J. B. Foresman, J. V. Ortiz, J. Cioslowski, 
 and D. J. Fox, Gaussian, Inc., Wallingford CT, 2013.
 
 ******************************************
 Gaussian 09:  ES64L-G09RevD.01 24-Apr-2013
                24-Nov-2015 
 ******************************************
 ----------------------------
 #P AM1(Input,print) Opt Freq
 ----------------------------
 1/14=-1,18=20,19=15,26=1,38=1/1,3;
 2/9=110,12=2,17=6,18=5,40=1/2;
 3/5=2,16=1,25=1,41=700000,71=1,135=100,136=1/1,2,3;
 4/35=1/1;
 5/5=2,35=1,38=5/2;
 6/7=2,8=2,9=2,10=2,28=1/1;
 7//1,2,3,16;
 1/14=-1,18=20,19=15,26=1/3(2);
 2/9=110/2;
 99//99;
 2/9=110/2;
 3/5=2,16=1,25=1,41=700000,71=1,135=20,136=1/1,2,3;
 4/5=5,16=3,35=1/1;
 5/5=2,35=1,38=5/2;
 7//1,2,3,16;
 1/14=-1,18=20,19=15,26=1/3(-5);
 2/9=110/2;
 6/7=2,8=2,9=2,10=2,19=2,28=1/1;
 99/9=1/99;
 Leave Link    1 at Tue Nov 24 09:48:03 2015, MaxMem=           0 cpu:         0.0
 (Enter /home/Applications/g09/g09/l101.exe)
 -----------------
 AM1-Reparam Input
 -----------------
 Symbolic Z-matrix:
 Charge =  0 Multiplicity = 1
 6                     0.98543  -0.75916   0.01375 
 6                    -0.31943  -1.10474   0.02954 
 8                    -1.13024  -0.00468  -0.02152 
 6                    -0.33925   1.0959    0.02823 
 6                     0.94617   0.76503  -0.028 
 1                     1.80861   1.38272  -0.03862 
 1                    -0.81067   2.08763  -0.01868 
 1                    -0.88319  -2.0376   -0.04207 
 1                     1.79962  -1.33989  -0.03201 
 
 NAtoms=      9 NQM=        9 NQMF=       0 NMMI=      0 NMMIF=      0
                NMic=       0 NMicF=      0.
                    Isotopes and Nuclear Properties:
 (Nuclear quadrupole moments (NQMom) in fm**2, nuclear magnetic moments (NMagM)
  in nuclear magnetons)

  Atom         1           2           3           4           5           6           7           8           9
 IAtWgt=          12          12          16          12          12           1           1           1           1
 AtmWgt=  12.0000000  12.0000000  15.9949146  12.0000000  12.0000000   1.0078250   1.0078250   1.0078250   1.0078250
 NucSpn=           0           0           0           0           0           1           1           1           1
 AtZEff=   0.0000000   0.0000000   0.0000000   0.0000000   0.0000000   0.0000000   0.0000000   0.0000000   0.0000000
 NQMom=    0.0000000   0.0000000   0.0000000   0.0000000   0.0000000   0.0000000   0.0000000   0.0000000   0.0000000
 NMagM=    0.0000000   0.0000000   0.0000000   0.0000000   0.0000000   2.7928460   2.7928460   2.7928460   2.7928460
 AtZNuc=   6.0000000   6.0000000   8.0000000   6.0000000   6.0000000   1.0000000   1.0000000   1.0000000   1.0000000
 Leave Link  101 at Tue Nov 24 09:48:03 2015, MaxMem=    33554432 cpu:         0.0
 (Enter /home/Applications/g09/g09/l103.exe)

 GradGradGradGradGradGradGradGradGradGradGradGradGradGradGradGradGradGrad
 Berny optimization.
 Initialization pass.
                           ----------------------------
                           !    Initial Parameters    !
                           ! (Angstroms and Degrees)  !
 --------------------------                            --------------------------
 ! Name  Definition              Value          Derivative Info.                !
 --------------------------------------------------------------------------------
 ! R1    R(1,2)                  1.3499         estimate D2E/DX2                !
 ! R2    R(1,5)                  1.5253         estimate D2E/DX2                !
 ! R3    R(1,9)                  1.0011         estimate D2E/DX2                !
 ! R4    R(2,3)                  1.3675         estimate D2E/DX2                !
 ! R5    R(2,8)                  1.0923         estimate D2E/DX2                !
 ! R6    R(3,4)                  1.3563         estimate D2E/DX2                !
 ! R7    R(4,5)                  1.3285         estimate D2E/DX2                !
 ! R8    R(4,7)                  1.0991         estimate D2E/DX2                !
 ! R9    R(5,6)                  1.0609         estimate D2E/DX2                !
 ! A1    A(2,1,5)              103.3704         estimate D2E/DX2                !
 ! A2    A(2,1,9)              129.6551         estimate D2E/DX2                !
 ! A3    A(5,1,9)              126.8234         estimate D2E/DX2                !
 ! A4    A(1,2,3)              111.5151         estimate D2E/DX2                !
 ! A5    A(1,2,8)              135.7845         estimate D2E/DX2                !
 ! A6    A(3,2,8)              112.2426         estimate D2E/DX2                !
 ! A7    A(2,3,4)              107.7946         estimate D2E/DX2                !
 ! A8    A(3,4,5)              111.1397         estimate D2E/DX2                !
 ! A9    A(3,4,7)              118.7189         estimate D2E/DX2                !
 ! A10   A(5,4,7)              129.6378         estimate D2E/DX2                !
 ! A11   A(1,5,4)              105.8208         estimate D2E/DX2                !
 ! A12   A(1,5,6)              124.1376         estimate D2E/DX2                !
 ! A13   A(4,5,6)              129.9406         estimate D2E/DX2                !
 ! D1    D(5,1,2,3)              1.1121         estimate D2E/DX2                !
 ! D2    D(5,1,2,8)            172.4602         estimate D2E/DX2                !
 ! D3    D(9,1,2,3)           -174.5879         estimate D2E/DX2                !
 ! D4    D(9,1,2,8)             -3.2399         estimate D2E/DX2                !
 ! D5    D(2,1,5,4)              2.6509         estimate D2E/DX2                !
 ! D6    D(2,1,5,6)            179.313          estimate D2E/DX2                !
 ! D7    D(9,1,5,4)            178.5155         estimate D2E/DX2                !
 ! D8    D(9,1,5,6)             -4.8223         estimate D2E/DX2                !
 ! D9    D(1,2,3,4)             -4.4625         estimate D2E/DX2                !
 ! D10   D(8,2,3,4)           -177.9547         estimate D2E/DX2                !
 ! D11   D(2,3,4,5)              6.3417         estimate D2E/DX2                !
 ! D12   D(2,3,4,7)            178.9792         estimate D2E/DX2                !
 ! D13   D(3,4,5,1)             -5.5154         estimate D2E/DX2                !
 ! D14   D(3,4,5,6)            178.0883         estimate D2E/DX2                !
 ! D15   D(7,4,5,1)           -177.124          estimate D2E/DX2                !
 ! D16   D(7,4,5,6)              6.4797         estimate D2E/DX2                !
 --------------------------------------------------------------------------------
 Trust Radius=3.00D-01 FncErr=1.00D-07 GrdErr=1.00D-07
 Number of steps in this run=     48 maximum allowed number of steps=    100.
 GradGradGradGradGradGradGradGradGradGradGradGradGradGradGradGradGradGrad

 Leave Link  103 at Tue Nov 24 09:48:03 2015, MaxMem=    33554432 cpu:         0.0
 (Enter /home/Applications/g09/g09/l202.exe)
                          Input orientation:                          
 ---------------------------------------------------------------------
 Center     Atomic      Atomic             Coordinates (Angstroms)
 Number     Number       Type             X           Y           Z
 ---------------------------------------------------------------------
      1          6           0        0.985434   -0.759163    0.013748
      2          6           0       -0.319434   -1.104735    0.029541
      3          8           0       -1.130245   -0.004682   -0.021522
      4          6           0       -0.339252    1.095900    0.028230
      5          6           0        0.946168    0.765027   -0.027998
      6          1           0        1.808607    1.382719   -0.038615
      7          1           0       -0.810666    2.087632   -0.018675
      8          1           0       -0.883188   -2.037597   -0.042069
      9          1           0        1.799623   -1.339886   -0.032009
 ---------------------------------------------------------------------
                    Distance matrix (angstroms):
                    1          2          3          4          5
     1  C    0.000000
     2  C    1.349944   0.000000
     3  O    2.246460   1.367530   0.000000
     4  C    2.279531   2.200725   1.356254   0.000000
     5  C    1.525267   2.258555   2.214494   1.328512   0.000000
     6  H    2.295215   3.274237   3.249927   2.167956   1.060876
     7  H    3.366195   3.230300   2.116581   1.099074   2.199054
     8  H    2.264786   1.092327   2.047975   3.181134   3.346856
     9  H    1.001118   2.132953   3.219784   3.242139   2.271356
                    6          7          8          9
     6  H    0.000000
     7  H    2.712543   0.000000
     8  H    4.352509   4.125933   0.000000
     9  H    2.722628   4.308325   2.772071   0.000000
 Stoichiometry    C4H4O
 Framework group  C1[X(C4H4O)]
 Deg. of freedom    21
 Full point group                 C1      NOp   1
 Largest Abelian subgroup         C1      NOp   1
 Largest concise Abelian subgroup C1      NOp   1
                         Standard orientation:                         
 ---------------------------------------------------------------------
 Center     Atomic      Atomic             Coordinates (Angstroms)
 Number     Number       Type             X           Y           Z
 ---------------------------------------------------------------------
      1          6           0       -0.766634    0.966226   -0.013495
      2          6           0       -1.103700   -0.340914   -0.024545
      3          8           0        0.001891   -1.144371    0.023053
      4          6           0        1.096998   -0.346298   -0.033918
      5          6           0        0.757965    0.937055    0.020910
      6          1           0        1.370023    1.803548    0.026494
      7          1           0        2.092022   -0.811086    0.009255
      8          1           0       -2.032480   -0.910602    0.052934
      9          1           0       -1.352464    1.776695    0.033185
 ---------------------------------------------------------------------
 Rotational constants (GHZ):      9.4561568      9.1253185      4.6474202
 Leave Link  202 at Tue Nov 24 09:48:03 2015, MaxMem=    33554432 cpu:         0.0
 (Enter /home/Applications/g09/g09/l301.exe)

 Semi-emprical parameters in input format:
 Method=8 CoreType=1 PeptideFC=0.0103800000 RIJScale=0.4352510000
 ****
 H       
 PQN=1 NValence=1 F0ss=0.4741210000 ZetaOverlap=1.3742060000 U=-0.4847720000
 Beta=-0.1714900000 CoreKO=1.2538410000 KON=0,0,0,1.1524660000 KON=1,0,1,1.0298940000
 KON=0,1,1,0.9302610000 KON=2,1,1,0.9161900000 EISol=-0.4188110042 EHeat=0.0830298228
 Alpha=1.6160630000
 GCore=0.0074300000,1.3961710000,2.2454870000
 GCore=0.0003520000,1.7477930000,3.6708400000
 GCore=-0.0013450000,0.5763910000,3.6295080000
 ****
 C       
 PQN=2,2 NValence=4 F0ss=0.4427690000 F0sp=0.3855180000 F0pp=0.3358800000 F2pp=0.2137580000
 G1sp=0.3638630000
 ZetaOverlap=1.7101190000,1.4592110000
 U=-1.8721930000,-1.4557970000
 Beta=-0.5924740000,-0.3709860000 DDN=0,1,0.7570670000 DDN=1,1,0.9174930000
 CoreKO=1.2207760000 KON=0,0,0,1.0108990000 KON=1,0,1,0.8366330000 KON=0,1,1,1.2029580000
 KON=2,1,1,0.7242760000 EISol=-4.4398989268 EHeat=0.2723305520 Alpha=1.3637170000
 DipHyp=1.5140468905
 GCore=0.0006580000,1.1907710000,2.6383100000
 GCore=0.0037150000,1.2535470000,4.1778620000
 GCore=-0.0013300000,1.3253910000,3.8886390000
 GCore=-0.0000900000,1.4675750000,4.8215870000
 ****
 O       
 PQN=2,2 NValence=6 F0ss=0.5141360000 F0sp=0.5309610000 F0pp=0.5045770000 F2pp=0.2291520000
 G1sp=0.4186210000
 ZetaOverlap=2.6101490000,2.2129700000
 U=-3.6498170000,-3.1137980000
 Beta=-1.0402480000,-1.1243680000 DDN=0,1,0.4378030000 DDN=1,1,0.5668760000
 CoreKO=0.9638280000 KON=0,0,0,0.9073280000 KON=1,0,1,0.4654660000 KON=0,1,1,0.8985080000
 KON=2,1,1,0.6117570000 EISol=-11.6164441184 EHeat=0.0949133088 Alpha=2.3275200000
 DipHyp=0.8755556256
 GCore=0.0189760000,1.2993160000,1.4882470000
 GCore=0.0042340000,1.8464450000,2.5246910000
 ****
 
 Standard basis: VSTO-6G (5D, 7F)
 Ernie: Thresh=  0.10000D-02 Tol=  0.10000D-05 Strict=F.
  NNHCO=     0 NNPyr=     0 NCTC=     0               EPep=         0.000000000
    EC=        66.397587188  ECS=         1.849134171   EG=         0.340621698
   EHC=         0.000000000  EAt=       -31.051283842  AtH=         1.516354808
 EPDDG=         0.000000000  ECC=        68.587343058 EAtT=        32.567638650
 There are    24 symmetry adapted cartesian basis functions of A   symmetry.
 There are    24 symmetry adapted basis functions of A   symmetry.
    24 basis functions,   144 primitive gaussians,    24 cartesian basis functions
    13 alpha electrons       13 beta electrons
       nuclear repulsion energy       101.1549817081 Hartrees.
 IExCor=    0 DFT=F Ex=HF Corr=None ExCW=0 ScaHFX=  1.000000
 ScaDFX=  1.000000  1.000000  1.000000  1.000000 ScalE2=  1.000000  1.000000
 IRadAn=      0 IRanWt=     -1 IRanGd=            0 ICorTp=0 IEmpDi=  4
 Integral buffers will be    131072 words long.
 Regular integral format.
 Two-electron integral symmetry is turned off.
 Leave Link  301 at Tue Nov 24 09:48:03 2015, MaxMem=    33554432 cpu:         0.0
 (Enter /home/Applications/g09/g09/l302.exe)
 Do NDO integrals.
 NPDir=0 NMtPBC=     1 NCelOv=     1 NCel=       1 NClECP=     1 NCelD=      1
         NCelK=      1 NCelE2=     1 NClLst=     1 CellRange=     0.0.
 One-electron integrals computed using PRISM.
 NBasis=    24 RedAO= F EigKep=  0.00D+00  NBF=    24
 NBsUse=    24 1.00D-04 EigRej=  0.00D+00 NBFU=    24
 Leave Link  302 at Tue Nov 24 09:48:03 2015, MaxMem=    33554432 cpu:         0.0
 (Enter /home/Applications/g09/g09/l303.exe)
 DipDrv:  MaxL=1.
 Leave Link  303 at Tue Nov 24 09:48:03 2015, MaxMem=    33554432 cpu:         0.0
 (Enter /home/Applications/g09/g09/l401.exe)
 Simple Huckel Guess.
 JPrj=0 DoOrth=F DoCkMO=F.
 Leave Link  401 at Tue Nov 24 09:48:03 2015, MaxMem=    33554432 cpu:         0.0
 (Enter /home/Applications/g09/g09/l502.exe)
 Closed shell SCF:
 Using DIIS extrapolation, IDIIS=  1040.
 Overlap will be assumed to be unity.
 Two-electron integral symmetry not used.
 Keep J ints in memory in canonical form, NReq=888082.
 IVT=       79475 IEndB=       79475 NGot=    33554432 MDV=    33473473
 LenX=    33473473 LenY=    33472456
 Requested convergence on RMS density matrix=1.00D-08 within 128 cycles.
 Requested convergence on MAX density matrix=1.00D-06.
 Requested convergence on             energy=1.00D-06.
 No special actions if energy rises.
 FoFCou: FMM=F IPFlag=           0 FMFlag=           0 FMFlg1=           0
         NFxFlg=           0 DoJE=F BraDBF=F KetDBF=F FulRan=T
         wScrn=  0.000000 ICntrl=     600 IOpCl=  2 I1Cent=           0 NGrid=           0
         NMat0=    1 NMatS0=     54 NMatT0=    0 NMatD0=    1 NMtDS0=    0 NMtDT0=    0
 Symmetry not used in FoFCou.

 Cycle   1  Pass 1  IDiag  1:
 E= -3.45790704971144    
 DIIS: error= 4.30D-02 at cycle   1 NSaved=   1.
 NSaved= 1 IEnMin= 1 EnMin= -3.45790704971144     IErMin= 1 ErrMin= 4.30D-02
 ErrMax= 4.30D-02  0.00D+00 EMaxC= 1.00D-01 BMatC= 8.05D-02 BMatP= 8.05D-02
 IDIUse=3 WtCom= 5.70D-01 WtEn= 4.30D-01
 Coeff-Com:  0.100D+01
 Coeff-En:   0.100D+01
 Coeff:      0.100D+01
 GapD=    2.000 DampG=2.000 DampE=0.500 DampFc=1.0000 IDamp=-1.
 RMSDP=1.65D-02 MaxDP=9.83D-02              OVMax= 0.00D+00

 Cycle   2  Pass 1  IDiag  1:
 E= -3.65529749366596     Delta-E=       -0.197390443955 Rises=F Damp=F
 DIIS: error= 1.36D-02 at cycle   2 NSaved=   2.
 NSaved= 2 IEnMin= 2 EnMin= -3.65529749366596     IErMin= 2 ErrMin= 1.36D-02
 ErrMax= 1.36D-02  0.00D+00 EMaxC= 1.00D-01 BMatC= 6.44D-03 BMatP= 8.05D-02
 IDIUse=3 WtCom= 8.64D-01 WtEn= 1.36D-01
 Coeff-Com: -0.347D+00 0.135D+01
 Coeff-En:   0.000D+00 0.100D+01
 Coeff:     -0.300D+00 0.130D+01
 RMSDP=6.94D-03 MaxDP=4.74D-02 DE=-1.97D-01 OVMax= 0.00D+00

 Cycle   3  Pass 1  IDiag  3:
 E= -3.67635485996432     Delta-E=       -0.021057366298 Rises=F Damp=F
 DIIS: error= 2.74D-03 at cycle   3 NSaved=   3.
 NSaved= 3 IEnMin= 3 EnMin= -3.67635485996432     IErMin= 3 ErrMin= 2.74D-03
 ErrMax= 2.74D-03  0.00D+00 EMaxC= 1.00D-01 BMatC= 2.11D-04 BMatP= 6.44D-03
 IDIUse=3 WtCom= 9.73D-01 WtEn= 2.74D-02
 Coeff-Com:  0.158D+00-0.723D+00 0.156D+01
 Coeff-En:   0.000D+00 0.000D+00 0.100D+01
 Coeff:      0.154D+00-0.703D+00 0.155D+01
 Gap=     0.458 Goal=   None    Shift=    0.000
 RMSDP=1.93D-03 MaxDP=1.86D-02 DE=-2.11D-02 OVMax= 1.76D-02

 Cycle   4  Pass 1  IDiag  3:
 E= -3.67738982887560     Delta-E=       -0.001034968911 Rises=F Damp=F
 DIIS: error= 3.49D-04 at cycle   4 NSaved=   4.
 NSaved= 4 IEnMin= 4 EnMin= -3.67738982887560     IErMin= 4 ErrMin= 3.49D-04
 ErrMax= 3.49D-04  0.00D+00 EMaxC= 1.00D-01 BMatC= 3.83D-06 BMatP= 2.11D-04
 IDIUse=3 WtCom= 9.97D-01 WtEn= 3.49D-03
 Coeff-Com: -0.114D-01 0.616D-01-0.251D+00 0.120D+01
 Coeff-En:   0.000D+00 0.000D+00 0.000D+00 0.100D+01
 Coeff:     -0.114D-01 0.613D-01-0.250D+00 0.120D+01
 Gap=     0.459 Goal=   None    Shift=    0.000
 RMSDP=2.59D-04 MaxDP=2.86D-03 DE=-1.03D-03 OVMax= 2.82D-03

 Cycle   5  Pass 1  IDiag  3:
 E= -3.67740901672187     Delta-E=       -0.000019187846 Rises=F Damp=F
 DIIS: error= 5.69D-05 at cycle   5 NSaved=   5.
 NSaved= 5 IEnMin= 5 EnMin= -3.67740901672187     IErMin= 5 ErrMin= 5.69D-05
 ErrMax= 5.69D-05  0.00D+00 EMaxC= 1.00D-01 BMatC= 1.83D-07 BMatP= 3.83D-06
 IDIUse=1 WtCom= 1.00D+00 WtEn= 0.00D+00
 Coeff-Com: -0.184D-02 0.611D-02 0.184D-01-0.344D+00 0.132D+01
 Coeff:     -0.184D-02 0.611D-02 0.184D-01-0.344D+00 0.132D+01
 Gap=     0.459 Goal=   None    Shift=    0.000
 RMSDP=5.58D-05 MaxDP=4.60D-04 DE=-1.92D-05 OVMax= 5.51D-04

 Cycle   6  Pass 1  IDiag  3:
 E= -3.67740992534719     Delta-E=       -0.000000908625 Rises=F Damp=F
 DIIS: error= 1.09D-05 at cycle   6 NSaved=   6.
 NSaved= 6 IEnMin= 6 EnMin= -3.67740992534719     IErMin= 6 ErrMin= 1.09D-05
 ErrMax= 1.09D-05  0.00D+00 EMaxC= 1.00D-01 BMatC= 7.57D-09 BMatP= 1.83D-07
 IDIUse=1 WtCom= 1.00D+00 WtEn= 0.00D+00
 Coeff-Com:  0.933D-03-0.420D-02 0.767D-02 0.187D-01-0.271D+00 0.125D+01
 Coeff:      0.933D-03-0.420D-02 0.767D-02 0.187D-01-0.271D+00 0.125D+01
 Gap=     0.459 Goal=   None    Shift=    0.000
 RMSDP=1.17D-05 MaxDP=6.85D-05 DE=-9.09D-07 OVMax= 1.22D-04

 Cycle   7  Pass 1  IDiag  3:
 E= -3.67740996398078     Delta-E=       -0.000000038634 Rises=F Damp=F
 DIIS: error= 3.12D-06 at cycle   7 NSaved=   7.
 NSaved= 7 IEnMin= 7 EnMin= -3.67740996398078     IErMin= 7 ErrMin= 3.12D-06
 ErrMax= 3.12D-06  0.00D+00 EMaxC= 1.00D-01 BMatC= 3.24D-10 BMatP= 7.57D-09
 IDIUse=1 WtCom= 1.00D+00 WtEn= 0.00D+00
 Coeff-Com: -0.124D-03 0.603D-03-0.156D-02 0.107D-02 0.445D-01-0.387D+00
 Coeff-Com:  0.134D+01
 Coeff:     -0.124D-03 0.603D-03-0.156D-02 0.107D-02 0.445D-01-0.387D+00
 Coeff:      0.134D+01
 Gap=     0.459 Goal=   None    Shift=    0.000
 RMSDP=2.65D-06 MaxDP=1.90D-05 DE=-3.86D-08 OVMax= 3.24D-05

 Cycle   8  Pass 1  IDiag  3:
 E= -3.67740996571320     Delta-E=       -0.000000001732 Rises=F Damp=F
 DIIS: error= 7.11D-07 at cycle   8 NSaved=   8.
 NSaved= 8 IEnMin= 8 EnMin= -3.67740996571320     IErMin= 8 ErrMin= 7.11D-07
 ErrMax= 7.11D-07  0.00D+00 EMaxC= 1.00D-01 BMatC= 9.91D-12 BMatP= 3.24D-10
 IDIUse=1 WtCom= 1.00D+00 WtEn= 0.00D+00
 Coeff-Com:  0.187D-04-0.104D-03 0.366D-03-0.101D-02-0.932D-02 0.117D+00
 Coeff-Com: -0.530D+00 0.142D+01
 Coeff:      0.187D-04-0.104D-03 0.366D-03-0.101D-02-0.932D-02 0.117D+00
 Coeff:     -0.530D+00 0.142D+01
 Gap=     0.459 Goal=   None    Shift=    0.000
 RMSDP=5.18D-07 MaxDP=4.50D-06 DE=-1.73D-09 OVMax= 5.76D-06

 Cycle   9  Pass 1  IDiag  3:
 E= -3.67740996577305     Delta-E=       -0.000000000060 Rises=F Damp=F
 DIIS: error= 1.17D-07 at cycle   9 NSaved=   9.
 NSaved= 9 IEnMin= 9 EnMin= -3.67740996577305     IErMin= 9 ErrMin= 1.17D-07
 ErrMax= 1.17D-07  0.00D+00 EMaxC= 1.00D-01 BMatC= 2.65D-13 BMatP= 9.91D-12
 IDIUse=1 WtCom= 1.00D+00 WtEn= 0.00D+00
 Coeff-Com: -0.271D-05 0.185D-04-0.881D-04 0.331D-03 0.270D-02-0.369D-01
 Coeff-Com:  0.175D+00-0.568D+00 0.143D+01
 Coeff:     -0.271D-05 0.185D-04-0.881D-04 0.331D-03 0.270D-02-0.369D-01
 Coeff:      0.175D+00-0.568D+00 0.143D+01
 Gap=     0.459 Goal=   None    Shift=    0.000
 RMSDP=8.56D-08 MaxDP=7.58D-07 DE=-5.99D-11 OVMax= 1.01D-06

 Cycle  10  Pass 1  IDiag  3:
 E= -3.67740996577464     Delta-E=       -0.000000000002 Rises=F Damp=F
 DIIS: error= 1.13D-08 at cycle  10 NSaved=  10.
 NSaved=10 IEnMin=10 EnMin= -3.67740996577464     IErMin=10 ErrMin= 1.13D-08
 ErrMax= 1.13D-08  0.00D+00 EMaxC= 1.00D-01 BMatC= 4.52D-15 BMatP= 2.65D-13
 IDIUse=1 WtCom= 1.00D+00 WtEn= 0.00D+00
 Coeff-Com:  0.671D-06-0.527D-05 0.284D-04-0.112D-03-0.983D-03 0.133D-01
 Coeff-Com: -0.632D-01 0.209D+00-0.574D+00 0.142D+01
 Coeff:      0.671D-06-0.527D-05 0.284D-04-0.112D-03-0.983D-03 0.133D-01
 Coeff:     -0.632D-01 0.209D+00-0.574D+00 0.142D+01
 Gap=     0.459 Goal=   None    Shift=    0.000
 RMSDP=9.07D-09 MaxDP=5.80D-08 DE=-1.59D-12 OVMax= 8.35D-08

 Cycle  11  Pass 2  IDiag  1:
 SCF Done:  E(RAM1) =  -3.67740996577     A.U. after   11 cycles
            NFock= 10  Conv=0.91D-08     -V/T= 0.8204
 KE=-2.047954106349D+01 PE=-1.659441662451D+02 EE= 8.159131563473D+01
 Leave Link  502 at Tue Nov 24 09:48:03 2015, MaxMem=    33554432 cpu:         0.0
 (Enter /home/Applications/g09/g09/l601.exe)
 Copying SCF densities to generalized density rwf, IOpCl= 0 IROHF=0.

 **********************************************************************

            Population analysis using the SCF density.

 **********************************************************************

 Orbital symmetries:
       Occupied  (A) (A) (A) (A) (A) (A) (A) (A) (A) (A) (A) (A)
                 (A)
       Virtual   (A) (A) (A) (A) (A) (A) (A) (A) (A) (A) (A)
 The electronic state is 1-A.
 Alpha  occ. eigenvalues --   -1.84713  -1.36839  -1.26032  -1.02945  -0.93067
 Alpha  occ. eigenvalues --   -0.86468  -0.84325  -0.64991  -0.60952  -0.59860
 Alpha  occ. eigenvalues --   -0.59385  -0.54180  -0.48296
 Alpha virt. eigenvalues --   -0.02438   0.00231   0.03097   0.05099   0.08335
 Alpha virt. eigenvalues --    0.09817   0.12154   0.12735   0.13212   0.14149
 Alpha virt. eigenvalues --    0.17384
          Condensed to atoms (all electrons):
               1          2          3          4          5          6
     1  C    4.376923   0.000000   0.000000   0.000000   0.000000   0.000000
     2  C    0.000000   4.089431   0.000000   0.000000   0.000000   0.000000
     3  O    0.000000   0.000000   6.135860   0.000000   0.000000   0.000000
     4  C    0.000000   0.000000   0.000000   4.082950   0.000000   0.000000
     5  C    0.000000   0.000000   0.000000   0.000000   4.401247   0.000000
     6  H    0.000000   0.000000   0.000000   0.000000   0.000000   0.722577
     7  H    0.000000   0.000000   0.000000   0.000000   0.000000   0.000000
     8  H    0.000000   0.000000   0.000000   0.000000   0.000000   0.000000
     9  H    0.000000   0.000000   0.000000   0.000000   0.000000   0.000000
               7          8          9
     1  C    0.000000   0.000000   0.000000
     2  C    0.000000   0.000000   0.000000
     3  O    0.000000   0.000000   0.000000
     4  C    0.000000   0.000000   0.000000
     5  C    0.000000   0.000000   0.000000
     6  H    0.000000   0.000000   0.000000
     7  H    0.729591   0.000000   0.000000
     8  H    0.000000   0.729574   0.000000
     9  H    0.000000   0.000000   0.731846
 Mulliken charges:
               1
     1  C   -0.376923
     2  C   -0.089431
     3  O   -0.135860
     4  C   -0.082950
     5  C   -0.401247
     6  H    0.277423
     7  H    0.270409
     8  H    0.270426
     9  H    0.268154
 Sum of Mulliken charges =   0.00000
 Mulliken charges with hydrogens summed into heavy atoms:
               1
     1  C   -0.108769
     2  C    0.180995
     3  O   -0.135860
     4  C    0.187458
     5  C   -0.123824
 Charge=              0.0000 electrons
 Dipole moment (field-independent basis, Debye):
    X=              0.1241    Y=              0.0426    Z=              0.1523  Tot=              0.2010
 N-N= 1.011549817081D+02 E-N=-1.659441662256D+02  KE=-2.047954106349D+01
 Leave Link  601 at Tue Nov 24 09:48:03 2015, MaxMem=    33554432 cpu:         0.0
 (Enter /home/Applications/g09/g09/l701.exe)
 Compute integral first derivatives.
 ... and contract with generalized density number  0.
 Leave Link  701 at Tue Nov 24 09:48:03 2015, MaxMem=    33554432 cpu:         0.0
 (Enter /home/Applications/g09/g09/l702.exe)
 L702 exits ... SP integral derivatives will be done elsewhere.
 Leave Link  702 at Tue Nov 24 09:48:03 2015, MaxMem=    33554432 cpu:         0.0
 (Enter /home/Applications/g09/g09/l703.exe)
 Compute integral first derivatives, UseDBF=F ICtDFT=           0.
 Integral derivatives from FoFJK, PRISM(SPDF).
 Calling FoFJK, ICntrl=      2127 FMM=F ISym2X=0 I1Cent= 0 IOpClX= 0 NMat=1 NMatS=1 NMatT=0.
 FoFJK:  IHMeth= 8 ICntrl=    2127 DoSepK=F KAlg= 0 I1Cent=   0 FoldK=F
 IRaf=         0 NMat=   1 IRICut=       1 DoRegI=T DoRafI=F ISym2E= 0.
 FoFCou: FMM=F IPFlag=           0 FMFlag=      100000 FMFlg1=         800
         NFxFlg=           0 DoJE=F BraDBF=F KetDBF=F FulRan=T
         wScrn=  0.000000 ICntrl=    2127 IOpCl=  0 I1Cent=           0 NGrid=           0
         NMat0=    1 NMatS0=      1 NMatT0=    0 NMatD0=    1 NMtDS0=    0 NMtDT0=    0
 Symmetry not used in FoFCou.
 Leave Link  703 at Tue Nov 24 09:48:03 2015, MaxMem=    33554432 cpu:         0.0
 (Enter /home/Applications/g09/g09/l716.exe)
 Dipole        = 4.88080051D-02 1.67460675D-02 5.99199072D-02
 ***** Axes restored to original set *****
 -------------------------------------------------------------------
 Center     Atomic                   Forces (Hartrees/Bohr)
 Number     Number              X              Y              Z
 -------------------------------------------------------------------
      1        6          -0.030639227    0.108518414   -0.005419403
      2        6          -0.018871509    0.000305363   -0.013537529
      3        8          -0.030474493   -0.006087880    0.013588153
      4        6          -0.031352293    0.025913765   -0.017238573
      5        6           0.048000756   -0.094184479    0.013418352
      6        1           0.011590517    0.005892650   -0.000517292
      7        1          -0.003117517   -0.014366781    0.003717859
      8        1           0.005011173    0.004555290    0.005123474
      9        1           0.049852592   -0.030546344    0.000864959
 -------------------------------------------------------------------
 Cartesian Forces:  Max     0.108518414 RMS     0.034227594
 Leave Link  716 at Tue Nov 24 09:48:03 2015, MaxMem=    33554432 cpu:         0.0
 (Enter /home/Applications/g09/g09/l103.exe)

 GradGradGradGradGradGradGradGradGradGradGradGradGradGradGradGradGradGrad
 Berny optimization.
 FormGI is forming the generalized inverse of G from B-inverse, IUseBI=4.
 Internal  Forces:  Max     0.074574800 RMS     0.019442286
 Search for a local minimum.
 Step number   1 out of a maximum of   48
 All quantities printed in internal units (Hartrees-Bohrs-Radians)
 RMS Force = .19442D-01 SwitMx=.10000D-02 MixMth= 1
 Mixed Optimization -- RFO/linear search
 Second derivative matrix not updated -- first step.
 ITU=  0
     Eigenvalues ---    0.01315   0.01859   0.01972   0.02501   0.02669
     Eigenvalues ---    0.02874   0.15847   0.15873   0.15924   0.15962
     Eigenvalues ---    0.21980   0.22856   0.29216   0.33785   0.34545
     Eigenvalues ---    0.38408   0.47257   0.47492   0.49278   0.53950
     Eigenvalues ---    0.58122
 RFO step:  Lambda=-3.78758964D-02 EMin= 1.31546723D-02
 Linear search not attempted -- first point.
 Maximum step size (   0.300) exceeded in Quadratic search.
    -- Step size scaled by   0.992
 Iteration  1 RMS(Cart)=  0.05597764 RMS(Int)=  0.00424317
 Iteration  2 RMS(Cart)=  0.00461974 RMS(Int)=  0.00129796
 Iteration  3 RMS(Cart)=  0.00000439 RMS(Int)=  0.00129795
 Iteration  4 RMS(Cart)=  0.00000000 RMS(Int)=  0.00129795
 ITry= 1 IFail=0 DXMaxC= 1.31D-01 DCOld= 1.00D+10 DXMaxT= 3.00D-01 DXLimC= 3.00D+00 Rises=F
 Variable       Old X    -DE/DX   Delta X   Delta X   Delta X     New X
                                 (Linear)    (Quad)   (Total)
    R1        2.55103   0.02685   0.00000   0.04182   0.04229   2.59331
    R2        2.88234  -0.07457   0.00000  -0.22109  -0.22144   2.66090
    R3        1.89184   0.05822   0.00000   0.11264   0.11264   2.00448
    R4        2.58426   0.00054   0.00000  -0.00047   0.00017   2.58443
    R5        2.06420  -0.00681   0.00000  -0.01763  -0.01763   2.04657
    R6        2.56295   0.00793   0.00000   0.01632   0.01624   2.57918
    R7        2.51052   0.05353   0.00000   0.08630   0.08565   2.59617
    R8        2.07695  -0.01179   0.00000  -0.03112  -0.03112   2.04583
    R9        2.00476   0.01286   0.00000   0.03023   0.03023   2.03500
    A1        1.80415   0.00955   0.00000   0.02676   0.02570   1.82985
    A2        2.26291  -0.00085   0.00000   0.00807   0.00762   2.27053
    A3        2.21349  -0.00840   0.00000  -0.03027  -0.03074   2.18274
    A4        1.94631   0.01135   0.00000   0.03429   0.03367   1.97997
    A5        2.36989  -0.00685   0.00000  -0.01985  -0.02122   2.34867
    A6        1.95900  -0.00382   0.00000  -0.00424  -0.00549   1.95352
    A7        1.88137  -0.02468   0.00000  -0.08354  -0.08350   1.79787
    A8        1.93975   0.00451   0.00000   0.03033   0.02704   1.96680
    A9        2.07204  -0.01143   0.00000  -0.05616  -0.05776   2.01428
   A10        2.26261   0.00792   0.00000   0.04084   0.03928   2.30189
   A11        1.84692   0.00006   0.00000   0.00498   0.00332   1.85024
   A12        2.16661  -0.00193   0.00000  -0.01114  -0.01061   2.15600
   A13        2.26789   0.00197   0.00000   0.00829   0.00879   2.27668
    D1        0.01941  -0.00072   0.00000  -0.01029  -0.01129   0.00812
    D2        3.01000   0.00580   0.00000   0.08651   0.08558   3.09558
    D3       -3.04713  -0.00458   0.00000  -0.07387  -0.07464  -3.12177
    D4       -0.05655   0.00194   0.00000   0.02293   0.02224  -0.03431
    D5        0.04627  -0.00347   0.00000  -0.05561  -0.05465  -0.00838
    D6        3.12960  -0.00168   0.00000  -0.02005  -0.01855   3.11106
    D7        3.11568   0.00064   0.00000   0.00765   0.00659   3.12228
    D8       -0.08417   0.00244   0.00000   0.04321   0.04269  -0.04147
    D9       -0.07789   0.00476   0.00000   0.07420   0.07360  -0.00429
   D10       -3.10590   0.00050   0.00000   0.00376   0.00158  -3.10432
   D11        0.11068  -0.00817   0.00000  -0.11536  -0.11219  -0.00151
   D12        3.12378  -0.00017   0.00000  -0.00249  -0.00359   3.12019
   D13       -0.09626   0.00544   0.00000   0.09954   0.10264   0.00638
   D14        3.10823   0.00369   0.00000   0.06206   0.06401  -3.11095
   D15       -3.09140  -0.00180   0.00000  -0.01978  -0.01967  -3.11107
   D16        0.11309  -0.00355   0.00000  -0.05726  -0.05830   0.05479
         Item               Value     Threshold  Converged?
 Maximum Force            0.074575     0.000450     NO 
 RMS     Force            0.019442     0.000300     NO 
 Maximum Displacement     0.131417     0.001800     NO 
 RMS     Displacement     0.058415     0.001200     NO 
 Predicted change in Energy=-2.168211D-02
 Lowest energy point so far.  Saving SCF results.
 GradGradGradGradGradGradGradGradGradGradGradGradGradGradGradGradGradGrad

 Leave Link  103 at Tue Nov 24 09:48:03 2015, MaxMem=    33554432 cpu:         0.0
 (Enter /home/Applications/g09/g09/l202.exe)
                          Input orientation:                          
 ---------------------------------------------------------------------
 Center     Atomic      Atomic             Coordinates (Angstroms)
 Number     Number       Type             X           Y           Z
 ---------------------------------------------------------------------
      1          6           0        0.980926   -0.697925   -0.015369
      2          6           0       -0.342120   -1.061625    0.007749
      3          8           0       -1.199371    0.003971    0.010817
      4          6           0       -0.355944    1.076890   -0.005917
      5          6           0        0.967975    0.710101   -0.017013
      6          1           0        1.860067    1.313176   -0.005664
      7          1           0       -0.837676    2.046171   -0.027520
      8          1           0       -0.871199   -2.006254   -0.017438
      9          1           0        1.854389   -1.299290   -0.039012
 ---------------------------------------------------------------------
                    Distance matrix (angstroms):
                    1          2          3          4          5
     1  C    0.000000
     2  C    1.372321   0.000000
     3  O    2.290641   1.367619   0.000000
     4  C    2.221999   2.138604   1.364846   0.000000
     5  C    1.408086   2.203628   2.279645   1.373834   0.000000
     6  H    2.194883   3.238749   3.327830   2.228573   1.076874
     7  H    3.292040   3.147256   2.074337   1.082607   2.246235
     8  H    2.267619   1.082997   2.037032   3.125924   3.280418
     9  H    1.060725   2.209825   3.320606   3.245444   2.196330
                    6          7          8          9
     6  H    0.000000
     7  H    2.795636   0.000000
     8  H    4.298671   4.052577   0.000000
     9  H    2.612685   4.294119   2.815865   0.000000
 Stoichiometry    C4H4O
 Framework group  C1[X(C4H4O)]
 Deg. of freedom    21
 Full point group                 C1      NOp   1
 RotChk:  IX=0 Diff= 1.94D+00
 Largest Abelian subgroup         C1      NOp   1
 Largest concise Abelian subgroup C1      NOp   1
                         Standard orientation:                         
 ---------------------------------------------------------------------
 Center     Atomic      Atomic             Coordinates (Angstroms)
 Number     Number       Type             X           Y           Z
 ---------------------------------------------------------------------
      1          6           0       -1.018149   -0.653561    0.001570
      2          6           0        0.284691   -1.084607   -0.006889
      3          8           0        1.195403   -0.064326   -0.003492
      4          6           0        0.407935    1.050424    0.001936
      5          6           0       -0.933084    0.751953    0.000068
      6          1           0       -1.792938    1.399889   -0.021998
      7          1           0        0.938453    1.993819    0.026307
      8          1           0        0.764382   -2.055017    0.026022
      9          1           0       -1.921477   -1.209333    0.017497
 ---------------------------------------------------------------------
 Rotational constants (GHZ):      9.9003641      8.8512019      4.6734657
 Leave Link  202 at Tue Nov 24 09:48:03 2015, MaxMem=    33554432 cpu:         0.0
 (Enter /home/Applications/g09/g09/l301.exe)

 Semi-emprical parameters in input format:
 Method=8 CoreType=1 PeptideFC=0.0103800000 RIJScale=0.4352510000
 ****
 H       
 PQN=1 NValence=1 F0ss=0.4741210000 ZetaOverlap=1.3742060000 U=-0.4847720000
 Beta=-0.1714900000 CoreKO=1.2538410000 KON=0,0,0,1.1524660000 KON=1,0,1,1.0298940000
 KON=0,1,1,0.9302610000 KON=2,1,1,0.9161900000 EISol=-0.4188110042 EHeat=0.0830298228
 Alpha=1.6160630000
 GCore=0.0074300000,1.3961710000,2.2454870000
 GCore=0.0003520000,1.7477930000,3.6708400000
 GCore=-0.0013450000,0.5763910000,3.6295080000
 ****
 C       
 PQN=2,2 NValence=4 F0ss=0.4427690000 F0sp=0.3855180000 F0pp=0.3358800000 F2pp=0.2137580000
 G1sp=0.3638630000
 ZetaOverlap=1.7101190000,1.4592110000
 U=-1.8721930000,-1.4557970000
 Beta=-0.5924740000,-0.3709860000 DDN=0,1,0.7570670000 DDN=1,1,0.9174930000
 CoreKO=1.2207760000 KON=0,0,0,1.0108990000 KON=1,0,1,0.8366330000 KON=0,1,1,1.2029580000
 KON=2,1,1,0.7242760000 EISol=-4.4398989268 EHeat=0.2723305520 Alpha=1.3637170000
 DipHyp=1.5140468905
 GCore=0.0006580000,1.1907710000,2.6383100000
 GCore=0.0037150000,1.2535470000,4.1778620000
 GCore=-0.0013300000,1.3253910000,3.8886390000
 GCore=-0.0000900000,1.4675750000,4.8215870000
 ****
 O       
 PQN=2,2 NValence=6 F0ss=0.5141360000 F0sp=0.5309610000 F0pp=0.5045770000 F2pp=0.2291520000
 G1sp=0.4186210000
 ZetaOverlap=2.6101490000,2.2129700000
 U=-3.6498170000,-3.1137980000
 Beta=-1.0402480000,-1.1243680000 DDN=0,1,0.4378030000 DDN=1,1,0.5668760000
 CoreKO=0.9638280000 KON=0,0,0,0.9073280000 KON=1,0,1,0.4654660000 KON=0,1,1,0.8985080000
 KON=2,1,1,0.6117570000 EISol=-11.6164441184 EHeat=0.0949133088 Alpha=2.3275200000
 DipHyp=0.8755556256
 GCore=0.0189760000,1.2993160000,1.4882470000
 GCore=0.0042340000,1.8464450000,2.5246910000
 ****
 
 Standard basis: VSTO-6G (5D, 7F)
 Ernie: Thresh=  0.10000D-02 Tol=  0.10000D-05 Strict=F.
  NNHCO=     0 NNPyr=     0 NCTC=     0               EPep=         0.000000000
    EC=        66.455914254  ECS=         1.839314359   EG=         0.338574295
   EHC=         0.000000000  EAt=       -31.051283842  AtH=         1.516354808
 EPDDG=         0.000000000  ECC=        68.633802908 EAtT=        32.567638650
 There are    24 symmetry adapted cartesian basis functions of A   symmetry.
 There are    24 symmetry adapted basis functions of A   symmetry.
    24 basis functions,   144 primitive gaussians,    24 cartesian basis functions
    13 alpha electrons       13 beta electrons
       nuclear repulsion energy       101.2014415579 Hartrees.
 IExCor=    0 DFT=F Ex=HF Corr=None ExCW=0 ScaHFX=  1.000000
 ScaDFX=  1.000000  1.000000  1.000000  1.000000 ScalE2=  1.000000  1.000000
 IRadAn=      0 IRanWt=     -1 IRanGd=            0 ICorTp=0 IEmpDi=  4
 Integral buffers will be    131072 words long.
 Regular integral format.
 Two-electron integral symmetry is turned off.
 Leave Link  301 at Tue Nov 24 09:48:03 2015, MaxMem=    33554432 cpu:         0.0
 (Enter /home/Applications/g09/g09/l302.exe)
 Do NDO integrals.
 NPDir=0 NMtPBC=     1 NCelOv=     1 NCel=       1 NClECP=     1 NCelD=      1
         NCelK=      1 NCelE2=     1 NClLst=     1 CellRange=     0.0.
 One-electron integrals computed using PRISM.
 NBasis=    24 RedAO= F EigKep=  0.00D+00  NBF=    24
 NBsUse=    24 1.00D-04 EigRej=  0.00D+00 NBFU=    24
 Leave Link  302 at Tue Nov 24 09:48:03 2015, MaxMem=    33554432 cpu:         0.0
 (Enter /home/Applications/g09/g09/l303.exe)
 DipDrv:  MaxL=1.
 Leave Link  303 at Tue Nov 24 09:48:03 2015, MaxMem=    33554432 cpu:         0.0
 (Enter /home/Applications/g09/g09/l401.exe)
 Initial guess from the checkpoint file:  "/home/Applications/g09/scratch/Gau-12700.chk"
 B after Tr=     0.000000    0.000000    0.000000
         Rot=    0.726161   -0.000094    0.000161   -0.687524 Ang= -86.87 deg.
 Guess basis will be translated and rotated to current coordinates.
 JPrj=0 DoOrth=T DoCkMO=T.
 Leave Link  401 at Tue Nov 24 09:48:03 2015, MaxMem=    33554432 cpu:         0.0
 (Enter /home/Applications/g09/g09/l502.exe)
 Closed shell SCF:
 Using DIIS extrapolation, IDIIS=  1040.
 Overlap will be assumed to be unity.
 Two-electron integral symmetry not used.
 Keep J ints in memory in canonical form, NReq=888082.
 IVT=       79475 IEndB=       79475 NGot=    33554432 MDV=    33473473
 LenX=    33473473 LenY=    33472456
 Requested convergence on RMS density matrix=1.00D-08 within 128 cycles.
 Requested convergence on MAX density matrix=1.00D-06.
 Requested convergence on             energy=1.00D-06.
 No special actions if energy rises.
 FoFCou: FMM=F IPFlag=           0 FMFlag=           0 FMFlg1=           0
         NFxFlg=           0 DoJE=F BraDBF=F KetDBF=F FulRan=T
         wScrn=  0.000000 ICntrl=     600 IOpCl=  2 I1Cent=           0 NGrid=           0
         NMat0=    1 NMatS0=     54 NMatT0=    0 NMatD0=    1 NMtDS0=    0 NMtDT0=    0
 Symmetry not used in FoFCou.

 Cycle   1  Pass 1  IDiag  1:
 E= -3.68023990943158    
 DIIS: error= 9.60D-03 at cycle   1 NSaved=   1.
 NSaved= 1 IEnMin= 1 EnMin= -3.68023990943158     IErMin= 1 ErrMin= 9.60D-03
 ErrMax= 9.60D-03  0.00D+00 EMaxC= 1.00D-01 BMatC= 5.03D-03 BMatP= 5.03D-03
 IDIUse=3 WtCom= 9.04D-01 WtEn= 9.60D-02
 Coeff-Com:  0.100D+01
 Coeff-En:   0.100D+01
 Coeff:      0.100D+01
 GapD=    2.000 DampG=2.000 DampE=1.000 DampFc=2.0000 IDamp=-1.
 RMSDP=4.45D-03 MaxDP=1.88D-02              OVMax= 0.00D+00

 Cycle   2  Pass 1  IDiag  3:
 E= -3.69325761277955     Delta-E=       -0.013017703348 Rises=F Damp=F
 DIIS: error= 2.49D-03 at cycle   2 NSaved=   2.
 NSaved= 2 IEnMin= 2 EnMin= -3.69325761277955     IErMin= 2 ErrMin= 2.49D-03
 ErrMax= 2.49D-03  0.00D+00 EMaxC= 1.00D-01 BMatC= 4.25D-04 BMatP= 5.03D-03
 IDIUse=3 WtCom= 9.75D-01 WtEn= 2.49D-02
 Coeff-Com: -0.354D+00 0.135D+01
 Coeff-En:   0.000D+00 0.100D+01
 Coeff:     -0.345D+00 0.135D+01
 Gap=     0.429 Goal=   None    Shift=    0.000
 RMSDP=2.13D-03 MaxDP=1.13D-02 DE=-1.30D-02 OVMax= 1.43D-02

 Cycle   3  Pass 1  IDiag  3:
 E= -3.69486731716877     Delta-E=       -0.001609704389 Rises=F Damp=F
 DIIS: error= 6.35D-04 at cycle   3 NSaved=   3.
 NSaved= 3 IEnMin= 3 EnMin= -3.69486731716877     IErMin= 3 ErrMin= 6.35D-04
 ErrMax= 6.35D-04  0.00D+00 EMaxC= 1.00D-01 BMatC= 1.18D-05 BMatP= 4.25D-04
 IDIUse=3 WtCom= 9.94D-01 WtEn= 6.35D-03
 Coeff-Com:  0.133D+00-0.595D+00 0.146D+01
 Coeff-En:   0.000D+00 0.000D+00 0.100D+01
 Coeff:      0.133D+00-0.592D+00 0.146D+01
 Gap=     0.429 Goal=   None    Shift=    0.000
 RMSDP=5.26D-04 MaxDP=3.64D-03 DE=-1.61D-03 OVMax= 4.85D-03

 Cycle   4  Pass 1  IDiag  3:
 E= -3.69493391980504     Delta-E=       -0.000066602636 Rises=F Damp=F
 DIIS: error= 1.08D-04 at cycle   4 NSaved=   4.
 NSaved= 4 IEnMin= 4 EnMin= -3.69493391980504     IErMin= 4 ErrMin= 1.08D-04
 ErrMax= 1.08D-04  0.00D+00 EMaxC= 1.00D-01 BMatC= 3.12D-07 BMatP= 1.18D-05
 IDIUse=3 WtCom= 9.99D-01 WtEn= 1.08D-03
 Coeff-Com: -0.467D-01 0.215D+00-0.619D+00 0.145D+01
 Coeff-En:   0.000D+00 0.000D+00 0.000D+00 0.100D+01
 Coeff:     -0.467D-01 0.215D+00-0.619D+00 0.145D+01
 Gap=     0.429 Goal=   None    Shift=    0.000
 RMSDP=9.51D-05 MaxDP=7.16D-04 DE=-6.66D-05 OVMax= 9.94D-04

 Cycle   5  Pass 1  IDiag  3:
 E= -3.69493586153193     Delta-E=       -0.000001941727 Rises=F Damp=F
 DIIS: error= 1.49D-05 at cycle   5 NSaved=   5.
 NSaved= 5 IEnMin= 5 EnMin= -3.69493586153193     IErMin= 5 ErrMin= 1.49D-05
 ErrMax= 1.49D-05  0.00D+00 EMaxC= 1.00D-01 BMatC= 8.41D-09 BMatP= 3.12D-07
 IDIUse=1 WtCom= 1.00D+00 WtEn= 0.00D+00
 Coeff-Com:  0.580D-02-0.271D-01 0.846D-01-0.306D+00 0.124D+01
 Coeff:      0.580D-02-0.271D-01 0.846D-01-0.306D+00 0.124D+01
 Gap=     0.429 Goal=   None    Shift=    0.000
 RMSDP=1.36D-05 MaxDP=9.78D-05 DE=-1.94D-06 OVMax= 1.46D-04

 Cycle   6  Pass 1  IDiag  3:
 E= -3.69493590821844     Delta-E=       -0.000000046687 Rises=F Damp=F
 DIIS: error= 2.37D-06 at cycle   6 NSaved=   6.
 NSaved= 6 IEnMin= 6 EnMin= -3.69493590821844     IErMin= 6 ErrMin= 2.37D-06
 ErrMax= 2.37D-06  0.00D+00 EMaxC= 1.00D-01 BMatC= 4.39D-10 BMatP= 8.41D-09
 IDIUse=1 WtCom= 1.00D+00 WtEn= 0.00D+00
 Coeff-Com:  0.132D-02-0.597D-02 0.166D-01-0.205D-01-0.225D+00 0.123D+01
 Coeff:      0.132D-02-0.597D-02 0.166D-01-0.205D-01-0.225D+00 0.123D+01
 Gap=     0.429 Goal=   None    Shift=    0.000
 RMSDP=2.95D-06 MaxDP=1.67D-05 DE=-4.67D-08 OVMax= 2.67D-05

 Cycle   7  Pass 1  IDiag  3:
 E= -3.69493591052245     Delta-E=       -0.000000002304 Rises=F Damp=F
 DIIS: error= 6.72D-07 at cycle   7 NSaved=   7.
 NSaved= 7 IEnMin= 7 EnMin= -3.69493591052245     IErMin= 7 ErrMin= 6.72D-07
 ErrMax= 6.72D-07  0.00D+00 EMaxC= 1.00D-01 BMatC= 2.05D-11 BMatP= 4.39D-10
 IDIUse=1 WtCom= 1.00D+00 WtEn= 0.00D+00
 Coeff-Com: -0.720D-03 0.331D-02-0.955D-02 0.191D-01 0.398D-01-0.463D+00
 Coeff-Com:  0.141D+01
 Coeff:     -0.720D-03 0.331D-02-0.955D-02 0.191D-01 0.398D-01-0.463D+00
 Coeff:      0.141D+01
 Gap=     0.429 Goal=   None    Shift=    0.000
 RMSDP=6.39D-07 MaxDP=4.52D-06 DE=-2.30D-09 OVMax= 5.37D-06

 Cycle   8  Pass 1  IDiag  3:
 E= -3.69493591062644     Delta-E=       -0.000000000104 Rises=F Damp=F
 DIIS: error= 9.15D-08 at cycle   8 NSaved=   8.
 NSaved= 8 IEnMin= 8 EnMin= -3.69493591062644     IErMin= 8 ErrMin= 9.15D-08
 ErrMax= 9.15D-08  0.00D+00 EMaxC= 1.00D-01 BMatC= 4.85D-13 BMatP= 2.05D-11
 IDIUse=1 WtCom= 1.00D+00 WtEn= 0.00D+00
 Coeff-Com:  0.165D-03-0.759D-03 0.222D-02-0.443D-02-0.106D-01 0.119D+00
 Coeff-Com: -0.442D+00 0.134D+01
 Coeff:      0.165D-03-0.759D-03 0.222D-02-0.443D-02-0.106D-01 0.119D+00
 Coeff:     -0.442D+00 0.134D+01
 Gap=     0.429 Goal=   None    Shift=    0.000
 RMSDP=9.43D-08 MaxDP=6.69D-07 DE=-1.04D-10 OVMax= 6.16D-07

 Cycle   9  Pass 1  IDiag  3:
 E= -3.69493591062859     Delta-E=       -0.000000000002 Rises=F Damp=F
 DIIS: error= 1.20D-08 at cycle   9 NSaved=   9.
 NSaved= 9 IEnMin= 9 EnMin= -3.69493591062859     IErMin= 9 ErrMin= 1.20D-08
 ErrMax= 1.20D-08  0.00D+00 EMaxC= 1.00D-01 BMatC= 1.43D-14 BMatP= 4.85D-13
 IDIUse=1 WtCom= 1.00D+00 WtEn= 0.00D+00
 Coeff-Com: -0.202D-04 0.944D-04-0.280D-03 0.514D-03 0.237D-02-0.203D-01
 Coeff-Com:  0.809D-01-0.369D+00 0.131D+01
 Coeff:     -0.202D-04 0.944D-04-0.280D-03 0.514D-03 0.237D-02-0.203D-01
 Coeff:      0.809D-01-0.369D+00 0.131D+01
 Gap=     0.429 Goal=   None    Shift=    0.000
 RMSDP=1.62D-08 MaxDP=6.50D-08 DE=-2.15D-12 OVMax= 9.75D-08

 Cycle  10  Pass 1  IDiag  3:
 E= -3.69493591062891     Delta-E=        0.000000000000 Rises=F Damp=F
 DIIS: error= 2.56D-09 at cycle  10 NSaved=  10.
 NSaved=10 IEnMin=10 EnMin= -3.69493591062891     IErMin=10 ErrMin= 2.56D-09
 ErrMax= 2.56D-09  0.00D+00 EMaxC= 1.00D-01 BMatC= 4.57D-16 BMatP= 1.43D-14
 IDIUse=1 WtCom= 1.00D+00 WtEn= 0.00D+00
 Coeff-Com:  0.168D-05-0.819D-05 0.259D-04-0.276D-04-0.653D-03 0.400D-02
 Coeff-Com: -0.158D-01 0.876D-01-0.441D+00 0.137D+01
 Coeff:      0.168D-05-0.819D-05 0.259D-04-0.276D-04-0.653D-03 0.400D-02
 Coeff:     -0.158D-01 0.876D-01-0.441D+00 0.137D+01
 Gap=     0.429 Goal=   None    Shift=    0.000
 RMSDP=2.99D-09 MaxDP=1.48D-08 DE=-3.27D-13 OVMax= 2.08D-08

 Cycle  11  Pass 2  IDiag  1:
 SCF Done:  E(RAM1) =  -3.69493591063     A.U. after   11 cycles
            NFock= 10  Conv=0.30D-08     -V/T= 0.8196
 KE=-2.047623169829D+01 PE=-1.660374015453D+02 EE= 8.161725577503D+01
 Leave Link  502 at Tue Nov 24 09:48:03 2015, MaxMem=    33554432 cpu:         0.0
 (Enter /home/Applications/g09/g09/l701.exe)
 Compute integral first derivatives.
 ... and contract with generalized density number  0.
 Leave Link  701 at Tue Nov 24 09:48:03 2015, MaxMem=    33554432 cpu:         0.0
 (Enter /home/Applications/g09/g09/l702.exe)
 L702 exits ... SP integral derivatives will be done elsewhere.
 Leave Link  702 at Tue Nov 24 09:48:03 2015, MaxMem=    33554432 cpu:         0.0
 (Enter /home/Applications/g09/g09/l703.exe)
 Compute integral first derivatives, UseDBF=F ICtDFT=           0.
 Integral derivatives from FoFJK, PRISM(SPDF).
 Calling FoFJK, ICntrl=      2127 FMM=F ISym2X=0 I1Cent= 0 IOpClX= 0 NMat=1 NMatS=1 NMatT=0.
 FoFJK:  IHMeth= 8 ICntrl=    2127 DoSepK=F KAlg= 0 I1Cent=   0 FoldK=F
 IRaf=         0 NMat=   1 IRICut=       1 DoRegI=T DoRafI=F ISym2E= 0.
 FoFCou: FMM=F IPFlag=           0 FMFlag=      100000 FMFlg1=         800
         NFxFlg=           0 DoJE=F BraDBF=F KetDBF=F FulRan=T
         wScrn=  0.000000 ICntrl=    2127 IOpCl=  0 I1Cent=           0 NGrid=           0
         NMat0=    1 NMatS0=      1 NMatT0=    0 NMatD0=    1 NMtDS0=    0 NMtDT0=    0
 Symmetry not used in FoFCou.
 Leave Link  703 at Tue Nov 24 09:48:03 2015, MaxMem=    33554432 cpu:         0.0
 (Enter /home/Applications/g09/g09/l716.exe)
 Dipole        =-1.35998820D-01 1.68569183D-02 2.27282439D-02
 ***** Axes restored to original set *****
 -------------------------------------------------------------------
 Center     Atomic                   Forces (Hartrees/Bohr)
 Number     Number              X              Y              Z
 -------------------------------------------------------------------
      1        6          -0.014860870   -0.008870467    0.000762017
      2        6          -0.005602062    0.000331706   -0.004099364
      3        8           0.010271816    0.001451577    0.000041283
      4        6           0.003254229    0.002198734   -0.000811063
      5        6          -0.004297589    0.013120402    0.001794808
      6        1          -0.000046195    0.005927257   -0.001353323
      7        1          -0.001126937   -0.001704170    0.001207571
      8        1           0.003172936   -0.001967930    0.001904261
      9        1           0.009234671   -0.010487109    0.000553812
 -------------------------------------------------------------------
 Cartesian Forces:  Max     0.014860870 RMS     0.005842615
 Leave Link  716 at Tue Nov 24 09:48:03 2015, MaxMem=    33554432 cpu:         0.0
 (Enter /home/Applications/g09/g09/l103.exe)

 GradGradGradGradGradGradGradGradGradGradGradGradGradGradGradGradGradGrad
 Berny optimization.
 Using GEDIIS/GDIIS optimizer.
 FormGI is forming the generalized inverse of G from B-inverse, IUseBI=4.
 Internal  Forces:  Max     0.019360914 RMS     0.004675880
 Search for a local minimum.
 Step number   2 out of a maximum of   48
 All quantities printed in internal units (Hartrees-Bohrs-Radians)
 RMS Force = .46759D-02 SwitMx=.10000D-02 MixMth= 1
 Mixed Optimization -- RFO/linear search
 Update second derivatives using D2CorX and points    1    2
 DE= -1.75D-02 DEPred=-2.17D-02 R= 8.08D-01
 TightC=F SS=  1.41D+00  RLast= 3.80D-01 DXNew= 5.0454D-01 1.1405D+00
 Trust test= 8.08D-01 RLast= 3.80D-01 DXMaxT set to 5.05D-01
 ITU=  1  0
 Use linear search instead of GDIIS.
     Eigenvalues ---    0.01337   0.01874   0.02008   0.02561   0.02720
     Eigenvalues ---    0.02893   0.15646   0.15987   0.15997   0.16230
     Eigenvalues ---    0.21970   0.23098   0.33643   0.34507   0.37748
     Eigenvalues ---    0.38130   0.43218   0.46661   0.49555   0.54160
     Eigenvalues ---    0.60371
 RFO step:  Lambda=-2.33867024D-03 EMin= 1.33657582D-02
 Quartic linear search produced a step of -0.08693.
 Iteration  1 RMS(Cart)=  0.02470506 RMS(Int)=  0.00061959
 Iteration  2 RMS(Cart)=  0.00051308 RMS(Int)=  0.00038523
 Iteration  3 RMS(Cart)=  0.00000031 RMS(Int)=  0.00038523
 ITry= 1 IFail=0 DXMaxC= 8.06D-02 DCOld= 1.00D+10 DXMaxT= 5.05D-01 DXLimC= 3.00D+00 Rises=F
 Variable       Old X    -DE/DX   Delta X   Delta X   Delta X     New X
                                 (Linear)    (Quad)   (Total)
    R1        2.59331  -0.00402  -0.00368  -0.00058  -0.00417   2.58915
    R2        2.66090   0.01936   0.01925   0.02715   0.04641   2.70731
    R3        2.00448   0.01354  -0.00979   0.04163   0.03184   2.03632
    R4        2.58443  -0.00286  -0.00001  -0.00547  -0.00545   2.57898
    R5        2.04657   0.00012   0.00153  -0.00222  -0.00069   2.04588
    R6        2.57918  -0.00216  -0.00141  -0.00188  -0.00335   2.57583
    R7        2.59617  -0.00552  -0.00745   0.00350  -0.00402   2.59215
    R8        2.04583  -0.00105   0.00271  -0.00731  -0.00461   2.04123
    R9        2.03500   0.00327  -0.00263   0.01202   0.00939   2.04439
    A1        1.82985  -0.00076  -0.00223   0.00328   0.00118   1.83103
    A2        2.27053  -0.00304  -0.00066  -0.01750  -0.01845   2.25208
    A3        2.18274   0.00380   0.00267   0.01468   0.01703   2.19977
    A4        1.97997  -0.00295  -0.00293  -0.00613  -0.00958   1.97039
    A5        2.34867  -0.00224   0.00184  -0.01743  -0.01654   2.33213
    A6        1.95352   0.00526   0.00048   0.02724   0.02673   1.98025
    A7        1.79787   0.00764   0.00726   0.01306   0.02056   1.81843
    A8        1.96680  -0.00130  -0.00235  -0.00175  -0.00398   1.96281
    A9        2.01428  -0.00118   0.00502  -0.01695  -0.01190   2.00237
   A10        2.30189   0.00249  -0.00341   0.01948   0.01609   2.31797
   A11        1.85024  -0.00263  -0.00029  -0.00835  -0.00851   1.84173
   A12        2.15600   0.00633   0.00092   0.03090   0.03173   2.18773
   A13        2.27668  -0.00370  -0.00076  -0.02213  -0.02299   2.25369
    D1        0.00812  -0.00059   0.00098  -0.02663  -0.02541  -0.01729
    D2        3.09558   0.00123  -0.00744   0.07069   0.06261  -3.12500
    D3       -3.12177  -0.00089   0.00649  -0.06984  -0.06247   3.09894
    D4       -0.03431   0.00093  -0.00193   0.02748   0.02555  -0.00876
    D5       -0.00838   0.00054   0.00475   0.00521   0.00985   0.00147
    D6        3.11106   0.00042   0.00161   0.02270   0.02432   3.13538
    D7        3.12228   0.00075  -0.00057   0.04532   0.04514  -3.11577
    D8       -0.04147   0.00064  -0.00371   0.06281   0.05962   0.01815
    D9       -0.00429   0.00034  -0.00640   0.03616   0.03003   0.02574
   D10       -3.10432  -0.00088  -0.00014  -0.03736  -0.03827   3.14059
   D11       -0.00151   0.00001   0.00975  -0.03226  -0.02307  -0.02458
   D12        3.12019   0.00034   0.00031   0.00299   0.00296   3.12315
   D13        0.00638  -0.00038  -0.00892   0.01749   0.00836   0.01474
   D14       -3.11095  -0.00043  -0.00556  -0.00262  -0.00783  -3.11878
   D15       -3.11107  -0.00071   0.00171  -0.02467  -0.02338  -3.13445
   D16        0.05479  -0.00076   0.00507  -0.04479  -0.03957   0.01522
         Item               Value     Threshold  Converged?
 Maximum Force            0.019361     0.000450     NO 
 RMS     Force            0.004676     0.000300     NO 
 Maximum Displacement     0.080575     0.001800     NO 
 RMS     Displacement     0.024730     0.001200     NO 
 Predicted change in Energy=-1.334585D-03
 Lowest energy point so far.  Saving SCF results.
 GradGradGradGradGradGradGradGradGradGradGradGradGradGradGradGradGradGrad

 Leave Link  103 at Tue Nov 24 09:48:03 2015, MaxMem=    33554432 cpu:         0.0
 (Enter /home/Applications/g09/g09/l202.exe)
                          Input orientation:                          
 ---------------------------------------------------------------------
 Center     Atomic      Atomic             Coordinates (Angstroms)
 Number     Number       Type             X           Y           Z
 ---------------------------------------------------------------------
      1          6           0        0.975994   -0.709761   -0.025929
      2          6           0       -0.347219   -1.065133   -0.019876
      3          8           0       -1.185880    0.011069    0.010858
      4          6           0       -0.349448    1.087143   -0.009392
      5          6           0        0.972960    0.722872   -0.020233
      6          1           0        1.854045    1.350620   -0.017231
      7          1           0       -0.846711    2.046046   -0.007719
      8          1           0       -0.865234   -2.015713   -0.007716
      9          1           0        1.848539   -1.341928   -0.012131
 ---------------------------------------------------------------------
                    Distance matrix (angstroms):
                    1          2          3          4          5
     1  C    0.000000
     2  C    1.370117   0.000000
     3  O    2.279177   1.364737   0.000000
     4  C    2.232921   2.152303   1.363071   0.000000
     5  C    1.432648   2.222573   2.273371   1.371705   0.000000
     6  H    2.239692   3.268246   3.322097   2.219203   1.081845
     7  H    3.304098   3.151043   2.063131   1.080170   2.249922
     8  H    2.257424   1.082631   2.052074   3.145435   3.298327
     9  H    1.077571   2.213149   3.322473   3.275904   2.242790
                    6          7          8          9
     6  H    0.000000
     7  H    2.788869   0.000000
     8  H    4.327444   4.061802   0.000000
     9  H    2.692559   4.329292   2.796170   0.000000
 Stoichiometry    C4H4O
 Framework group  C1[X(C4H4O)]
 Deg. of freedom    21
 Full point group                 C1      NOp   1
 RotChk:  IX=2 Diff= 1.16D-01
 Largest Abelian subgroup         C1      NOp   1
 Largest concise Abelian subgroup C1      NOp   1
                         Standard orientation:                         
 ---------------------------------------------------------------------
 Center     Atomic      Atomic             Coordinates (Angstroms)
 Number     Number       Type             X           Y           Z
 ---------------------------------------------------------------------
      1          6           0       -1.062363   -0.583444    0.001993
      2          6           0        0.202025   -1.111162    0.009384
      3          8           0        1.176279   -0.155659   -0.009351
      4          6           0        0.489754    1.021817    0.004674
      5          6           0       -0.869318    0.836137    0.000158
      6          1           0       -1.659291    1.575199   -0.010751
      7          1           0        1.109769    1.906300    0.010971
      8          1           0        0.589516   -2.122032    0.000320
      9          1           0       -2.010823   -1.094287   -0.022983
 ---------------------------------------------------------------------
 Rotational constants (GHZ):      9.7049420      8.9378511      4.6530996
 Leave Link  202 at Tue Nov 24 09:48:03 2015, MaxMem=    33554432 cpu:         0.0
 (Enter /home/Applications/g09/g09/l301.exe)

 Semi-emprical parameters in input format:
 Method=8 CoreType=1 PeptideFC=0.0103800000 RIJScale=0.4352510000
 ****
 H       
 PQN=1 NValence=1 F0ss=0.4741210000 ZetaOverlap=1.3742060000 U=-0.4847720000
 Beta=-0.1714900000 CoreKO=1.2538410000 KON=0,0,0,1.1524660000 KON=1,0,1,1.0298940000
 KON=0,1,1,0.9302610000 KON=2,1,1,0.9161900000 EISol=-0.4188110042 EHeat=0.0830298228
 Alpha=1.6160630000
 GCore=0.0074300000,1.3961710000,2.2454870000
 GCore=0.0003520000,1.7477930000,3.6708400000
 GCore=-0.0013450000,0.5763910000,3.6295080000
 ****
 C       
 PQN=2,2 NValence=4 F0ss=0.4427690000 F0sp=0.3855180000 F0pp=0.3358800000 F2pp=0.2137580000
 G1sp=0.3638630000
 ZetaOverlap=1.7101190000,1.4592110000
 U=-1.8721930000,-1.4557970000
 Beta=-0.5924740000,-0.3709860000 DDN=0,1,0.7570670000 DDN=1,1,0.9174930000
 CoreKO=1.2207760000 KON=0,0,0,1.0108990000 KON=1,0,1,0.8366330000 KON=0,1,1,1.2029580000
 KON=2,1,1,0.7242760000 EISol=-4.4398989268 EHeat=0.2723305520 Alpha=1.3637170000
 DipHyp=1.5140468905
 GCore=0.0006580000,1.1907710000,2.6383100000
 GCore=0.0037150000,1.2535470000,4.1778620000
 GCore=-0.0013300000,1.3253910000,3.8886390000
 GCore=-0.0000900000,1.4675750000,4.8215870000
 ****
 O       
 PQN=2,2 NValence=6 F0ss=0.5141360000 F0sp=0.5309610000 F0pp=0.5045770000 F2pp=0.2291520000
 G1sp=0.4186210000
 ZetaOverlap=2.6101490000,2.2129700000
 U=-3.6498170000,-3.1137980000
 Beta=-1.0402480000,-1.1243680000 DDN=0,1,0.4378030000 DDN=1,1,0.5668760000
 CoreKO=0.9638280000 KON=0,0,0,0.9073280000 KON=1,0,1,0.4654660000 KON=0,1,1,0.8985080000
 KON=2,1,1,0.6117570000 EISol=-11.6164441184 EHeat=0.0949133088 Alpha=2.3275200000
 DipHyp=0.8755556256
 GCore=0.0189760000,1.2993160000,1.4882470000
 GCore=0.0042340000,1.8464450000,2.5246910000
 ****
 
 Standard basis: VSTO-6G (5D, 7F)
 Ernie: Thresh=  0.10000D-02 Tol=  0.10000D-05 Strict=F.
  NNHCO=     0 NNPyr=     0 NCTC=     0               EPep=         0.000000000
    EC=        66.362870948  ECS=         1.818699528   EG=         0.340240803
   EHC=         0.000000000  EAt=       -31.051283842  AtH=         1.516354808
 EPDDG=         0.000000000  ECC=        68.521811279 EAtT=        32.567638650
 There are    24 symmetry adapted cartesian basis functions of A   symmetry.
 There are    24 symmetry adapted basis functions of A   symmetry.
    24 basis functions,   144 primitive gaussians,    24 cartesian basis functions
    13 alpha electrons       13 beta electrons
       nuclear repulsion energy       101.0894499296 Hartrees.
 IExCor=    0 DFT=F Ex=HF Corr=None ExCW=0 ScaHFX=  1.000000
 ScaDFX=  1.000000  1.000000  1.000000  1.000000 ScalE2=  1.000000  1.000000
 IRadAn=      0 IRanWt=     -1 IRanGd=            0 ICorTp=0 IEmpDi=  4
 Integral buffers will be    131072 words long.
 Regular integral format.
 Two-electron integral symmetry is turned off.
 Leave Link  301 at Tue Nov 24 09:48:03 2015, MaxMem=    33554432 cpu:         0.0
 (Enter /home/Applications/g09/g09/l302.exe)
 Do NDO integrals.
 NPDir=0 NMtPBC=     1 NCelOv=     1 NCel=       1 NClECP=     1 NCelD=      1
         NCelK=      1 NCelE2=     1 NClLst=     1 CellRange=     0.0.
 One-electron integrals computed using PRISM.
 NBasis=    24 RedAO= F EigKep=  0.00D+00  NBF=    24
 NBsUse=    24 1.00D-04 EigRej=  0.00D+00 NBFU=    24
 Leave Link  302 at Tue Nov 24 09:48:03 2015, MaxMem=    33554432 cpu:         0.0
 (Enter /home/Applications/g09/g09/l303.exe)
 DipDrv:  MaxL=1.
 Leave Link  303 at Tue Nov 24 09:48:03 2015, MaxMem=    33554432 cpu:         0.0
 (Enter /home/Applications/g09/g09/l401.exe)
 Initial guess from the checkpoint file:  "/home/Applications/g09/scratch/Gau-12700.chk"
 B after Tr=     0.000000    0.000000    0.000000
         Rot=    0.999216   -0.000031   -0.000017    0.039588 Ang=  -4.54 deg.
 Guess basis will be translated and rotated to current coordinates.
 JPrj=0 DoOrth=T DoCkMO=T.
 Leave Link  401 at Tue Nov 24 09:48:03 2015, MaxMem=    33554432 cpu:         0.0
 (Enter /home/Applications/g09/g09/l502.exe)
 Closed shell SCF:
 Using DIIS extrapolation, IDIIS=  1040.
 Overlap will be assumed to be unity.
 Two-electron integral symmetry not used.
 Keep J ints in memory in canonical form, NReq=888082.
 IVT=       79475 IEndB=       79475 NGot=    33554432 MDV=    33473473
 LenX=    33473473 LenY=    33472456
 Requested convergence on RMS density matrix=1.00D-08 within 128 cycles.
 Requested convergence on MAX density matrix=1.00D-06.
 Requested convergence on             energy=1.00D-06.
 No special actions if energy rises.
 FoFCou: FMM=F IPFlag=           0 FMFlag=           0 FMFlg1=           0
         NFxFlg=           0 DoJE=F BraDBF=F KetDBF=F FulRan=T
         wScrn=  0.000000 ICntrl=     600 IOpCl=  2 I1Cent=           0 NGrid=           0
         NMat0=    1 NMatS0=     54 NMatT0=    0 NMatD0=    1 NMtDS0=    0 NMtDT0=    0
 Symmetry not used in FoFCou.

 Cycle   1  Pass 1  IDiag  1:
 E= -3.69486435047109    
 DIIS: error= 3.58D-03 at cycle   1 NSaved=   1.
 NSaved= 1 IEnMin= 1 EnMin= -3.69486435047109     IErMin= 1 ErrMin= 3.58D-03
 ErrMax= 3.58D-03  0.00D+00 EMaxC= 1.00D-01 BMatC= 3.79D-04 BMatP= 3.79D-04
 IDIUse=3 WtCom= 9.64D-01 WtEn= 3.58D-02
 Coeff-Com:  0.100D+01
 Coeff-En:   0.100D+01
 Coeff:      0.100D+01
 GapD=    2.000 DampG=2.000 DampE=1.000 DampFc=2.0000 IDamp=-1.
 RMSDP=1.24D-03 MaxDP=5.87D-03              OVMax= 0.00D+00

 Cycle   2  Pass 1  IDiag  3:
 E= -3.69587264946010     Delta-E=       -0.001008298989 Rises=F Damp=F
 DIIS: error= 1.08D-03 at cycle   2 NSaved=   2.
 NSaved= 2 IEnMin= 2 EnMin= -3.69587264946010     IErMin= 2 ErrMin= 1.08D-03
 ErrMax= 1.08D-03  0.00D+00 EMaxC= 1.00D-01 BMatC= 3.45D-05 BMatP= 3.79D-04
 IDIUse=3 WtCom= 9.89D-01 WtEn= 1.08D-02
 Coeff-Com: -0.370D+00 0.137D+01
 Coeff-En:   0.000D+00 0.100D+01
 Coeff:     -0.366D+00 0.137D+01
 Gap=     0.434 Goal=   None    Shift=    0.000
 RMSDP=6.19D-04 MaxDP=2.99D-03 DE=-1.01D-03 OVMax= 3.19D-03

 Cycle   3  Pass 1  IDiag  3:
 E= -3.69600743664913     Delta-E=       -0.000134787189 Rises=F Damp=F
 DIIS: error= 1.26D-04 at cycle   3 NSaved=   3.
 NSaved= 3 IEnMin= 3 EnMin= -3.69600743664913     IErMin= 3 ErrMin= 1.26D-04
 ErrMax= 1.26D-04  0.00D+00 EMaxC= 1.00D-01 BMatC= 9.55D-07 BMatP= 3.45D-05
 IDIUse=3 WtCom= 9.99D-01 WtEn= 1.26D-03
 Coeff-Com:  0.134D+00-0.584D+00 0.145D+01
 Coeff-En:   0.000D+00 0.000D+00 0.100D+01
 Coeff:      0.134D+00-0.583D+00 0.145D+01
 Gap=     0.434 Goal=   None    Shift=    0.000
 RMSDP=1.42D-04 MaxDP=6.63D-04 DE=-1.35D-04 OVMax= 1.07D-03

 Cycle   4  Pass 1  IDiag  3:
 E= -3.69601246870496     Delta-E=       -0.000005032056 Rises=F Damp=F
 DIIS: error= 1.79D-05 at cycle   4 NSaved=   4.
 NSaved= 4 IEnMin= 4 EnMin= -3.69601246870496     IErMin= 4 ErrMin= 1.79D-05
 ErrMax= 1.79D-05  0.00D+00 EMaxC= 1.00D-01 BMatC= 2.00D-08 BMatP= 9.55D-07
 IDIUse=1 WtCom= 1.00D+00 WtEn= 0.00D+00
 Coeff-Com: -0.412D-01 0.186D+00-0.538D+00 0.139D+01
 Coeff:     -0.412D-01 0.186D+00-0.538D+00 0.139D+01
 Gap=     0.434 Goal=   None    Shift=    0.000
 RMSDP=2.09D-05 MaxDP=9.68D-05 DE=-5.03D-06 OVMax= 1.78D-04

 Cycle   5  Pass 1  IDiag  3:
 E= -3.69601257907800     Delta-E=       -0.000000110373 Rises=F Damp=F
 DIIS: error= 2.93D-06 at cycle   5 NSaved=   5.
 NSaved= 5 IEnMin= 5 EnMin= -3.69601257907800     IErMin= 5 ErrMin= 2.93D-06
 ErrMax= 2.93D-06  0.00D+00 EMaxC= 1.00D-01 BMatC= 6.09D-10 BMatP= 2.00D-08
 IDIUse=1 WtCom= 1.00D+00 WtEn= 0.00D+00
 Coeff-Com:  0.222D-02-0.105D-01 0.372D-01-0.232D+00 0.120D+01
 Coeff:      0.222D-02-0.105D-01 0.372D-01-0.232D+00 0.120D+01
 Gap=     0.434 Goal=   None    Shift=    0.000
 RMSDP=3.50D-06 MaxDP=1.74D-05 DE=-1.10D-07 OVMax= 2.70D-05

 Cycle   6  Pass 1  IDiag  3:
 E= -3.69601258239037     Delta-E=       -0.000000003312 Rises=F Damp=F
 DIIS: error= 8.12D-07 at cycle   6 NSaved=   6.
 NSaved= 6 IEnMin= 6 EnMin= -3.69601258239037     IErMin= 6 ErrMin= 8.12D-07
 ErrMax= 8.12D-07  0.00D+00 EMaxC= 1.00D-01 BMatC= 3.24D-11 BMatP= 6.09D-10
 IDIUse=1 WtCom= 1.00D+00 WtEn= 0.00D+00
 Coeff-Com:  0.115D-02-0.503D-02 0.128D-01 0.617D-02-0.355D+00 0.134D+01
 Coeff:      0.115D-02-0.503D-02 0.128D-01 0.617D-02-0.355D+00 0.134D+01
 Gap=     0.434 Goal=   None    Shift=    0.000
 RMSDP=8.42D-07 MaxDP=3.97D-06 DE=-3.31D-09 OVMax= 6.71D-06

 Cycle   7  Pass 1  IDiag  3:
 E= -3.69601258256398     Delta-E=       -0.000000000174 Rises=F Damp=F
 DIIS: error= 1.02D-07 at cycle   7 NSaved=   7.
 NSaved= 7 IEnMin= 7 EnMin= -3.69601258256398     IErMin= 7 ErrMin= 1.02D-07
 ErrMax= 1.02D-07  0.00D+00 EMaxC= 1.00D-01 BMatC= 9.11D-13 BMatP= 3.24D-11
 IDIUse=1 WtCom= 1.00D+00 WtEn= 0.00D+00
 Coeff-Com: -0.619D-03 0.273D-02-0.730D-02 0.506D-02 0.120D+00-0.575D+00
 Coeff-Com:  0.145D+01
 Coeff:     -0.619D-03 0.273D-02-0.730D-02 0.506D-02 0.120D+00-0.575D+00
 Coeff:      0.145D+01
 Gap=     0.434 Goal=   None    Shift=    0.000
 RMSDP=1.41D-07 MaxDP=6.35D-07 DE=-1.74D-10 OVMax= 1.06D-06

 Cycle   8  Pass 1  IDiag  3:
 E= -3.69601258256873     Delta-E=       -0.000000000005 Rises=F Damp=F
 DIIS: error= 1.68D-08 at cycle   8 NSaved=   8.
 NSaved= 8 IEnMin= 8 EnMin= -3.69601258256873     IErMin= 8 ErrMin= 1.68D-08
 ErrMax= 1.68D-08  0.00D+00 EMaxC= 1.00D-01 BMatC= 2.10D-14 BMatP= 9.11D-13
 IDIUse=1 WtCom= 1.00D+00 WtEn= 0.00D+00
 Coeff-Com:  0.250D-03-0.110D-02 0.297D-02-0.257D-02-0.441D-01 0.222D+00
 Coeff-Com: -0.637D+00 0.146D+01
 Coeff:      0.250D-03-0.110D-02 0.297D-02-0.257D-02-0.441D-01 0.222D+00
 Coeff:     -0.637D+00 0.146D+01
 Gap=     0.434 Goal=   None    Shift=    0.000
 RMSDP=2.12D-08 MaxDP=1.08D-07 DE=-4.75D-12 OVMax= 1.50D-07

 Cycle   9  Pass 1  IDiag  3:
 E= -3.69601258256918     Delta-E=        0.000000000000 Rises=F Damp=F
 DIIS: error= 2.41D-09 at cycle   9 NSaved=   9.
 NSaved= 9 IEnMin= 9 EnMin= -3.69601258256918     IErMin= 9 ErrMin= 2.41D-09
 ErrMax= 2.41D-09  0.00D+00 EMaxC= 1.00D-01 BMatC= 5.16D-16 BMatP= 2.10D-14
 IDIUse=1 WtCom= 1.00D+00 WtEn= 0.00D+00
 Coeff-Com: -0.796D-04 0.352D-03-0.951D-03 0.930D-03 0.129D-01-0.672D-01
 Coeff-Com:  0.199D+00-0.544D+00 0.140D+01
 Coeff:     -0.796D-04 0.352D-03-0.951D-03 0.930D-03 0.129D-01-0.672D-01
 Coeff:      0.199D+00-0.544D+00 0.140D+01
 Gap=     0.434 Goal=   None    Shift=    0.000
 RMSDP=3.36D-09 MaxDP=1.77D-08 DE=-4.55D-13 OVMax= 2.17D-08

 Cycle  10  Pass 2  IDiag  1:
 SCF Done:  E(RAM1) =  -3.69601258257     A.U. after   10 cycles
            NFock=  9  Conv=0.34D-08     -V/T= 0.8194
 KE=-2.046054992642D+01 PE=-1.658756188512D+02 EE= 8.155070626542D+01
 Leave Link  502 at Tue Nov 24 09:48:03 2015, MaxMem=    33554432 cpu:         0.0
 (Enter /home/Applications/g09/g09/l701.exe)
 Compute integral first derivatives.
 ... and contract with generalized density number  0.
 Leave Link  701 at Tue Nov 24 09:48:03 2015, MaxMem=    33554432 cpu:         0.0
 (Enter /home/Applications/g09/g09/l702.exe)
 L702 exits ... SP integral derivatives will be done elsewhere.
 Leave Link  702 at Tue Nov 24 09:48:03 2015, MaxMem=    33554432 cpu:         0.0
 (Enter /home/Applications/g09/g09/l703.exe)
 Compute integral first derivatives, UseDBF=F ICtDFT=           0.
 Integral derivatives from FoFJK, PRISM(SPDF).
 Calling FoFJK, ICntrl=      2127 FMM=F ISym2X=0 I1Cent= 0 IOpClX= 0 NMat=1 NMatS=1 NMatT=0.
 FoFJK:  IHMeth= 8 ICntrl=    2127 DoSepK=F KAlg= 0 I1Cent=   0 FoldK=F
 IRaf=         0 NMat=   1 IRICut=       1 DoRegI=T DoRafI=F ISym2E= 0.
 FoFCou: FMM=F IPFlag=           0 FMFlag=      100000 FMFlg1=         800
         NFxFlg=           0 DoJE=F BraDBF=F KetDBF=F FulRan=T
         wScrn=  0.000000 ICntrl=    2127 IOpCl=  0 I1Cent=           0 NGrid=           0
         NMat0=    1 NMatS0=      1 NMatT0=    0 NMatD0=    1 NMtDS0=    0 NMtDT0=    0
 Symmetry not used in FoFCou.
 Leave Link  703 at Tue Nov 24 09:48:03 2015, MaxMem=    33554432 cpu:         0.0
 (Enter /home/Applications/g09/g09/l716.exe)
 Dipole        =-1.17184051D-01 1.62040884D-02-1.67945301D-02
 ***** Axes restored to original set *****
 -------------------------------------------------------------------
 Center     Atomic                   Forces (Hartrees/Bohr)
 Number     Number              X              Y              Z
 -------------------------------------------------------------------
      1        6          -0.003141975    0.009996112    0.000935555
      2        6          -0.000727775   -0.000343101    0.004216848
      3        8          -0.000115020   -0.000386603   -0.004296259
      4        6           0.004752724   -0.000002794    0.001945566
      5        6          -0.000670405   -0.008455273   -0.000256713
      6        1          -0.001487774    0.000726079   -0.000614062
      7        1          -0.000756933    0.000199779    0.000281636
      8        1           0.001237622   -0.000122890   -0.000710217
      9        1           0.000909536   -0.001611308   -0.001502353
 -------------------------------------------------------------------
 Cartesian Forces:  Max     0.009996112 RMS     0.003089058
 Leave Link  716 at Tue Nov 24 09:48:03 2015, MaxMem=    33554432 cpu:         0.0
 (Enter /home/Applications/g09/g09/l103.exe)

 GradGradGradGradGradGradGradGradGradGradGradGradGradGradGradGradGradGrad
 Berny optimization.
 Using GEDIIS/GDIIS optimizer.
 FormGI is forming the generalized inverse of G from B-inverse, IUseBI=4.
 Internal  Forces:  Max     0.007389939 RMS     0.001608890
 Search for a local minimum.
 Step number   3 out of a maximum of   48
 All quantities printed in internal units (Hartrees-Bohrs-Radians)
 RMS Force = .16089D-02 SwitMx=.10000D-02 MixMth= 1
 Mixed Optimization -- RFO/linear search
 Update second derivatives using D2CorX and points    1    2    3
 DE= -1.08D-03 DEPred=-1.33D-03 R= 8.07D-01
 TightC=F SS=  1.41D+00  RLast= 1.68D-01 DXNew= 8.4853D-01 5.0257D-01
 Trust test= 8.07D-01 RLast= 1.68D-01 DXMaxT set to 5.05D-01
 ITU=  1  1  0
 Use linear search instead of GDIIS.
     Eigenvalues ---    0.01365   0.01849   0.01990   0.02453   0.02791
     Eigenvalues ---    0.03564   0.12568   0.15994   0.15997   0.16168
     Eigenvalues ---    0.21781   0.22965   0.33727   0.34481   0.37468
     Eigenvalues ---    0.40460   0.46542   0.48013   0.49489   0.54520
     Eigenvalues ---    0.60059
 RFO step:  Lambda=-5.81028270D-04 EMin= 1.36537270D-02
 Quartic linear search produced a step of -0.14841.
 Iteration  1 RMS(Cart)=  0.01168863 RMS(Int)=  0.00030868
 Iteration  2 RMS(Cart)=  0.00024070 RMS(Int)=  0.00016910
 Iteration  3 RMS(Cart)=  0.00000005 RMS(Int)=  0.00016910
 ITry= 1 IFail=0 DXMaxC= 4.86D-02 DCOld= 1.00D+10 DXMaxT= 5.05D-01 DXLimC= 3.00D+00 Rises=F
 Variable       Old X    -DE/DX   Delta X   Delta X   Delta X     New X
                                 (Linear)    (Quad)   (Total)
    R1        2.58915  -0.00110   0.00062  -0.00209  -0.00144   2.58770
    R2        2.70731  -0.00739  -0.00689  -0.00930  -0.01614   2.69117
    R3        2.03632   0.00166  -0.00472   0.01970   0.01498   2.05129
    R4        2.57898  -0.00103   0.00081  -0.00363  -0.00285   2.57613
    R5        2.04588  -0.00049   0.00010  -0.00205  -0.00194   2.04393
    R6        2.57583   0.00048   0.00050   0.00011   0.00056   2.57639
    R7        2.59215  -0.00277   0.00060  -0.00305  -0.00246   2.58969
    R8        2.04123   0.00053   0.00068  -0.00151  -0.00083   2.04039
    R9        2.04439  -0.00079  -0.00139   0.00305   0.00165   2.04604
    A1        1.83103   0.00162  -0.00018   0.00684   0.00654   1.83757
    A2        2.25208  -0.00158   0.00274  -0.01416  -0.01141   2.24067
    A3        2.19977  -0.00002  -0.00253   0.00766   0.00515   2.20492
    A4        1.97039  -0.00088   0.00142  -0.00566  -0.00453   1.96586
    A5        2.33213  -0.00071   0.00245  -0.01213  -0.00972   2.32241
    A6        1.98025   0.00163  -0.00397   0.01862   0.01461   1.99485
    A7        1.81843  -0.00147  -0.00305   0.00255  -0.00085   1.81758
    A8        1.96281   0.00012   0.00059  -0.00042  -0.00009   1.96272
    A9        2.00237  -0.00066   0.00177  -0.00998  -0.00816   1.99422
   A10        2.31797   0.00054  -0.00239   0.01051   0.00818   2.32615
   A11        1.84173   0.00064   0.00126  -0.00208  -0.00094   1.84079
   A12        2.18773   0.00116  -0.00471   0.02000   0.01535   2.20308
   A13        2.25369  -0.00180   0.00341  -0.01785  -0.01438   2.23931
    D1       -0.01729   0.00105   0.00377   0.02827   0.03208   0.01479
    D2       -3.12500  -0.00086  -0.00929  -0.00574  -0.01465  -3.13965
    D3        3.09894   0.00166   0.00927   0.04267   0.05169  -3.13255
    D4       -0.00876  -0.00025  -0.00379   0.00865   0.00496  -0.00380
    D5        0.00147  -0.00010  -0.00146  -0.00209  -0.00355  -0.00209
    D6        3.13538   0.00014  -0.00361   0.00720   0.00367   3.13905
    D7       -3.11577  -0.00065  -0.00670  -0.01551  -0.02232  -3.13809
    D8        0.01815  -0.00041  -0.00885  -0.00621  -0.01510   0.00305
    D9        0.02574  -0.00160  -0.00446  -0.04241  -0.04686  -0.02112
   D10        3.14059  -0.00013   0.00568  -0.01610  -0.00983   3.13077
   D11       -0.02458   0.00150   0.00342   0.04062   0.04422   0.01964
   D12        3.12315   0.00063  -0.00044   0.02540   0.02526  -3.13478
   D13        0.01474  -0.00089  -0.00124  -0.02461  -0.02593  -0.01119
   D14       -3.11878  -0.00116   0.00116  -0.03461  -0.03354   3.13087
   D15       -3.13445   0.00019   0.00347  -0.00587  -0.00228  -3.13673
   D16        0.01522  -0.00008   0.00587  -0.01587  -0.00988   0.00534
         Item               Value     Threshold  Converged?
 Maximum Force            0.007390     0.000450     NO 
 RMS     Force            0.001609     0.000300     NO 
 Maximum Displacement     0.048579     0.001800     NO 
 RMS     Displacement     0.011734     0.001200     NO 
 Predicted change in Energy=-3.253519D-04
 Lowest energy point so far.  Saving SCF results.
 GradGradGradGradGradGradGradGradGradGradGradGradGradGradGradGradGradGrad

 Leave Link  103 at Tue Nov 24 09:48:03 2015, MaxMem=    33554432 cpu:         0.0
 (Enter /home/Applications/g09/g09/l202.exe)
                          Input orientation:                          
 ---------------------------------------------------------------------
 Center     Atomic      Atomic             Coordinates (Angstroms)
 Number     Number       Type             X           Y           Z
 ---------------------------------------------------------------------
      1          6           0        0.971482   -0.705054   -0.018648
      2          6           0       -0.350240   -1.062873   -0.006696
      3          8           0       -1.185537    0.014442   -0.014849
      4          6           0       -0.344898    1.087749   -0.004715
      5          6           0        0.974931    0.719047   -0.015511
      6          1           0        1.849863    1.356817   -0.020306
      7          1           0       -0.846320    2.043986   -0.002626
      8          1           0       -0.856614   -2.018608   -0.002404
      9          1           0        1.844381   -1.350291   -0.023614
 ---------------------------------------------------------------------
                    Distance matrix (angstroms):
                    1          2          3          4          5
     1  C    0.000000
     2  C    1.369353   0.000000
     3  O    2.273856   1.363229   0.000000
     4  C    2.224229   2.150629   1.363366   0.000000
     5  C    1.424108   2.220674   2.272464   1.370404   0.000000
[...]
     22 -0.147975D-02  0.736677D-02 -0.587851D-02 -0.148825D-02 -0.341233D-01
     23  0.254854D-05  0.000000D+00  0.000000D+00  0.000000D+00 -0.745463D-05
     24  0.000000D+00 -0.334850D-05  0.177979D-05  0.148878D-05 -0.293523D-05
     25  0.123963D-05  0.405328D-05 -0.322596D-05  0.000000D+00 -0.479898D-05
     26 -0.133354D-05  0.110748D-05 -0.103930D-05  0.000000D+00  0.000000D+00
     27 -0.238857D-05  0.480244D-05 -0.363332D-05 -0.104354D-05  0.274936D-05
     28  0.128234D-05  0.420393D-05 -0.367385D-05  0.000000D+00  0.000000D+00
     29 -0.229745D-05  0.154140D-05 -0.132811D-05  0.000000D+00  0.000000D+00
     30  0.137346D-05  0.000000D+00 -0.136865D-05  0.000000D+00 -0.306875D-05
     31 -0.147401D-05 -0.324309D-05  0.203432D-05  0.109560D-05  0.000000D+00
     32  0.000000D+00 -0.213671D-05  0.000000D+00  0.111217D-05 -0.272767D-05
     33 -0.121184D-05 -0.203120D-05  0.000000D+00  0.144862D-05  0.653439D-05
     34 -0.293361D-05  0.160922D-05  0.000000D+00 -0.165551D-05  0.531456D-05
     35 -0.428916D-05  0.543059D-05 -0.325648D-05 -0.238194D-05 -0.273653D-05
     36 -0.137720D-05  0.554730D-05 -0.318274D-05 -0.254189D-05  0.172677D-05
     37 -0.221316D-05  0.101555D-05 -0.101931D-05  0.000000D+00 -0.115278D-05
     38  0.000000D+00  0.113226D-05  0.000000D+00  0.000000D+00  0.331051D-05
               21            22            23            24            25 
     21  0.617779D-01
     22 -0.277727D-01  0.618960D-01
     23  0.425316D-05 -0.232018D-05  0.199011D-01
     24 -0.273122D-05  0.434878D-05  0.390836D-02  0.139528D-01
     25  0.991766D-05 -0.844130D-05  0.829498D-02 -0.535112D-02  0.129392D-01
     26  0.293329D-05 -0.177234D-05 -0.769774D-02  0.469337D-02 -0.706885D-03
     27  0.000000D+00  0.463292D-05 -0.158436D-01 -0.618019D-02 -0.384281D-02
     28  0.190397D-04 -0.207976D-04 -0.702704D-02 -0.407624D-02  0.146249D-02
     29 -0.552176D-05  0.104037D-04 -0.447523D-02  0.288962D-02 -0.839192D-02
     30  0.135374D-04 -0.150268D-04  0.434133D-02  0.499357D-02 -0.308662D-02
     31 -0.359364D-05  0.429944D-05 -0.153491D-01  0.495820D-04 -0.915439D-02
     32  0.152441D-05  0.000000D+00 -0.253541D-02 -0.799825D-02  0.177913D-02
     33  0.000000D+00 -0.315036D-05  0.438237D-02 -0.432729D-02  0.649433D-02
     34  0.809470D-05 -0.107625D-04  0.486316D-02  0.598892D-03  0.148697D-02
     35 -0.268148D-05 -0.170217D-05  0.730259D-02  0.670302D-02 -0.169673D-02
     36  0.217524D-04 -0.206306D-04 -0.169624D-02  0.455557D-02 -0.711171D-02
     37 -0.123078D-04  0.778020D-05  0.670228D-02  0.552249D-03  0.455541D-02
     38  0.121260D-04 -0.111482D-04 -0.229655D-02 -0.159521D-02 -0.859573D-03
               26            27            28            29            30 
     26  0.116842D-01
     27  0.582059D-02  0.184545D-01
     28  0.441329D-02  0.669826D-02  0.105369D-01
     29 -0.102707D-02  0.669955D-02 -0.161737D-02  0.105360D-01
     30 -0.243438D-02 -0.505670D-02  0.222126D-02  0.221909D-02  0.949706D-02
     31  0.624428D-02  0.638748D-02  0.431752D-02  0.319676D-03 -0.175029D-02
     32 -0.368372D-02 -0.135502D-02  0.195328D-02 -0.558118D-02 -0.227288D-02
     33 -0.221533D-02  0.638622D-02  0.318874D-03  0.431753D-02 -0.174982D-02
     34 -0.277731D-02 -0.135370D-02 -0.557980D-02  0.195334D-02 -0.227276D-02
     35 -0.229630D-02 -0.158429D-01 -0.447393D-02 -0.702789D-02  0.434105D-02
     36 -0.859896D-03 -0.384355D-02 -0.839191D-02  0.146098D-02 -0.308737D-02
     37 -0.159463D-02 -0.617890D-02  0.289108D-02 -0.407600D-02  0.499398D-02
     38 -0.158227D-03  0.582041D-02 -0.102690D-02  0.441287D-02 -0.243445D-02
               31            32            33            34            35 
     31  0.176615D-01
     32  0.532381D-02  0.970074D-02
     33 -0.132399D-01 -0.626159D-02  0.176600D-01
     34 -0.626489D-02 -0.284828D-02  0.532777D-02  0.969732D-02
     35  0.438149D-02  0.486188D-02 -0.153473D-01 -0.253876D-02  0.198995D-01
     36  0.649425D-02  0.148518D-02 -0.915448D-02  0.177472D-02  0.829550D-02
     37 -0.432746D-02  0.600068D-03  0.505420D-04 -0.799452D-02  0.390695D-02
     38 -0.221470D-02 -0.277663D-02  0.624333D-02 -0.368103D-02 -0.769704D-02
               36            37            38 
     36  0.129379D-01
     37 -0.535056D-02  0.139519D-01
     38 -0.708147D-03  0.469440D-02  0.116833D-01
 Leave Link  716 at Tue Nov 24 09:48:04 2015, MaxMem=    33554432 cpu:         0.0
 (Enter /home/Applications/g09/g09/l103.exe)

 GradGradGradGradGradGradGradGradGradGradGradGradGradGradGradGradGradGrad
 Berny optimization.
 Red2BG is reusing G-inverse.
 Internal  Forces:  Max     0.000092781 RMS     0.000029614
 Search for a local minimum.
 Step number   1 out of a maximum of    2
 All quantities printed in internal units (Hartrees-Bohrs-Radians)
 Second derivative matrix not updated -- analytic derivatives used.
 ITU=  0
     Eigenvalues ---    0.01432   0.01803   0.02694   0.03560   0.05986
     Eigenvalues ---    0.06595   0.08098   0.08907   0.09989   0.10168
     Eigenvalues ---    0.10689   0.19556   0.33669   0.33710   0.34338
     Eigenvalues ---    0.34755   0.51436   0.58081   0.59197   0.64836
     Eigenvalues ---    0.76610
 Angle between quadratic step and forces=  54.70 degrees.
 Linear search not attempted -- first point.
 Iteration  1 RMS(Cart)=  0.00016486 RMS(Int)=  0.00000004
 Iteration  2 RMS(Cart)=  0.00000003 RMS(Int)=  0.00000002
 ITry= 1 IFail=0 DXMaxC= 5.12D-04 DCOld= 1.00D+10 DXMaxT= 3.00D-01 DXLimC= 3.00D+00 Rises=F
 Variable       Old X    -DE/DX   Delta X   Delta X   Delta X     New X
                                 (Linear)    (Quad)   (Total)
    R1        2.58945  -0.00006   0.00000  -0.00008  -0.00008   2.58936
    R2        2.69057  -0.00005   0.00000  -0.00012  -0.00012   2.69045
    R3        2.04231   0.00009   0.00000   0.00029   0.00029   2.04260
    R4        2.57733   0.00001   0.00000   0.00003   0.00003   2.57736
    R5        2.04342   0.00003   0.00000   0.00007   0.00007   2.04350
    R6        2.57736   0.00001   0.00000   0.00000   0.00000   2.57736
    R7        2.58946  -0.00008   0.00000  -0.00010  -0.00010   2.58936
    R8        2.04356  -0.00002   0.00000  -0.00007  -0.00007   2.04350
    R9        2.04250   0.00003   0.00000   0.00010   0.00010   2.04260
    A1        1.83874   0.00002   0.00000   0.00007   0.00007   1.83880
    A2        2.23580  -0.00002   0.00000  -0.00019  -0.00019   2.23560
    A3        2.20865   0.00000   0.00000   0.00012   0.00012   2.20878
    A4        1.96616  -0.00003   0.00000  -0.00010  -0.00010   1.96606
    A5        2.32267   0.00000   0.00000  -0.00004  -0.00004   2.32263
    A6        1.99436   0.00003   0.00000   0.00013   0.00013   1.99450
    A7        1.81500   0.00001   0.00000   0.00005   0.00005   1.81505
    A8        1.96612  -0.00002   0.00000  -0.00006  -0.00006   1.96606
    A9        1.99411   0.00005   0.00000   0.00039   0.00039   1.99450
   A10        2.32296  -0.00003   0.00000  -0.00033  -0.00033   2.32263
   A11        1.83876   0.00002   0.00000   0.00004   0.00004   1.83880
   A12        2.20879  -0.00001   0.00000  -0.00001  -0.00001   2.20878
   A13        2.23563  -0.00001   0.00000  -0.00003  -0.00003   2.23560
    D1        0.00008  -0.00001   0.00000  -0.00008  -0.00008   0.00000
    D2        3.14150   0.00000   0.00000   0.00009   0.00009   3.14159
    D3       -3.14139  -0.00001   0.00000  -0.00020  -0.00020   3.14159
    D4        0.00002   0.00000   0.00000  -0.00002  -0.00002   0.00000
    D5       -0.00015   0.00001   0.00000   0.00015   0.00015   0.00000
    D6       -3.14111  -0.00001   0.00000  -0.00048  -0.00048  -3.14159
    D7        3.14132   0.00001   0.00000   0.00027   0.00027   3.14159
    D8        0.00037  -0.00001   0.00000  -0.00037  -0.00037   0.00000
    D9        0.00002   0.00000   0.00000  -0.00002  -0.00002   0.00000
   D10       -3.14143  -0.00001   0.00000  -0.00016  -0.00016  -3.14159
   D11       -0.00013   0.00001   0.00000   0.00013   0.00013   0.00000
   D12        3.14148   0.00001   0.00000   0.00011   0.00011   3.14159
   D13        0.00018  -0.00001   0.00000  -0.00018  -0.00018   0.00000
   D14        3.14112   0.00001   0.00000   0.00047   0.00047   3.14159
   D15       -3.14143  -0.00001   0.00000  -0.00016  -0.00016  -3.14159
   D16       -0.00049   0.00001   0.00000   0.00049   0.00049   0.00000
         Item               Value     Threshold  Converged?
 Maximum Force            0.000093     0.000450     YES
 RMS     Force            0.000030     0.000300     YES
 Maximum Displacement     0.000512     0.001800     YES
 RMS     Displacement     0.000165     0.001200     YES
 Predicted change in Energy=-6.654856D-08
 Optimization completed.
    -- Stationary point found.
                           ----------------------------
                           !   Optimized Parameters   !
                           ! (Angstroms and Degrees)  !
 --------------------------                            --------------------------
 ! Name  Definition              Value          Derivative Info.                !
 --------------------------------------------------------------------------------
 ! R1    R(1,2)                  1.3703         -DE/DX =   -0.0001              !
 ! R2    R(1,5)                  1.4238         -DE/DX =    0.0                 !
 ! R3    R(1,9)                  1.0807         -DE/DX =    0.0001              !
 ! R4    R(2,3)                  1.3639         -DE/DX =    0.0                 !
 ! R5    R(2,8)                  1.0813         -DE/DX =    0.0                 !
 ! R6    R(3,4)                  1.3639         -DE/DX =    0.0                 !
 ! R7    R(4,5)                  1.3703         -DE/DX =   -0.0001              !
 ! R8    R(4,7)                  1.0814         -DE/DX =    0.0                 !
 ! R9    R(5,6)                  1.0808         -DE/DX =    0.0                 !
 ! A1    A(2,1,5)              105.3518         -DE/DX =    0.0                 !
 ! A2    A(2,1,9)              128.1016         -DE/DX =    0.0                 !
 ! A3    A(5,1,9)              126.5466         -DE/DX =    0.0                 !
 ! A4    A(1,2,3)              112.6524         -DE/DX =    0.0                 !
 ! A5    A(1,2,8)              133.0789         -DE/DX =    0.0                 !
 ! A6    A(3,2,8)              114.2687         -DE/DX =    0.0                 !
 ! A7    A(2,3,4)              103.9921         -DE/DX =    0.0                 !
 ! A8    A(3,4,5)              112.6504         -DE/DX =    0.0                 !
 ! A9    A(3,4,7)              114.2539         -DE/DX =    0.0001              !
 ! A10   A(5,4,7)              133.0958         -DE/DX =    0.0                 !
 ! A11   A(1,5,4)              105.3534         -DE/DX =    0.0                 !
 ! A12   A(1,5,6)              126.5545         -DE/DX =    0.0                 !
 ! A13   A(4,5,6)              128.0922         -DE/DX =    0.0                 !
 ! D1    D(5,1,2,3)              0.0048         -DE/DX =    0.0                 !
 ! D2    D(5,1,2,8)            179.9946         -DE/DX =    0.0                 !
 ! D3    D(9,1,2,3)            180.0116         -DE/DX =    0.0                 !
 ! D4    D(9,1,2,8)              0.0014         -DE/DX =    0.0                 !
 ! D5    D(2,1,5,4)             -0.0087         -DE/DX =    0.0                 !
 ! D6    D(2,1,5,6)           -179.9722         -DE/DX =    0.0                 !
 ! D7    D(9,1,5,4)            179.9846         -DE/DX =    0.0                 !
 ! D8    D(9,1,5,6)              0.0211         -DE/DX =    0.0                 !
 ! D9    D(1,2,3,4)              0.0012         -DE/DX =    0.0                 !
 ! D10   D(8,2,3,4)           -179.9906         -DE/DX =    0.0                 !
 ! D11   D(2,3,4,5)             -0.0072         -DE/DX =    0.0                 !
 ! D12   D(2,3,4,7)            179.9936         -DE/DX =    0.0                 !
 ! D13   D(3,4,5,1)              0.0102         -DE/DX =    0.0                 !
 ! D14   D(3,4,5,6)            179.9729         -DE/DX =    0.0                 !
 ! D15   D(7,4,5,1)           -179.9909         -DE/DX =    0.0                 !
 ! D16   D(7,4,5,6)             -0.0281         -DE/DX =    0.0                 !
 --------------------------------------------------------------------------------
 GradGradGradGradGradGradGradGradGradGradGradGradGradGradGradGradGradGrad

 Leave Link  103 at Tue Nov 24 09:48:04 2015, MaxMem=    33554432 cpu:         0.0
 (Enter /home/Applications/g09/g09/l9999.exe)
 1\1\GINC-DUSTIN-DESKTOP\Freq\RAM1\ZDO\C4H4O1\DUSTIN\24-Nov-2015\0\\#P 
 Geom=AllCheck Guess=TCheck SCRF=Check GenChk RAM1/ZDO Freq\\AM1-Repara
 m Input\\0,1\C,0.972740442,-0.7046491516,-0.01663029\C,-0.3496889481,-
 1.0635185504,-0.0094729801\O,-1.1862521687,0.0136344265,-0.0042024366\
 C,-0.3433329739,1.0858469947,-0.00831182\C,0.9769503084,0.7191337336,-
 0.015728277\H,1.8470659641,1.3603028865,-0.0205949614\H,-0.8438862349,
 2.0444286086,-0.0050937085\H,-0.855611561,-2.0191952149,-0.0073417781\
 H,1.8390621721,-1.350768733,-0.0219927484\\Version=ES64L-G09RevD.01\St
 ate=1-A\HF=-3.6962856\RMSD=8.076e-10\RMSF=5.123e-05\ZeroPoint=0.072003
 1\Thermal=0.075685\Dipole=0.1193188,-0.0002472,-0.0010954\DipoleDeriv=
 -0.5276735,0.1397327,0.0011406,0.2244445,-0.2764284,-0.0011448,0.00115
 88,-0.0007815,-0.3500369,0.4621759,-0.1675532,-0.0035855,-0.4526933,-0
 .416273,0.0024269,-0.0036376,0.0008006,-0.150587,-0.9900805,0.003235,0
 .0052342,0.0032813,0.1178599,-0.0000835,0.0052809,0.0000616,-0.0421164
 ,0.4657027,0.1624892,-0.0032258,0.4474806,-0.4198746,-0.0025432,-0.003
 1683,-0.0010159,-0.1506321,-0.5297564,-0.1382788,0.0009257,-0.2229501,
 -0.2742748,0.001244,0.0007991,0.0008531,-0.350026,0.3518966,0.1056866,
 -0.0004268,0.1031072,0.284805,-0.0006061,-0.000366,-0.0006144,0.274422
 5,0.2079628,-0.10671,0.0001563,-0.1020951,0.3496976,0.0006173,0.000167
 8,0.0006296,0.2472934,0.2091118,0.1074655,0.0002825,0.1028829,0.348493
 2,-0.0004974,0.0002634,-0.0005415,0.2472717,0.3506596,-0.1060669,-0.00
 05012,-0.1034597,0.285993,0.0005867,-0.0004983,0.0006084,0.2744114\Pol
 ar=39.5652364,-0.0009632,39.3969578,-0.1904541,0.0187035,5.2470228\Hyp
 erPolar=20.6236092,-0.2494323,-32.9428939,0.2998666,-0.075608,-0.01639
 72,0.174748,3.4408878,-0.0107747,-0.054681\PG=C01 [X(C4H4O1)]\NImag=0\
 \0.88358733,-0.02013245,0.72869536,-0.00401294,0.00048298,0.17111213,-
 0.54048203,-0.08801668,0.00246372,0.92165879,-0.17584728,-0.10357619,0
 .00096870,0.00527726,0.79497936,0.00240479,0.00047553,-0.08961441,-0.0
 0412664,0.00035346,0.17635866,-0.07079457,-0.01140202,0.00049078,-0.26
 717327,0.27622605,0.00120609,0.67045210,0.05655901,-0.00935129,-0.0003
 2769,0.25270962,-0.38508556,-0.00158375,0.00056881,0.87249030,0.000532
 13,0.00005532,0.01851684,0.00118871,-0.00171398,-0.07809984,-0.0031685
 5,0.00043045,0.10085174,0.02033500,0.06462436,0.00000608,-0.00632419,-
 0.01475981,0.00008806,-0.27028031,-0.25336935,0.00092352,0.92158336,-0
 .01174475,0.00707877,0.00005795,0.01435800,-0.07491448,-0.00012714,-0.
 27687900,-0.38192701,0.00137617,-0.00603783,0.79489404,-0.00003799,-0.
 00036625,0.01498603,0.00010208,0.00003314,0.00999088,0.00091555,0.0012
 4848,-0.07810042,-0.00409758,0.00033647,0.17638102,-0.07147106,-0.0520
 5034,-0.00010151,0.02002214,0.01166635,-0.00002577,-0.07105723,-0.0561
 9353,0.00046708,-0.53887840,0.17842373,0.00255278,0.88367128,0.0497039
 4,-0.46869575,-0.00052709,-0.06470329,0.00739172,0.00036025,0.01176718
 ,-0.00908969,-0.00009046,0.09059840,-0.10515844,-0.00049459,0.01914797
 ,0.72847262,-0.00003987,0.00004333,-0.08472625,-0.00007180,-0.00006459
 ,0.01498735,0.00050698,0.00028767,0.01851762,0.00250824,-0.00098025,-0
 .08961801,-0.00398023,0.00017423,0.17113686,0.00337512,-0.00033946,0.0
 0000480,-0.00085679,0.00185052,0.00003465,-0.00560617,-0.00206972,0.00
 007744,-0.02303187,-0.01359847,0.00013011,-0.21026032,-0.12721807,0.00
 091045,0.23556710,-0.02155965,-0.01925255,0.00011071,-0.00187052,-0.00
 497499,0.00000484,0.00474895,0.00043844,-0.00002829,0.00471612,0.00731
 658,-0.00002330,-0.12685125,-0.13146704,0.00070835,0.14146657,0.146839
 23,-0.00000761,-0.00001258,0.00402528,0.00003338,-0.00001686,0.0048936
 7,0.00007974,0.00001048,0.00834179,0.00013426,0.00007925,0.00107424,0.
 00091705,0.00071416,-0.04628576,-0.00114376,-0.00077664,0.02938882,-0.
 00364536,0.00213657,0.00005618,-0.00356717,-0.00383086,0.00004285,0.00
 999400,-0.02008875,-0.00006096,-0.09901914,0.11353433,0.00035639,-0.01
 187560,0.02261295,0.00010798,0.00004664,-0.00034889,-0.00000341,0.1072
 7506,-0.00097190,-0.00025509,0.00000239,-0.00307702,-0.00558029,0.0000
 1181,0.00395144,-0.04392467,-0.00004474,0.10931708,-0.23669422,-0.0006
 9417,0.00343636,-0.00181649,-0.00002265,0.00078009,0.00057384,-0.00000
 391,-0.11430518,0.28908789,0.00005506,-0.00001521,0.00635003,0.0000443
 6,0.00001580,0.00460014,-0.00004998,0.00008931,0.00081622,0.00035600,-
 0.00071947,-0.04420831,0.00009698,-0.00012777,0.00561131,-0.00000354,0
 .00000245,-0.00056273,-0.00049738,0.00075719,0.02693014,-0.01203599,-0
 .02256028,0.00008279,-0.10029933,-0.11435955,0.00023217,0.01008752,0.0
 1977888,-0.00003901,-0.00352799,0.00381838,0.00004700,-0.00365240,-0.0
 0211772,0.00005465,-0.00002238,-0.00084894,-0.00000062,0.00080722,0.00
 054672,-0.00000149,0.10859899,-0.00338350,-0.00167051,0.00001392,-0.11
 013563,-0.23550543,0.00047557,-0.00426793,-0.04400340,-0.00000464,0.00
 306425,-0.00562001,-0.00002340,0.00099091,-0.00024859,-0.00001023,-0.0
 0032358,-0.00021544,0.00000182,-0.00055802,-0.00116889,0.00000231,0.11
 539053,0.28785587,0.00009573,0.00012085,0.00561535,0.00023457,0.000498
 23,-0.04419017,-0.00005497,-0.00013749,0.00081315,0.00004710,-0.000027
 93,0.00460098,0.00005645,0.00000778,0.00635003,-0.00000037,0.00000435,
 -0.00004646,-0.00000203,-0.00000398,0.00050957,-0.00037237,-0.00046059
 ,0.02691053,-0.20886835,0.12774039,0.00101010,-0.02297825,0.01377732,0
 .00014379,-0.00562201,0.00210504,0.00007963,-0.00085655,-0.00187441,0.
 00003166,0.00350166,0.00020857,0.00000361,0.00078868,0.00054761,-0.000
 00903,-0.00001564,0.00032239,-0.00000001,0.00004436,-0.00077702,-0.000
 00411,0.23400609,0.12737656,-0.13297270,-0.00078187,-0.00454173,0.0072
 6584,0.00002942,-0.00471354,0.00045287,0.00002017,0.00184687,-0.004975
 18,-0.00001639,0.02142981,-0.01938832,-0.00013585,-0.00054789,0.000741
 91,0.00000428,0.00084784,-0.00022209,-0.00000462,0.00035198,0.00057638
 ,-0.00000122,-0.14204990,0.14852126,0.00101069,-0.00078397,-0.04626492
 ,0.00013162,-0.00007391,0.00107365,0.00007434,-0.00001746,0.00834296,0
 .00003433,0.00000496,0.00489352,0.00001716,-0.00001652,0.00402692,-0.0
 0000979,-0.00000247,-0.00082884,0.00000039,-0.00000195,-0.00004639,-0.
 00000311,0.00000522,-0.00056299,-0.00125563,0.00088609,0.02936608\\0.0
 0012917,-0.00012476,-0.00001017,-0.00005860,0.00000204,0.00001069,-0.0
 0003116,0.00000040,0.00000081,-0.00001757,-0.00000877,-0.00002003,0.00
 011316,0.00005539,0.00006054,-0.00002509,-0.00001910,-0.00002470,-0.00
 004427,-0.00000553,-0.00000329,0.00000073,0.00003406,-0.00000594,-0.00
 006636,0.00006628,-0.00000792\\\@


 IF I AM NOT FOR MYSELF, WHO WILL BE?
 BUT IF I AM ONLY FOR MYSELF, WHAT AM I?
 THOUGH A SEEKER SINCE MY BIRTH,
 HERE IS ALL I'VE LEARNED ON EARTH,
 THIS IS THE GIST OF WHAT I KNOW:
 GIVE ADVICE AND BUY A FOE.

 PRESSED FOR RULES AND VERITIES,
 ALL I RECOLLECT ARE THESE:
 FEED A COLD TO STARVE A FEVER,
 ARGUE WITH NO TRUE-BELIEVER.
 THINK-TOO-LONG IS NEVER-ACT,
 SCRATCH A MYTH AND FIND A FACT.

 STITCH IN TIME SAVES TWENTY STITCHES,
 GIVE THE RICH TO PLEASE THEM, RICHES.
 GIVE TO LOVE YOU HEARTH AND HALL,
 BUT DO NOT GIVE ADVICE AT ALL.

                                  -- HILLEL
 Job cpu time:       0 days  0 hours  0 minutes  0.3 seconds.
 File lengths (MBytes):  RWF=      5 Int=      0 D2E=      0 Chk=      2 Scr=      1
 Normal termination of Gaussian 09 at Tue Nov 24 09:48:04 2015.
