 Entering Gaussian System, Link 0=g09
 Input=FuranAM1Best9.com
 Output=FuranAM1Best9.log
 Initial command:
 /home/Applications/g09/g09/l1.exe "/home/Applications/g09/scratch/Gau-2463.inp" -scrdir="/home/Applications/g09/scratch/"
 Entering Link 1 = /home/Applications/g09/g09/l1.exe PID=      2466.
  
 Copyright (c) 1988,1990,1992,1993,1995,1998,2003,2009,2013,
            Gaussian, Inc.  All Rights Reserved.
  
 This is part of the Gaussian(R) 09 program.  It is based on
 the Gaussian(R) 03 system (copyright 2003, Gaussian, Inc.),
 the Gaussian(R) 98 system (copyright 1998, Gaussian, Inc.),
 the Gaussian(R) 94 system (copyright 1995, Gaussian, Inc.),
 the Gaussian 92(TM) system (copyright 1992, Gaussian, Inc.),
 the Gaussian 90(TM) system (copyright 1990, Gaussian, Inc.),
 the Gaussian 88(TM) system (copyright 1988, Gaussian, Inc.),
 the Gaussian 86(TM) system (copyright 1986, Carnegie Mellon
 University), and the Gaussian 82(TM) system (copyright 1983,
 Carnegie Mellon University). Gaussian is a federally registered
 trademark of Gaussian, Inc.
  
 This software contains proprietary and confidential information,
 including trade secrets, belonging to Gaussian, Inc.
  
 This software is provided under written license and may be
 used, copied, transmitted, or stored only in accord with that
 written license.
  
 The following legend is applicable only to US Government
 contracts under FAR:
  
                    RESTRICTED RIGHTS LEGEND
  
 Use, reproduction and disclosure by the US Government is
 subject to restrictions as set forth in subparagraphs (a)
 and (c) of the Commercial Computer Software - Restricted
 Rights clause in FAR 52.227-19.
  
 Gaussian, Inc.
 340 Quinnipiac St., Bldg. 40, Wallingford CT 06492
  
  
 ---------------------------------------------------------------
 Warning -- This program may not be used in any manner that
 competes with the business of Gaussian, Inc. or will provide
 assistance to any competitor of Gaussian, Inc.  The licensee
 of this program is prohibited from giving any competitor of
 Gaussian, Inc. access to this program.  By using this program,
 the user acknowledges that Gaussian, Inc. is engaged in the
 business of creating and licensing software in the field of
 computational chemistry and represents and warrants to the
 licensee that it is not a competitor of Gaussian, Inc. and that
 it will not use this program in any manner prohibited above.
 ---------------------------------------------------------------
  

 Cite this work as:
 Gaussian 09, Revision D.01,
 M. J. Frisch, G. W. Trucks, H. B. Schlegel, G. E. Scuseria, 
 M. A. Robb, J. R. Cheeseman, G. Scalmani, V. Barone, B. Mennucci, 
 G. A. Petersson, H. Nakatsuji, M. Caricato, X. Li, H. P. Hratchian, 
 A. F. Izmaylov, J. Bloino, G. Zheng, J. L. Sonnenberg, M. Hada, 
 M. Ehara, K. Toyota, R. Fukuda, J. Hasegawa, M. Ishida, T. Nakajima, 
 Y. Honda, O. Kitao, H. Nakai, T. Vreven, J. A. Montgomery, Jr., 
 J. E. Peralta, F. Ogliaro, M. Bearpark, J. J. Heyd, E. Brothers, 
 K. N. Kudin, V. N. Staroverov, T. Keith, R. Kobayashi, J. Normand, 
 K. Raghavachari, A. Rendell, J. C. Burant, S. S. Iyengar, J. Tomasi, 
 M. Cossi, N. Rega, J. M. Millam, M. Klene, J. E. Knox, J. B. Cross, 
 V. Bakken, C. Adamo, J. Jaramillo, R. Gomperts, R. E. Stratmann, 
 O. Yazyev, A. J. Austin, R. Cammi, C. Pomelli, J. W. Ochterski, 
 R. L. Martin, K. Morokuma, V. G. Zakrzewski, G. A. Voth, 
 P. Salvador, J. J. Dannenberg, S. Dapprich, A. D. Daniels, 
 O. Farkas, J. B. Foresman, J. V. Ortiz, J. Cioslowski, 
 and D. J. Fox, Gaussian, Inc., Wallingford CT, 2013.
 
 ******************************************
 Gaussian 09:  ES64L-G09RevD.01 24-Apr-2013
                23-Nov-2015 
 ******************************************
 -----------------------
 #P AM1(Input,print) Opt
 -----------------------
 1/14=-1,18=20,19=15,26=1,38=1/1,3;
 2/9=110,12=2,17=6,18=5,40=1/2;
 3/5=2,16=1,25=1,41=700000,71=1,135=100,136=1/1,2,3;
 4/35=1/1;
 5/5=2,35=1,38=5/2;
 6/7=2,8=2,9=2,10=2,28=1/1;
 7//1,2,3,16;
 1/14=-1,18=20,19=15,26=1/3(2);
 2/9=110/2;
 99//99;
 2/9=110/2;
 3/5=2,16=1,25=1,41=700000,71=1,135=20,136=1/1,2,3;
 4/5=5,16=3,35=1/1;
 5/5=2,35=1,38=5/2;
 7//1,2,3,16;
 1/14=-1,18=20,19=15,26=1/3(-5);
 2/9=110/2;
 6/7=2,8=2,9=2,10=2,19=2,28=1/1;
 99/9=1/99;
 Leave Link    1 at Mon Nov 23 02:20:27 2015, MaxMem=           0 cpu:         0.0
 (Enter /home/Applications/g09/g09/l101.exe)
 -----------------
 AM1-Reparam Input
 -----------------
 Symbolic Z-matrix:
 Charge =  0 Multiplicity = 1
 6                     0.93013  -0.72275   0.04899 
 6                    -0.38955  -1.11342  -0.03376 
 8                    -1.19683   0.02374  -0.02459 
 6                    -0.32448   1.0905   -0.03165 
 6                     0.99698   0.70716   0.01047 
 1                     1.81353   1.33778   0.0343 
 1                    -0.86844   2.00284   0.02296 
 1                    -0.85259  -2.01595  -0.03626 
 1                     1.83885  -1.32061  -0.01042 
 
 NAtoms=      9 NQM=        9 NQMF=       0 NMMI=      0 NMMIF=      0
                NMic=       0 NMicF=      0.
                    Isotopes and Nuclear Properties:
 (Nuclear quadrupole moments (NQMom) in fm**2, nuclear magnetic moments (NMagM)
  in nuclear magnetons)

  Atom         1           2           3           4           5           6           7           8           9
 IAtWgt=          12          12          16          12          12           1           1           1           1
 AtmWgt=  12.0000000  12.0000000  15.9949146  12.0000000  12.0000000   1.0078250   1.0078250   1.0078250   1.0078250
 NucSpn=           0           0           0           0           0           1           1           1           1
 AtZEff=   0.0000000   0.0000000   0.0000000   0.0000000   0.0000000   0.0000000   0.0000000   0.0000000   0.0000000
 NQMom=    0.0000000   0.0000000   0.0000000   0.0000000   0.0000000   0.0000000   0.0000000   0.0000000   0.0000000
 NMagM=    0.0000000   0.0000000   0.0000000   0.0000000   0.0000000   2.7928460   2.7928460   2.7928460   2.7928460
 AtZNuc=   6.0000000   6.0000000   8.0000000   6.0000000   6.0000000   1.0000000   1.0000000   1.0000000   1.0000000
 Leave Link  101 at Mon Nov 23 02:20:27 2015, MaxMem=    33554432 cpu:         0.0
 (Enter /home/Applications/g09/g09/l103.exe)

 GradGradGradGradGradGradGradGradGradGradGradGradGradGradGradGradGradGrad
 Berny optimization.
 Initialization pass.
                           ----------------------------
                           !    Initial Parameters    !
                           ! (Angstroms and Degrees)  !
 --------------------------                            --------------------------
 ! Name  Definition              Value          Derivative Info.                !
 --------------------------------------------------------------------------------
 ! R1    R(1,2)                  1.3788         estimate D2E/DX2                !
 ! R2    R(1,5)                  1.432          estimate D2E/DX2                !
 ! R3    R(1,9)                  1.0894         estimate D2E/DX2                !
 ! R4    R(2,3)                  1.3946         estimate D2E/DX2                !
 ! R5    R(2,8)                  1.0144         estimate D2E/DX2                !
 ! R6    R(3,4)                  1.378          estimate D2E/DX2                !
 ! R7    R(4,5)                  1.3766         estimate D2E/DX2                !
 ! R8    R(4,7)                  1.0636         estimate D2E/DX2                !
 ! R9    R(5,6)                  1.032          estimate D2E/DX2                !
 ! A1    A(2,1,5)              109.0263         estimate D2E/DX2                !
 ! A2    A(2,1,9)              129.7646         estimate D2E/DX2                !
 ! A3    A(5,1,9)              120.5043         estimate D2E/DX2                !
 ! A4    A(1,2,3)              108.8211         estimate D2E/DX2                !
 ! A5    A(1,2,8)              133.5632         estimate D2E/DX2                !
 ! A6    A(3,2,8)              117.4695         estimate D2E/DX2                !
 ! A7    A(2,3,4)              105.3514         estimate D2E/DX2                !
 ! A8    A(3,4,5)              113.0764         estimate D2E/DX2                !
 ! A9    A(3,4,7)              109.8771         estimate D2E/DX2                !
 ! A10   A(5,4,7)              136.7402         estimate D2E/DX2                !
 ! A11   A(1,5,4)              103.5371         estimate D2E/DX2                !
 ! A12   A(1,5,6)              130.2782         estimate D2E/DX2                !
 ! A13   A(4,5,6)              126.1639         estimate D2E/DX2                !
 ! D1    D(5,1,2,3)             -4.3956         estimate D2E/DX2                !
 ! D2    D(5,1,2,8)           -179.7402         estimate D2E/DX2                !
 ! D3    D(9,1,2,3)           -174.6168         estimate D2E/DX2                !
 ! D4    D(9,1,2,8)             10.0387         estimate D2E/DX2                !
 ! D5    D(2,1,5,4)              2.7417         estimate D2E/DX2                !
 ! D6    D(2,1,5,6)           -178.8691         estimate D2E/DX2                !
 ! D7    D(9,1,5,4)            174.0261         estimate D2E/DX2                !
 ! D8    D(9,1,5,6)             -7.5847         estimate D2E/DX2                !
 ! D9    D(1,2,3,4)              4.1719         estimate D2E/DX2                !
 ! D10   D(8,2,3,4)           -179.6288         estimate D2E/DX2                !
 ! D11   D(2,3,4,5)             -2.502          estimate D2E/DX2                !
 ! D12   D(2,3,4,7)           -177.2351         estimate D2E/DX2                !
 ! D13   D(3,4,5,1)             -0.0978         estimate D2E/DX2                !
 ! D14   D(3,4,5,6)           -178.5756         estimate D2E/DX2                !
 ! D15   D(7,4,5,1)            172.6656         estimate D2E/DX2                !
 ! D16   D(7,4,5,6)             -5.8122         estimate D2E/DX2                !
 --------------------------------------------------------------------------------
 Trust Radius=3.00D-01 FncErr=1.00D-07 GrdErr=1.00D-07
 Number of steps in this run=     48 maximum allowed number of steps=    100.
 GradGradGradGradGradGradGradGradGradGradGradGradGradGradGradGradGradGrad

 Leave Link  103 at Mon Nov 23 02:20:27 2015, MaxMem=    33554432 cpu:         0.0
 (Enter /home/Applications/g09/g09/l202.exe)
                          Input orientation:                          
 ---------------------------------------------------------------------
 Center     Atomic      Atomic             Coordinates (Angstroms)
 Number     Number       Type             X           Y           Z
 ---------------------------------------------------------------------
      1          6           0        0.930127   -0.722747    0.048993
      2          6           0       -0.389551   -1.113416   -0.033759
      3          8           0       -1.196827    0.023741   -0.024592
      4          6           0       -0.324479    1.090499   -0.031649
      5          6           0        0.996979    0.707159    0.010467
      6          1           0        1.813532    1.337777    0.034303
      7          1           0       -0.868438    2.002840    0.022961
      8          1           0       -0.852587   -2.015952   -0.036262
      9          1           0        1.838846   -1.320608   -0.010419
 ---------------------------------------------------------------------
                    Distance matrix (angstroms):
                    1          2          3          4          5
     1  C    0.000000
     2  C    1.378775   0.000000
     3  O    2.255348   1.394598   0.000000
     4  C    2.206445   2.204876   1.378047   0.000000
     5  C    1.431986   2.288868   2.298059   1.376581   0.000000
     6  H    2.241959   3.296446   3.285182   2.153274   1.031991
     7  H    3.265630   3.153348   2.006722   1.063598   2.271283
     8  H    2.204023   1.014386   2.068571   3.151025   3.292174
     9  H    1.089375   2.238130   3.320058   3.239423   2.195681
                    6          7          8          9
     6  H    0.000000
     7  H    2.763223   0.000000
     8  H    4.284935   4.019260   0.000000
     9  H    2.658882   4.286701   2.779925   0.000000
 Stoichiometry    C4H4O
 Framework group  C1[X(C4H4O)]
 Deg. of freedom    21
 Full point group                 C1      NOp   1
 Largest Abelian subgroup         C1      NOp   1
 Largest concise Abelian subgroup C1      NOp   1
                         Standard orientation:                         
 ---------------------------------------------------------------------
 Center     Atomic      Atomic             Coordinates (Angstroms)
 Number     Number       Type             X           Y           Z
 ---------------------------------------------------------------------
      1          6           0       -0.155438    1.175901    0.033225
      2          6           0        1.055187    0.518049   -0.018130
      3          8           0        0.821790   -0.856600    0.009622
      4          6           0       -0.549047   -0.994535   -0.018526
      5          6           0       -1.213006    0.211289   -0.007498
      6          1           0       -2.236566    0.342863   -0.003252
      7          1           0       -0.810435   -2.023330    0.048529
      8          1           0        2.020698    0.829000   -0.009288
      9          1           0       -0.374193    2.240037   -0.047393
 ---------------------------------------------------------------------
 Rotational constants (GHZ):      9.5462781      8.9139731      4.6119485
 Leave Link  202 at Mon Nov 23 02:20:27 2015, MaxMem=    33554432 cpu:         0.0
 (Enter /home/Applications/g09/g09/l301.exe)

 Semi-emprical parameters in input format:
 Method=8 CoreType=1 PeptideFC=0.0125750000 RIJScale=0.5666730000
 ****
 H       
 PQN=1 NValence=1 F0ss=0.4322380000 ZetaOverlap=1.1880780000 U=-0.4188110000
 Beta=-0.2156480000 CoreKO=1.1385450000 KON=0,0,0,1.0589200000 KON=1,0,1,1.1290450000
 KON=0,1,1,1.1706660000 KON=2,1,1,1.0589200000 EISol=-0.4188110042 EHeat=0.0830298228
 Alpha=1.5252600000
 GCore=0.0084690000,1.3383940000,2.2676710000
 GCore=0.0003530000,1.3533660000,3.6667160000
 GCore=-0.0011710000,0.6115380000,4.3212930000
 ****
 C       
 PQN=2,2 NValence=4 F0ss=0.4466820000 F0sp=0.4066640000 F0pp=0.3768030000 F2pp=0.1898720000
 G1sp=0.2679030000
 ZetaOverlap=1.8086650000,1.7840750000
 U=-1.9120180000,-1.5956620000
 Beta=-0.5629500000,-0.3031680000 DDN=0,1,0.7632320000 DDN=1,1,0.7847580000
 CoreKO=1.1124280000 KON=0,0,0,1.0889370000 KON=1,0,1,0.8219700000 KON=0,1,1,0.9893020000
 KON=2,1,1,0.7783930000 EISol=-4.4398989268 EHeat=0.2723305520 Alpha=1.3702060000
 DipHyp=1.5263761812
 GCore=0.0008320000,1.4654240000,2.8806590000
 GCore=0.0027890000,1.3245690000,3.2438410000
 GCore=-0.0012930000,1.2846020000,4.0922960000
 GCore=-0.0000880000,1.4958780000,4.9512050000
 ****
 O       
 PQN=2,2 NValence=6 F0ss=0.5666750000 F0sp=0.5060470000 F0pp=0.4958710000 F2pp=0.2150590000
 G1sp=0.4181060000
 ZetaOverlap=3.3086090000,2.5960610000
 U=-3.8586440000,-2.8743270000
 Beta=-1.1627760000,-1.1056560000 DDN=0,1,0.4676820000 DDN=1,1,0.4852320000
 CoreKO=1.0326690000 KON=0,0,0,0.8822960000 KON=1,0,1,0.5019540000 KON=0,1,1,0.8822960000
 KON=2,1,1,0.5406950000 EISol=-11.6164441184 EHeat=0.0949133088 Alpha=2.2592050000
 DipHyp=0.9353101877
 GCore=0.0202690000,1.4001430000,1.6127490000
 GCore=0.0056550000,2.0844870000,2.7600040000
 ****
 
 Standard basis: VSTO-6G (5D, 7F)
 Ernie: Thresh=  0.10000D-02 Tol=  0.10000D-05 Strict=F.
  NNHCO=     0 NNPyr=     0 NCTC=     0               EPep=         0.000000000
    EC=        67.627512148  ECS=         1.920143181   EG=         0.360139345
   EHC=         0.000000000  EAt=       -31.051283842  AtH=         1.516354808
 EPDDG=         0.000000000  ECC=        69.907794673 EAtT=        32.567638650
 There are    24 symmetry adapted cartesian basis functions of A   symmetry.
 There are    24 symmetry adapted basis functions of A   symmetry.
    24 basis functions,   144 primitive gaussians,    24 cartesian basis functions
    13 alpha electrons       13 beta electrons
       nuclear repulsion energy       102.4754333235 Hartrees.
 IExCor=    0 DFT=F Ex=HF Corr=None ExCW=0 ScaHFX=  1.000000
 ScaDFX=  1.000000  1.000000  1.000000  1.000000 ScalE2=  1.000000  1.000000
 IRadAn=      0 IRanWt=     -1 IRanGd=            0 ICorTp=0 IEmpDi=  4
 Integral buffers will be    131072 words long.
 Regular integral format.
 Two-electron integral symmetry is turned off.
 Leave Link  301 at Mon Nov 23 02:20:27 2015, MaxMem=    33554432 cpu:         0.0
 (Enter /home/Applications/g09/g09/l302.exe)
 Do NDO integrals.
 NPDir=0 NMtPBC=     1 NCelOv=     1 NCel=       1 NClECP=     1 NCelD=      1
         NCelK=      1 NCelE2=     1 NClLst=     1 CellRange=     0.0.
 One-electron integrals computed using PRISM.
 NBasis=    24 RedAO= F EigKep=  0.00D+00  NBF=    24
 NBsUse=    24 1.00D-04 EigRej=  0.00D+00 NBFU=    24
 Leave Link  302 at Mon Nov 23 02:20:27 2015, MaxMem=    33554432 cpu:         0.0
 (Enter /home/Applications/g09/g09/l303.exe)
 DipDrv:  MaxL=1.
 Leave Link  303 at Mon Nov 23 02:20:27 2015, MaxMem=    33554432 cpu:         0.0
 (Enter /home/Applications/g09/g09/l401.exe)
 Simple Huckel Guess.
 JPrj=0 DoOrth=F DoCkMO=F.
 Leave Link  401 at Mon Nov 23 02:20:27 2015, MaxMem=    33554432 cpu:         0.0
 (Enter /home/Applications/g09/g09/l502.exe)
 Closed shell SCF:
 Using DIIS extrapolation, IDIIS=  1040.
 Overlap will be assumed to be unity.
 Two-electron integral symmetry not used.
 Keep J ints in memory in canonical form, NReq=888082.
 IVT=       79475 IEndB=       79475 NGot=    33554432 MDV=    33473473
 LenX=    33473473 LenY=    33472456
 Requested convergence on RMS density matrix=1.00D-08 within 128 cycles.
 Requested convergence on MAX density matrix=1.00D-06.
 Requested convergence on             energy=1.00D-06.
 No special actions if energy rises.
 FoFCou: FMM=F IPFlag=           0 FMFlag=           0 FMFlg1=           0
         NFxFlg=           0 DoJE=F BraDBF=F KetDBF=F FulRan=T
         wScrn=  0.000000 ICntrl=     600 IOpCl=  2 I1Cent=           0 NGrid=           0
         NMat0=    1 NMatS0=     54 NMatT0=    0 NMatD0=    1 NMtDS0=    0 NMtDT0=    0
 Symmetry not used in FoFCou.

 Cycle   1  Pass 1  IDiag  1:
 E= -1.78333016592777    
 DIIS: error= 1.11D-01 at cycle   1 NSaved=   1.
 NSaved= 1 IEnMin= 1 EnMin= -1.78333016592777     IErMin= 1 ErrMin= 1.11D-01
 ErrMax= 1.11D-01  0.00D+00 EMaxC= 1.00D-01 BMatC= 2.16D-01 BMatP= 2.16D-01
 IDIUse=3 WtCom= 0.00D+00 WtEn= 1.00D+00
 Coeff-Com:  0.100D+01
 Coeff-En:   0.100D+01
 Coeff:      0.100D+01
 GapD=    2.000 DampG=2.000 DampE=0.250 DampFc=0.5000 IDamp=-1.
 Damping current iteration by 5.00D-01
 RMSDP=2.56D-02 MaxDP=2.08D-01              OVMax= 0.00D+00

 Cycle   2  Pass 1  IDiag  1:
 E= -2.00499658576533     Delta-E=       -0.221666419838 Rises=F Damp=T
 DIIS: error= 6.60D-02 at cycle   2 NSaved=   2.
 NSaved= 2 IEnMin= 2 EnMin= -2.00499658576533     IErMin= 2 ErrMin= 6.60D-02
 ErrMax= 6.60D-02  0.00D+00 EMaxC= 1.00D-01 BMatC= 8.50D-02 BMatP= 2.16D-01
 IDIUse=3 WtCom= 3.40D-01 WtEn= 6.60D-01
 Coeff-Com: -0.160D+01 0.260D+01
 Coeff-En:   0.000D+00 0.100D+01
 Coeff:     -0.545D+00 0.154D+01
 RMSDP=1.85D-02 MaxDP=1.27D-01 DE=-2.22D-01 OVMax= 0.00D+00

 Cycle   3  Pass 1  IDiag  1:
 E= -2.32049282778603     Delta-E=       -0.315496242021 Rises=F Damp=F
 DIIS: error= 8.13D-03 at cycle   3 NSaved=   3.
 NSaved= 3 IEnMin= 3 EnMin= -2.32049282778603     IErMin= 3 ErrMin= 8.13D-03
 ErrMax= 8.13D-03  0.00D+00 EMaxC= 1.00D-01 BMatC= 3.48D-03 BMatP= 8.50D-02
 IDIUse=3 WtCom= 9.19D-01 WtEn= 8.13D-02
 Coeff-Com:  0.156D+01-0.286D+01 0.230D+01
 Coeff-En:   0.000D+00 0.000D+00 0.100D+01
 Coeff:      0.143D+01-0.263D+01 0.219D+01
 RMSDP=6.36D-03 MaxDP=3.73D-02 DE=-3.15D-01 OVMax= 0.00D+00

 Cycle   4  Pass 1  IDiag  3:
 E= -2.33422130084692     Delta-E=       -0.013728473061 Rises=F Damp=F
 DIIS: error= 1.48D-03 at cycle   4 NSaved=   4.
 NSaved= 4 IEnMin= 4 EnMin= -2.33422130084692     IErMin= 4 ErrMin= 1.48D-03
 ErrMax= 1.48D-03  0.00D+00 EMaxC= 1.00D-01 BMatC= 7.30D-05 BMatP= 3.48D-03
 IDIUse=3 WtCom= 9.85D-01 WtEn= 1.48D-02
 Coeff-Com: -0.194D+00 0.373D+00-0.508D+00 0.133D+01
 Coeff-En:   0.000D+00 0.000D+00 0.000D+00 0.100D+01
 Coeff:     -0.191D+00 0.367D+00-0.500D+00 0.132D+01
 Gap=     0.379 Goal=   None    Shift=    0.000
 RMSDP=1.20D-03 MaxDP=7.17D-03 DE=-1.37D-02 OVMax= 7.33D-03

 Cycle   5  Pass 1  IDiag  3:
 E= -2.33458311366344     Delta-E=       -0.000361812817 Rises=F Damp=F
 DIIS: error= 1.91D-04 at cycle   5 NSaved=   5.
 NSaved= 5 IEnMin= 5 EnMin= -2.33458311366344     IErMin= 5 ErrMin= 1.91D-04
 ErrMax= 1.91D-04  0.00D+00 EMaxC= 1.00D-01 BMatC= 1.60D-06 BMatP= 7.30D-05
 IDIUse=3 WtCom= 9.98D-01 WtEn= 1.91D-03
 Coeff-Com: -0.284D-02 0.109D-02 0.568D-01-0.354D+00 0.130D+01
 Coeff-En:   0.000D+00 0.000D+00 0.000D+00 0.000D+00 0.100D+01
 Coeff:     -0.284D-02 0.109D-02 0.567D-01-0.353D+00 0.130D+01
 Gap=     0.379 Goal=   None    Shift=    0.000
 RMSDP=1.68D-04 MaxDP=1.48D-03 DE=-3.62D-04 OVMax= 1.79D-03

 Cycle   6  Pass 1  IDiag  3:
 E= -2.33459192478991     Delta-E=       -0.000008811126 Rises=F Damp=F
 DIIS: error= 7.50D-05 at cycle   6 NSaved=   6.
 NSaved= 6 IEnMin= 6 EnMin= -2.33459192478991     IErMin= 6 ErrMin= 7.50D-05
 ErrMax= 7.50D-05  0.00D+00 EMaxC= 1.00D-01 BMatC= 1.80D-07 BMatP= 1.60D-06
 IDIUse=1 WtCom= 1.00D+00 WtEn= 0.00D+00
 Coeff-Com:  0.157D-01-0.289D-01 0.218D-01 0.777D-02-0.447D+00 0.143D+01
 Coeff:      0.157D-01-0.289D-01 0.218D-01 0.777D-02-0.447D+00 0.143D+01
 Gap=     0.379 Goal=   None    Shift=    0.000
 RMSDP=7.62D-05 MaxDP=6.39D-04 DE=-8.81D-06 OVMax= 9.26D-04

 Cycle   7  Pass 1  IDiag  3:
 E= -2.33459324733589     Delta-E=       -0.000001322546 Rises=F Damp=F
 DIIS: error= 3.02D-05 at cycle   7 NSaved=   7.
 NSaved= 7 IEnMin= 7 EnMin= -2.33459324733589     IErMin= 7 ErrMin= 3.02D-05
 ErrMax= 3.02D-05  0.00D+00 EMaxC= 1.00D-01 BMatC= 2.09D-08 BMatP= 1.80D-07
 IDIUse=1 WtCom= 1.00D+00 WtEn= 0.00D+00
 Coeff-Com: -0.154D-02 0.317D-02-0.530D-02 0.852D-02 0.170D+00-0.834D+00
 Coeff-Com:  0.166D+01
 Coeff:     -0.154D-02 0.317D-02-0.530D-02 0.852D-02 0.170D+00-0.834D+00
 Coeff:      0.166D+01
 Gap=     0.379 Goal=   None    Shift=    0.000
 RMSDP=3.38D-05 MaxDP=2.67D-04 DE=-1.32D-06 OVMax= 4.20D-04

 Cycle   8  Pass 1  IDiag  3:
 E= -2.33459344345761     Delta-E=       -0.000000196122 Rises=F Damp=F
 DIIS: error= 1.10D-05 at cycle   8 NSaved=   8.
 NSaved= 8 IEnMin= 8 EnMin= -2.33459344345761     IErMin= 8 ErrMin= 1.10D-05
 ErrMax= 1.10D-05  0.00D+00 EMaxC= 1.00D-01 BMatC= 1.79D-09 BMatP= 2.09D-08
 IDIUse=1 WtCom= 1.00D+00 WtEn= 0.00D+00
 Coeff-Com:  0.159D-02-0.317D-02 0.487D-02-0.987D-02-0.840D-01 0.452D+00
 Coeff-Com: -0.108D+01 0.172D+01
 Coeff:      0.159D-02-0.317D-02 0.487D-02-0.987D-02-0.840D-01 0.452D+00
 Coeff:     -0.108D+01 0.172D+01
 Gap=     0.379 Goal=   None    Shift=    0.000
 RMSDP=1.20D-05 MaxDP=1.08D-04 DE=-1.96D-07 OVMax= 1.42D-04

 Cycle   9  Pass 1  IDiag  3:
 E= -2.33459346361275     Delta-E=       -0.000000020155 Rises=F Damp=F
 DIIS: error= 2.62D-06 at cycle   9 NSaved=   9.
 NSaved= 9 IEnMin= 9 EnMin= -2.33459346361275     IErMin= 9 ErrMin= 2.62D-06
 ErrMax= 2.62D-06  0.00D+00 EMaxC= 1.00D-01 BMatC= 1.34D-10 BMatP= 1.79D-09
 IDIUse=1 WtCom= 1.00D+00 WtEn= 0.00D+00
 Coeff-Com: -0.685D-03 0.135D-02-0.203D-02 0.425D-02 0.252D-01-0.138D+00
 Coeff-Com:  0.341D+00-0.805D+00 0.157D+01
 Coeff:     -0.685D-03 0.135D-02-0.203D-02 0.425D-02 0.252D-01-0.138D+00
 Coeff:      0.341D+00-0.805D+00 0.157D+01
 Gap=     0.379 Goal=   None    Shift=    0.000
 RMSDP=3.56D-06 MaxDP=3.18D-05 DE=-2.02D-08 OVMax= 4.22D-05

 Cycle  10  Pass 1  IDiag  3:
 E= -2.33459346496457     Delta-E=       -0.000000001352 Rises=F Damp=F
 DIIS: error= 4.80D-07 at cycle  10 NSaved=  10.
 NSaved=10 IEnMin=10 EnMin= -2.33459346496457     IErMin=10 ErrMin= 4.80D-07
 ErrMax= 4.80D-07  0.00D+00 EMaxC= 1.00D-01 BMatC= 5.77D-12 BMatP= 1.34D-10
 IDIUse=1 WtCom= 1.00D+00 WtEn= 0.00D+00
 Coeff-Com:  0.468D-04-0.104D-03 0.265D-03-0.838D-03-0.379D-03 0.581D-02
 Coeff-Com: -0.217D-01 0.140D+00-0.484D+00 0.136D+01
 Coeff:      0.468D-04-0.104D-03 0.265D-03-0.838D-03-0.379D-03 0.581D-02
 Coeff:     -0.217D-01 0.140D+00-0.484D+00 0.136D+01
 Gap=     0.379 Goal=   None    Shift=    0.000
 RMSDP=3.44D-07 MaxDP=2.03D-06 DE=-1.35D-09 OVMax= 2.54D-06

 Cycle  11  Pass 1  IDiag  3:
 E= -2.33459346499437     Delta-E=       -0.000000000030 Rises=F Damp=F
 DIIS: error= 1.02D-07 at cycle  11 NSaved=  11.
 NSaved=11 IEnMin=11 EnMin= -2.33459346499437     IErMin=11 ErrMin= 1.02D-07
 ErrMax= 1.02D-07  0.00D+00 EMaxC= 1.00D-01 BMatC= 2.63D-13 BMatP= 5.77D-12
 IDIUse=1 WtCom= 1.00D+00 WtEn= 0.00D+00
 Coeff-Com: -0.113D-04 0.232D-04-0.452D-04 0.140D-03-0.549D-03 0.233D-02
 Coeff-Com: -0.437D-02-0.163D-01 0.896D-01-0.424D+00 0.135D+01
 Coeff:     -0.113D-04 0.232D-04-0.452D-04 0.140D-03-0.549D-03 0.233D-02
 Coeff:     -0.437D-02-0.163D-01 0.896D-01-0.424D+00 0.135D+01
 Gap=     0.379 Goal=   None    Shift=    0.000
 RMSDP=7.79D-08 MaxDP=4.59D-07 DE=-2.98D-11 OVMax= 7.28D-07

 Cycle  12  Pass 1  IDiag  3:
 E= -2.33459346499541     Delta-E=       -0.000000000001 Rises=F Damp=F
 DIIS: error= 1.78D-08 at cycle  12 NSaved=  12.
 NSaved=12 IEnMin=12 EnMin= -2.33459346499541     IErMin=12 ErrMin= 1.78D-08
 ErrMax= 1.78D-08  0.00D+00 EMaxC= 1.00D-01 BMatC= 1.59D-14 BMatP= 2.63D-13
 IDIUse=1 WtCom= 1.00D+00 WtEn= 0.00D+00
 Coeff-Com:  0.559D-05-0.110D-04 0.179D-04-0.581D-04 0.391D-03-0.170D-02
 Coeff-Com:  0.361D-02 0.233D-02-0.258D-01 0.159D+00-0.693D+00 0.155D+01
 Coeff:      0.559D-05-0.110D-04 0.179D-04-0.581D-04 0.391D-03-0.170D-02
 Coeff:      0.361D-02 0.233D-02-0.258D-01 0.159D+00-0.693D+00 0.155D+01
 Gap=     0.379 Goal=   None    Shift=    0.000
 RMSDP=2.00D-08 MaxDP=1.21D-07 DE=-1.04D-12 OVMax= 1.38D-07

 Cycle  13  Pass 1  IDiag  3:
 E= -2.33459346499575     Delta-E=        0.000000000000 Rises=F Damp=F
 DIIS: error= 4.59D-09 at cycle  13 NSaved=  13.
 NSaved=13 IEnMin=13 EnMin= -2.33459346499575     IErMin=13 ErrMin= 4.59D-09
 ErrMax= 4.59D-09  0.00D+00 EMaxC= 1.00D-01 BMatC= 1.05D-15 BMatP= 1.59D-14
 IDIUse=1 WtCom= 1.00D+00 WtEn= 0.00D+00
 Coeff-Com:  0.376D-07-0.548D-08-0.138D-05 0.140D-04-0.276D-03 0.129D-02
 Coeff-Com: -0.290D-02 0.151D-02 0.684D-02-0.668D-01 0.341D+00-0.929D+00
 Coeff-Com:  0.165D+01
 Coeff:      0.376D-07-0.548D-08-0.138D-05 0.140D-04-0.276D-03 0.129D-02
 Coeff:     -0.290D-02 0.151D-02 0.684D-02-0.668D-01 0.341D+00-0.929D+00
 Coeff:      0.165D+01
 Gap=     0.379 Goal=   None    Shift=    0.000
 RMSDP=6.32D-09 MaxDP=5.05D-08 DE=-3.41D-13 OVMax= 6.13D-08

 Cycle  14  Pass 2  IDiag  1:
 SCF Done:  E(RAM1) =  -2.33459346500     A.U. after   14 cycles
            NFock= 13  Conv=0.63D-08     -V/T= 0.8797
 KE=-1.940055143459D+01 PE=-1.706521402996D+02 EE= 8.524266494574D+01
 Leave Link  502 at Mon Nov 23 02:20:27 2015, MaxMem=    33554432 cpu:         0.0
 (Enter /home/Applications/g09/g09/l601.exe)
 Copying SCF densities to generalized density rwf, IOpCl= 0 IROHF=0.

 **********************************************************************

            Population analysis using the SCF density.

 **********************************************************************

 Orbital symmetries:
       Occupied  (A) (A) (A) (A) (A) (A) (A) (A) (A) (A) (A) (A)
                 (A)
       Virtual   (A) (A) (A) (A) (A) (A) (A) (A) (A) (A) (A)
 The electronic state is 1-A.
 Alpha  occ. eigenvalues --   -1.66652  -1.22536  -1.01046  -0.80960  -0.79211
 Alpha  occ. eigenvalues --   -0.69443  -0.59580  -0.56430  -0.55786  -0.53289
 Alpha  occ. eigenvalues --   -0.51226  -0.42599  -0.39609
 Alpha virt. eigenvalues --   -0.01695   0.01011   0.10537   0.14265   0.17892
 Alpha virt. eigenvalues --    0.18980   0.19791   0.20122   0.20868   0.22054
 Alpha virt. eigenvalues --    0.22594
          Condensed to atoms (all electrons):
               1          2          3          4          5          6
     1  C    4.453261   0.000000   0.000000   0.000000   0.000000   0.000000
     2  C    0.000000   4.363145   0.000000   0.000000   0.000000   0.000000
     3  O    0.000000   0.000000   5.887531   0.000000   0.000000   0.000000
     4  C    0.000000   0.000000   0.000000   4.337545   0.000000   0.000000
     5  C    0.000000   0.000000   0.000000   0.000000   4.480672   0.000000
     6  H    0.000000   0.000000   0.000000   0.000000   0.000000   0.622304
     7  H    0.000000   0.000000   0.000000   0.000000   0.000000   0.000000
     8  H    0.000000   0.000000   0.000000   0.000000   0.000000   0.000000
     9  H    0.000000   0.000000   0.000000   0.000000   0.000000   0.000000
               7          8          9
     1  C    0.000000   0.000000   0.000000
     2  C    0.000000   0.000000   0.000000
     3  O    0.000000   0.000000   0.000000
     4  C    0.000000   0.000000   0.000000
     5  C    0.000000   0.000000   0.000000
     6  H    0.000000   0.000000   0.000000
     7  H    0.616931   0.000000   0.000000
     8  H    0.000000   0.620738   0.000000
     9  H    0.000000   0.000000   0.617873
 Mulliken charges:
               1
     1  C   -0.453261
     2  C   -0.363145
     3  O    0.112469
     4  C   -0.337545
     5  C   -0.480672
     6  H    0.377696
     7  H    0.383069
     8  H    0.379262
     9  H    0.382127
 Sum of Mulliken charges =   0.00000
 Mulliken charges with hydrogens summed into heavy atoms:
               1
     1  C   -0.071134
     2  C    0.016117
     3  O    0.112469
     4  C    0.045523
     5  C   -0.102976
 Charge=              0.0000 electrons
 Dipole moment (field-independent basis, Debye):
    X=              0.1983    Y=             -0.4143    Z=              0.0064  Tot=              0.4593
 N-N= 1.024754333235D+02 E-N=-1.706521403155D+02  KE=-1.940055143459D+01
 Leave Link  601 at Mon Nov 23 02:20:27 2015, MaxMem=    33554432 cpu:         0.0
 (Enter /home/Applications/g09/g09/l701.exe)
 Compute integral first derivatives.
 ... and contract with generalized density number  0.
 Leave Link  701 at Mon Nov 23 02:20:27 2015, MaxMem=    33554432 cpu:         0.0
 (Enter /home/Applications/g09/g09/l702.exe)
 L702 exits ... SP integral derivatives will be done elsewhere.
 Leave Link  702 at Mon Nov 23 02:20:27 2015, MaxMem=    33554432 cpu:         0.0
 (Enter /home/Applications/g09/g09/l703.exe)
 Compute integral first derivatives, UseDBF=F ICtDFT=           0.
 Integral derivatives from FoFJK, PRISM(SPDF).
 Calling FoFJK, ICntrl=      2127 FMM=F ISym2X=0 I1Cent= 0 IOpClX= 0 NMat=1 NMatS=1 NMatT=0.
 FoFJK:  IHMeth= 8 ICntrl=    2127 DoSepK=F KAlg= 0 I1Cent=   0 FoldK=F
 IRaf=         0 NMat=   1 IRICut=       1 DoRegI=T DoRafI=F ISym2E= 0.
 FoFCou: FMM=F IPFlag=           0 FMFlag=      100000 FMFlg1=         800
         NFxFlg=           0 DoJE=F BraDBF=F KetDBF=F FulRan=T
         wScrn=  0.000000 ICntrl=    2127 IOpCl=  0 I1Cent=           0 NGrid=           0
         NMat0=    1 NMatS0=      1 NMatT0=    0 NMatD0=    1 NMtDS0=    0 NMtDT0=    0
 Symmetry not used in FoFCou.
 Leave Link  703 at Mon Nov 23 02:20:27 2015, MaxMem=    33554432 cpu:         0.0
 (Enter /home/Applications/g09/g09/l716.exe)
 Dipole        = 7.80069856D-02-1.62983864D-01 2.51334543D-03
 ***** Axes restored to original set *****
 -------------------------------------------------------------------
 Center     Atomic                   Forces (Hartrees/Bohr)
 Number     Number              X              Y              Z
 -------------------------------------------------------------------
      1        6           0.026910493   -0.018475134   -0.016535750
      2        6           0.026897259    0.051689663    0.012166050
      3        8           0.004784721   -0.012114314   -0.006730291
      4        6          -0.012501910    0.009206325    0.006836099
      5        6          -0.043932508   -0.018470894    0.003068123
      6        1           0.028964393    0.014893274    0.000297439
      7        1           0.002078273    0.013292521   -0.002615795
      8        1          -0.022740584   -0.041217768   -0.001543569
      9        1          -0.010460136    0.001196326    0.005057695
 -------------------------------------------------------------------
 Cartesian Forces:  Max     0.051689663 RMS     0.020429783
 Leave Link  716 at Mon Nov 23 02:20:27 2015, MaxMem=    33554432 cpu:         0.0
 (Enter /home/Applications/g09/g09/l103.exe)

 GradGradGradGradGradGradGradGradGradGradGradGradGradGradGradGradGradGrad
 Berny optimization.
 FormGI is forming the generalized inverse of G from B-inverse, IUseBI=4.
 Internal  Forces:  Max     0.047057108 RMS     0.011198452
 Search for a local minimum.
 Step number   1 out of a maximum of   48
 All quantities printed in internal units (Hartrees-Bohrs-Radians)
 RMS Force = .11198D-01 SwitMx=.10000D-02 MixMth= 1
 Mixed Optimization -- RFO/linear search
 Second derivative matrix not updated -- first step.
 ITU=  0
     Eigenvalues ---    0.01911   0.01977   0.02088   0.02204   0.02254
     Eigenvalues ---    0.02342   0.15697   0.15915   0.15958   0.15991
     Eigenvalues ---    0.21991   0.22875   0.34885   0.38051   0.38686
     Eigenvalues ---    0.42427   0.42479   0.45246   0.45555   0.48888
     Eigenvalues ---    0.49452
 RFO step:  Lambda=-1.53371106D-02 EMin= 1.91056349D-02
 Linear search not attempted -- first point.
 Iteration  1 RMS(Cart)=  0.03905487 RMS(Int)=  0.00181646
 Iteration  2 RMS(Cart)=  0.00147343 RMS(Int)=  0.00128151
 Iteration  3 RMS(Cart)=  0.00000091 RMS(Int)=  0.00128151
 ITry= 1 IFail=0 DXMaxC= 1.11D-01 DCOld= 1.00D+10 DXMaxT= 3.00D-01 DXLimC= 3.00D+00 Rises=F
 Variable       Old X    -DE/DX   Delta X   Delta X   Delta X     New X
                                 (Linear)    (Quad)   (Total)
    R1        2.60551  -0.00421   0.00000  -0.00949  -0.00961   2.59590
    R2        2.70606   0.00678   0.00000   0.01569   0.01592   2.72198
    R3        2.05862  -0.00966   0.00000  -0.02652  -0.02652   2.03210
    R4        2.63541   0.00095   0.00000   0.00146   0.00111   2.63652
    R5        1.91691   0.04706   0.00000   0.10059   0.10059   2.01751
    R6        2.60413   0.00372   0.00000   0.00822   0.00816   2.61229
    R7        2.60136   0.00564   0.00000   0.01207   0.01236   2.61372
    R8        2.00991   0.01020   0.00000   0.02578   0.02578   2.03569
    R9        1.95018   0.03203   0.00000   0.07276   0.07276   2.02295
    A1        1.90287  -0.01163   0.00000  -0.04804  -0.05057   1.85229
    A2        2.26482   0.00142   0.00000   0.00585   0.00405   2.26887
    A3        2.10320   0.01079   0.00000   0.05944   0.05773   2.16093
    A4        1.89929   0.00778   0.00000   0.03187   0.02952   1.92881
    A5        2.33112  -0.00228   0.00000  -0.00421  -0.00490   2.32622
    A6        2.05023  -0.00528   0.00000  -0.02153  -0.02217   2.02806
    A7        1.83873   0.00484   0.00000   0.02052   0.01892   1.85765
    A8        1.97356  -0.01393   0.00000  -0.05345  -0.05438   1.91917
    A9        1.91772   0.01534   0.00000   0.07688   0.07668   1.99440
   A10        2.38657  -0.00122   0.00000  -0.01777  -0.01812   2.36845
   A11        1.80706   0.01331   0.00000   0.05928   0.05875   1.86582
   A12        2.27378  -0.01236   0.00000  -0.06172  -0.06197   2.21181
   A13        2.20198  -0.00090   0.00000   0.00368   0.00341   2.20538
    D1       -0.07672   0.00457   0.00000   0.12255   0.12089   0.04417
    D2       -3.13706   0.00111   0.00000   0.02559   0.02320  -3.11386
    D3       -3.04764  -0.00024   0.00000  -0.00099  -0.00003  -3.04766
    D4        0.17521  -0.00371   0.00000  -0.09794  -0.09771   0.07750
    D5        0.04785  -0.00302   0.00000  -0.08136  -0.08094  -0.03309
    D6       -3.12185  -0.00105   0.00000  -0.03287  -0.03387   3.12746
    D7        3.03733   0.00047   0.00000   0.02390   0.02530   3.06263
    D8       -0.13238   0.00245   0.00000   0.07239   0.07237  -0.06001
    D9        0.07281  -0.00342   0.00000  -0.10825  -0.11102  -0.03821
   D10       -3.13511  -0.00056   0.00000  -0.02868  -0.03135   3.11672
   D11       -0.04367   0.00236   0.00000   0.06112   0.05975   0.01608
   D12       -3.09334   0.00085   0.00000   0.01371   0.01140  -3.08194
   D13       -0.00171   0.00026   0.00000   0.01064   0.01211   0.01040
   D14       -3.11673  -0.00135   0.00000  -0.03372  -0.03332   3.13313
   D15        3.01358   0.00321   0.00000   0.08187   0.08153   3.09512
   D16       -0.10144   0.00160   0.00000   0.03752   0.03610  -0.06534
         Item               Value     Threshold  Converged?
 Maximum Force            0.047057     0.000450     NO 
 RMS     Force            0.011198     0.000300     NO 
 Maximum Displacement     0.110851     0.001800     NO 
 RMS     Displacement     0.038665     0.001200     NO 
 Predicted change in Energy=-8.474925D-03
 Lowest energy point so far.  Saving SCF results.
 GradGradGradGradGradGradGradGradGradGradGradGradGradGradGradGradGradGrad

 Leave Link  103 at Mon Nov 23 02:20:27 2015, MaxMem=    33554432 cpu:         0.0
 (Enter /home/Applications/g09/g09/l202.exe)
                          Input orientation:                          
 ---------------------------------------------------------------------
 Center     Atomic      Atomic             Coordinates (Angstroms)
 Number     Number       Type             X           Y           Z
 ---------------------------------------------------------------------
      1          6           0        0.955013   -0.736939    0.008651
      2          6           0       -0.367084   -1.109445   -0.009285
      3          8           0       -1.191276    0.015232   -0.057860
      4          6           0       -0.354753    1.115100   -0.019649
      5          6           0        0.964687    0.703274    0.030304
      6          1           0        1.826721    1.337293    0.059980
      7          1           0       -0.868597    2.061500    0.007480
      8          1           0       -0.860954   -2.055962   -0.006515
      9          1           0        1.843844   -1.340760   -0.033062
 ---------------------------------------------------------------------
                    Distance matrix (angstroms):
                    1          2          3          4          5
     1  C    0.000000
     2  C    1.373690   0.000000
     3  O    2.275245   1.395188   0.000000
     4  C    2.268554   2.224603   1.382367   0.000000
     5  C    1.440409   2.249696   2.264807   1.383119   0.000000
     6  H    2.250544   3.286960   3.296974   2.194206   1.070497
     7  H    3.340183   3.210403   2.072583   1.077240   2.281716
     8  H    2.244501   1.067618   2.097997   3.211237   3.308731
     9  H    1.075342   2.223123   3.324347   3.296249   2.225985
                    6          7          8          9
     6  H    0.000000
     7  H    2.791411   0.000000
     8  H    4.329226   4.117492   0.000000
     9  H    2.679724   4.351363   2.797883   0.000000
 Stoichiometry    C4H4O
 Framework group  C1[X(C4H4O)]
 Deg. of freedom    21
 Full point group                 C1      NOp   1
 RotChk:  IX=2 Diff= 1.42D+00
 Largest Abelian subgroup         C1      NOp   1
 Largest concise Abelian subgroup C1      NOp   1
                         Standard orientation:                         
 ---------------------------------------------------------------------
 Center     Atomic      Atomic             Coordinates (Angstroms)
 Number     Number       Type             X           Y           Z
 ---------------------------------------------------------------------
      1          6           0        0.966448    0.735600   -0.003606
      2          6           0        0.973450   -0.637922    0.016694
      3          8           0       -0.330182   -1.133988   -0.015131
      4          6           0       -1.167529   -0.034125   -0.005646
      5          6           0       -0.419149    1.128928    0.010236
      6          1           0       -0.800691    2.129119    0.012928
      7          1           0       -2.216516   -0.276520    0.030619
      8          1           0        1.754308   -1.365670    0.037969
      9          1           0        1.785033    1.430092   -0.066533
 ---------------------------------------------------------------------
 Rotational constants (GHZ):      9.3253351      8.9735512      4.5742928
 Leave Link  202 at Mon Nov 23 02:20:27 2015, MaxMem=    33554432 cpu:         0.0
 (Enter /home/Applications/g09/g09/l301.exe)

 Semi-emprical parameters in input format:
 Method=8 CoreType=1 PeptideFC=0.0125750000 RIJScale=0.5666730000
 ****
 H       
 PQN=1 NValence=1 F0ss=0.4322380000 ZetaOverlap=1.1880780000 U=-0.4188110000
 Beta=-0.2156480000 CoreKO=1.1385450000 KON=0,0,0,1.0589200000 KON=1,0,1,1.1290450000
 KON=0,1,1,1.1706660000 KON=2,1,1,1.0589200000 EISol=-0.4188110042 EHeat=0.0830298228
 Alpha=1.5252600000
 GCore=0.0084690000,1.3383940000,2.2676710000
 GCore=0.0003530000,1.3533660000,3.6667160000
 GCore=-0.0011710000,0.6115380000,4.3212930000
 ****
 C       
 PQN=2,2 NValence=4 F0ss=0.4466820000 F0sp=0.4066640000 F0pp=0.3768030000 F2pp=0.1898720000
 G1sp=0.2679030000
 ZetaOverlap=1.8086650000,1.7840750000
 U=-1.9120180000,-1.5956620000
 Beta=-0.5629500000,-0.3031680000 DDN=0,1,0.7632320000 DDN=1,1,0.7847580000
 CoreKO=1.1124280000 KON=0,0,0,1.0889370000 KON=1,0,1,0.8219700000 KON=0,1,1,0.9893020000
 KON=2,1,1,0.7783930000 EISol=-4.4398989268 EHeat=0.2723305520 Alpha=1.3702060000
 DipHyp=1.5263761812
 GCore=0.0008320000,1.4654240000,2.8806590000
 GCore=0.0027890000,1.3245690000,3.2438410000
 GCore=-0.0012930000,1.2846020000,4.0922960000
 GCore=-0.0000880000,1.4958780000,4.9512050000
 ****
 O       
 PQN=2,2 NValence=6 F0ss=0.5666750000 F0sp=0.5060470000 F0pp=0.4958710000 F2pp=0.2150590000
 G1sp=0.4181060000
 ZetaOverlap=3.3086090000,2.5960610000
 U=-3.8586440000,-2.8743270000
 Beta=-1.1627760000,-1.1056560000 DDN=0,1,0.4676820000 DDN=1,1,0.4852320000
 CoreKO=1.0326690000 KON=0,0,0,0.8822960000 KON=1,0,1,0.5019540000 KON=0,1,1,0.8822960000
 KON=2,1,1,0.5406950000 EISol=-11.6164441184 EHeat=0.0949133088 Alpha=2.2592050000
 DipHyp=0.9353101877
 GCore=0.0202690000,1.4001430000,1.6127490000
 GCore=0.0056550000,2.0844870000,2.7600040000
 ****
 
 Standard basis: VSTO-6G (5D, 7F)
 Ernie: Thresh=  0.10000D-02 Tol=  0.10000D-05 Strict=F.
  NNHCO=     0 NNPyr=     0 NCTC=     0               EPep=         0.000000000
    EC=        67.376942335  ECS=         1.860161705   EG=         0.357899838
   EHC=         0.000000000  EAt=       -31.051283842  AtH=         1.516354808
 EPDDG=         0.000000000  ECC=        69.595003877 EAtT=        32.567638650
 There are    24 symmetry adapted cartesian basis functions of A   symmetry.
 There are    24 symmetry adapted basis functions of A   symmetry.
    24 basis functions,   144 primitive gaussians,    24 cartesian basis functions
    13 alpha electrons       13 beta electrons
       nuclear repulsion energy       102.1626425278 Hartrees.
 IExCor=    0 DFT=F Ex=HF Corr=None ExCW=0 ScaHFX=  1.000000
 ScaDFX=  1.000000  1.000000  1.000000  1.000000 ScalE2=  1.000000  1.000000
 IRadAn=      0 IRanWt=     -1 IRanGd=            0 ICorTp=0 IEmpDi=  4
 Integral buffers will be    131072 words long.
 Regular integral format.
 Two-electron integral symmetry is turned off.
 Leave Link  301 at Mon Nov 23 02:20:27 2015, MaxMem=    33554432 cpu:         0.0
 (Enter /home/Applications/g09/g09/l302.exe)
 Do NDO integrals.
 NPDir=0 NMtPBC=     1 NCelOv=     1 NCel=       1 NClECP=     1 NCelD=      1
         NCelK=      1 NCelE2=     1 NClLst=     1 CellRange=     0.0.
 One-electron integrals computed using PRISM.
 NBasis=    24 RedAO= F EigKep=  0.00D+00  NBF=    24
 NBsUse=    24 1.00D-04 EigRej=  0.00D+00 NBFU=    24
 Leave Link  302 at Mon Nov 23 02:20:27 2015, MaxMem=    33554432 cpu:         0.0
 (Enter /home/Applications/g09/g09/l303.exe)
 DipDrv:  MaxL=1.
 Leave Link  303 at Mon Nov 23 02:20:27 2015, MaxMem=    33554432 cpu:         0.0
 (Enter /home/Applications/g09/g09/l401.exe)
 Initial guess from the checkpoint file:  "/home/Applications/g09/scratch/Gau-2466.chk"
 B after Tr=     0.000000    0.000000    0.000000
         Rot=    0.865718    0.000106    0.000028    0.500531 Ang=  60.07 deg.
 Guess basis will be translated and rotated to current coordinates.
 JPrj=0 DoOrth=T DoCkMO=T.
 Leave Link  401 at Mon Nov 23 02:20:27 2015, MaxMem=    33554432 cpu:         0.0
 (Enter /home/Applications/g09/g09/l502.exe)
 Closed shell SCF:
 Using DIIS extrapolation, IDIIS=  1040.
 Overlap will be assumed to be unity.
 Two-electron integral symmetry not used.
 Keep J ints in memory in canonical form, NReq=888082.
 IVT=       79475 IEndB=       79475 NGot=    33554432 MDV=    33473473
 LenX=    33473473 LenY=    33472456
 Requested convergence on RMS density matrix=1.00D-08 within 128 cycles.
 Requested convergence on MAX density matrix=1.00D-06.
 Requested convergence on             energy=1.00D-06.
 No special actions if energy rises.
 FoFCou: FMM=F IPFlag=           0 FMFlag=           0 FMFlg1=           0
         NFxFlg=           0 DoJE=F BraDBF=F KetDBF=F FulRan=T
         wScrn=  0.000000 ICntrl=     600 IOpCl=  2 I1Cent=           0 NGrid=           0
         NMat0=    1 NMatS0=     54 NMatT0=    0 NMatD0=    1 NMtDS0=    0 NMtDT0=    0
 Symmetry not used in FoFCou.

 Cycle   1  Pass 1  IDiag  1:
 E= -2.33589892361641    
 DIIS: error= 6.32D-03 at cycle   1 NSaved=   1.
 NSaved= 1 IEnMin= 1 EnMin= -2.33589892361641     IErMin= 1 ErrMin= 6.32D-03
 ErrMax= 6.32D-03  0.00D+00 EMaxC= 1.00D-01 BMatC= 1.44D-03 BMatP= 1.44D-03
 IDIUse=3 WtCom= 9.37D-01 WtEn= 6.32D-02
 Coeff-Com:  0.100D+01
 Coeff-En:   0.100D+01
 Coeff:      0.100D+01
 GapD=    2.000 DampG=2.000 DampE=1.000 DampFc=2.0000 IDamp=-1.
 RMSDP=2.74D-03 MaxDP=1.32D-02              OVMax= 0.00D+00

 Cycle   2  Pass 1  IDiag  3:
 E= -2.34057258689786     Delta-E=       -0.004673663281 Rises=F Damp=F
 DIIS: error= 2.29D-03 at cycle   2 NSaved=   2.
 NSaved= 2 IEnMin= 2 EnMin= -2.34057258689786     IErMin= 2 ErrMin= 2.29D-03
 ErrMax= 2.29D-03  0.00D+00 EMaxC= 1.00D-01 BMatC= 2.13D-04 BMatP= 1.44D-03
 IDIUse=3 WtCom= 9.77D-01 WtEn= 2.29D-02
 Coeff-Com: -0.517D+00 0.152D+01
 Coeff-En:   0.000D+00 0.100D+01
 Coeff:     -0.505D+00 0.151D+01
 Gap=     0.380 Goal=   None    Shift=    0.000
 RMSDP=1.87D-03 MaxDP=1.02D-02 DE=-4.67D-03 OVMax= 1.10D-02

 Cycle   3  Pass 1  IDiag  3:
 E= -2.34163889089059     Delta-E=       -0.001066303993 Rises=F Damp=F
 DIIS: error= 5.49D-04 at cycle   3 NSaved=   3.
 NSaved= 3 IEnMin= 3 EnMin= -2.34163889089059     IErMin= 3 ErrMin= 5.49D-04
 ErrMax= 5.49D-04  0.00D+00 EMaxC= 1.00D-01 BMatC= 1.01D-05 BMatP= 2.13D-04
 IDIUse=3 WtCom= 9.95D-01 WtEn= 5.49D-03
 Coeff-Com:  0.250D+00-0.867D+00 0.162D+01
 Coeff-En:   0.000D+00 0.000D+00 0.100D+01
 Coeff:      0.249D+00-0.862D+00 0.161D+01
 Gap=     0.380 Goal=   None    Shift=    0.000
 RMSDP=5.76D-04 MaxDP=3.45D-03 DE=-1.07D-03 OVMax= 5.15D-03

 Cycle   4  Pass 1  IDiag  3:
 E= -2.34170694341094     Delta-E=       -0.000068052520 Rises=F Damp=F
 DIIS: error= 9.06D-05 at cycle   4 NSaved=   4.
 NSaved= 4 IEnMin= 4 EnMin= -2.34170694341094     IErMin= 4 ErrMin= 9.06D-05
 ErrMax= 9.06D-05  0.00D+00 EMaxC= 1.00D-01 BMatC= 3.38D-07 BMatP= 1.01D-05
 IDIUse=1 WtCom= 1.00D+00 WtEn= 0.00D+00
 Coeff-Com: -0.117D+00 0.419D+00-0.887D+00 0.159D+01
 Coeff:     -0.117D+00 0.419D+00-0.887D+00 0.159D+01
 Gap=     0.380 Goal=   None    Shift=    0.000
 RMSDP=1.10D-04 MaxDP=7.21D-04 DE=-6.81D-05 OVMax= 1.33D-03

 Cycle   5  Pass 1  IDiag  3:
 E= -2.34170939290831     Delta-E=       -0.000002449497 Rises=F Damp=F
 DIIS: error= 2.10D-05 at cycle   5 NSaved=   5.
 NSaved= 5 IEnMin= 5 EnMin= -2.34170939290831     IErMin= 5 ErrMin= 2.10D-05
 ErrMax= 2.10D-05  0.00D+00 EMaxC= 1.00D-01 BMatC= 2.01D-08 BMatP= 3.38D-07
 IDIUse=1 WtCom= 1.00D+00 WtEn= 0.00D+00
 Coeff-Com:  0.544D-01-0.195D+00 0.421D+00-0.895D+00 0.161D+01
 Coeff:      0.544D-01-0.195D+00 0.421D+00-0.895D+00 0.161D+01
 Gap=     0.380 Goal=   None    Shift=    0.000
 RMSDP=2.88D-05 MaxDP=1.96D-04 DE=-2.45D-06 OVMax= 2.90D-04

 Cycle   6  Pass 1  IDiag  3:
 E= -2.34170955141110     Delta-E=       -0.000000158503 Rises=F Damp=F
 DIIS: error= 4.62D-06 at cycle   6 NSaved=   6.
 NSaved= 6 IEnMin= 6 EnMin= -2.34170955141110     IErMin= 6 ErrMin= 4.62D-06
 ErrMax= 4.62D-06  0.00D+00 EMaxC= 1.00D-01 BMatC= 1.38D-09 BMatP= 2.01D-08
 IDIUse=1 WtCom= 1.00D+00 WtEn= 0.00D+00
 Coeff-Com: -0.182D-01 0.653D-01-0.143D+00 0.321D+00-0.763D+00 0.154D+01
 Coeff:     -0.182D-01 0.653D-01-0.143D+00 0.321D+00-0.763D+00 0.154D+01
 Gap=     0.380 Goal=   None    Shift=    0.000
 RMSDP=7.89D-06 MaxDP=5.67D-05 DE=-1.59D-07 OVMax= 5.82D-05

 Cycle   7  Pass 1  IDiag  3:
 E= -2.34170956289053     Delta-E=       -0.000000011479 Rises=F Damp=F
 DIIS: error= 1.74D-06 at cycle   7 NSaved=   7.
 NSaved= 7 IEnMin= 7 EnMin= -2.34170956289053     IErMin= 7 ErrMin= 1.74D-06
 ErrMax= 1.74D-06  0.00D+00 EMaxC= 1.00D-01 BMatC= 1.11D-10 BMatP= 1.38D-09
 IDIUse=1 WtCom= 1.00D+00 WtEn= 0.00D+00
 Coeff-Com:  0.463D-02-0.165D-01 0.362D-01-0.826D-01 0.220D+00-0.656D+00
 Coeff-Com:  0.149D+01
 Coeff:      0.463D-02-0.165D-01 0.362D-01-0.826D-01 0.220D+00-0.656D+00
 Coeff:      0.149D+01
 Gap=     0.380 Goal=   None    Shift=    0.000
 RMSDP=2.32D-06 MaxDP=1.86D-05 DE=-1.15D-08 OVMax= 1.88D-05

 Cycle   8  Pass 1  IDiag  3:
 E= -2.34170956386727     Delta-E=       -0.000000000977 Rises=F Damp=F
 DIIS: error= 5.17D-07 at cycle   8 NSaved=   8.
 NSaved= 8 IEnMin= 8 EnMin= -2.34170956386727     IErMin= 8 ErrMin= 5.17D-07
 ErrMax= 5.17D-07  0.00D+00 EMaxC= 1.00D-01 BMatC= 1.07D-11 BMatP= 1.11D-10
 IDIUse=1 WtCom= 1.00D+00 WtEn= 0.00D+00
 Coeff-Com:  0.621D-03-0.222D-02 0.478D-02-0.102D-01 0.163D-01 0.219D-01
 Coeff-Com: -0.380D+00 0.135D+01
 Coeff:      0.621D-03-0.222D-02 0.478D-02-0.102D-01 0.163D-01 0.219D-01
 Coeff:     -0.380D+00 0.135D+01
 Gap=     0.380 Goal=   None    Shift=    0.000
 RMSDP=7.23D-07 MaxDP=6.77D-06 DE=-9.77D-10 OVMax= 6.32D-06

 Cycle   9  Pass 1  IDiag  3:
 E= -2.34170956396389     Delta-E=       -0.000000000097 Rises=F Damp=F
 DIIS: error= 1.87D-07 at cycle   9 NSaved=   9.
 NSaved= 9 IEnMin= 9 EnMin= -2.34170956396389     IErMin= 9 ErrMin= 1.87D-07
 ErrMax= 1.87D-07  0.00D+00 EMaxC= 1.00D-01 BMatC= 1.35D-12 BMatP= 1.07D-11
 IDIUse=1 WtCom= 1.00D+00 WtEn= 0.00D+00
 Coeff-Com: -0.497D-03 0.178D-02-0.387D-02 0.880D-02-0.211D-01 0.430D-01
 Coeff-Com:  0.332D-01-0.646D+00 0.158D+01
 Coeff:     -0.497D-03 0.178D-02-0.387D-02 0.880D-02-0.211D-01 0.430D-01
 Coeff:      0.332D-01-0.646D+00 0.158D+01
 Gap=     0.380 Goal=   None    Shift=    0.000
 RMSDP=2.95D-07 MaxDP=2.59D-06 DE=-9.66D-11 OVMax= 2.53D-06

 Cycle  10  Pass 1  IDiag  3:
 E= -2.34170956397715     Delta-E=       -0.000000000013 Rises=F Damp=F
 DIIS: error= 5.10D-08 at cycle  10 NSaved=  10.
 NSaved=10 IEnMin=10 EnMin= -2.34170956397715     IErMin=10 ErrMin= 5.10D-08
 ErrMax= 5.10D-08  0.00D+00 EMaxC= 1.00D-01 BMatC= 9.94D-14 BMatP= 1.35D-12
 IDIUse=1 WtCom= 1.00D+00 WtEn= 0.00D+00
 Coeff-Com:  0.174D-03-0.623D-03 0.137D-02-0.318D-02 0.826D-02-0.210D-01
 Coeff-Com:  0.129D-01 0.194D+00-0.747D+00 0.155D+01
 Coeff:      0.174D-03-0.623D-03 0.137D-02-0.318D-02 0.826D-02-0.210D-01
 Coeff:      0.129D-01 0.194D+00-0.747D+00 0.155D+01
 Gap=     0.380 Goal=   None    Shift=    0.000
 RMSDP=7.97D-08 MaxDP=5.77D-07 DE=-1.33D-11 OVMax= 7.20D-07

 Cycle  11  Pass 1  IDiag  3:
 E= -2.34170956397814     Delta-E=       -0.000000000001 Rises=F Damp=F
 DIIS: error= 1.08D-08 at cycle  11 NSaved=  11.
 NSaved=11 IEnMin=11 EnMin= -2.34170956397814     IErMin=11 ErrMin= 1.08D-08
 ErrMax= 1.08D-08  0.00D+00 EMaxC= 1.00D-01 BMatC= 6.34D-15 BMatP= 9.94D-14
 IDIUse=1 WtCom= 1.00D+00 WtEn= 0.00D+00
 Coeff-Com: -0.503D-04 0.180D-03-0.395D-03 0.941D-03-0.253D-02 0.673D-02
 Coeff-Com: -0.320D-02-0.757D-01 0.312D+00-0.828D+00 0.159D+01
 Coeff:     -0.503D-04 0.180D-03-0.395D-03 0.941D-03-0.253D-02 0.673D-02
 Coeff:     -0.320D-02-0.757D-01 0.312D+00-0.828D+00 0.159D+01
 Gap=     0.380 Goal=   None    Shift=    0.000
 RMSDP=1.78D-08 MaxDP=1.07D-07 DE=-9.95D-13 OVMax= 1.48D-07

 Cycle  12  Pass 1  IDiag  3:
 E= -2.34170956397796     Delta-E=        0.000000000000 Rises=F Damp=F
 DIIS: error= 2.59D-09 at cycle  12 NSaved=  12.
 NSaved=12 IEnMin=11 EnMin= -2.34170956397814     IErMin=12 ErrMin= 2.59D-09
 ErrMax= 2.59D-09  0.00D+00 EMaxC= 1.00D-01 BMatC= 3.13D-16 BMatP= 6.34D-15
 IDIUse=1 WtCom= 1.00D+00 WtEn= 0.00D+00
 Coeff-Com:  0.881D-05-0.315D-04 0.694D-04-0.172D-03 0.481D-03-0.135D-02
 Coeff-Com:  0.315D-03 0.193D-01-0.826D-01 0.241D+00-0.636D+00 0.146D+01
 Coeff:      0.881D-05-0.315D-04 0.694D-04-0.172D-03 0.481D-03-0.135D-02
 Coeff:      0.315D-03 0.193D-01-0.826D-01 0.241D+00-0.636D+00 0.146D+01
 Gap=     0.380 Goal=   None    Shift=    0.000
 RMSDP=3.90D-09 MaxDP=2.53D-08 DE= 1.85D-13 OVMax= 3.83D-08

 Cycle  13  Pass 2  IDiag  1:
 SCF Done:  E(RAM1) =  -2.34170956398     A.U. after   13 cycles
            NFock= 12  Conv=0.39D-08     -V/T= 0.8790
 KE=-1.934919033435D+01 PE=-1.702213195427D+02 EE= 8.506615778521D+01
 Leave Link  502 at Mon Nov 23 02:20:27 2015, MaxMem=    33554432 cpu:         0.0
 (Enter /home/Applications/g09/g09/l701.exe)
 Compute integral first derivatives.
 ... and contract with generalized density number  0.
 Leave Link  701 at Mon Nov 23 02:20:27 2015, MaxMem=    33554432 cpu:         0.0
 (Enter /home/Applications/g09/g09/l702.exe)
 L702 exits ... SP integral derivatives will be done elsewhere.
 Leave Link  702 at Mon Nov 23 02:20:27 2015, MaxMem=    33554432 cpu:         0.0
 (Enter /home/Applications/g09/g09/l703.exe)
 Compute integral first derivatives, UseDBF=F ICtDFT=           0.
 Integral derivatives from FoFJK, PRISM(SPDF).
 Calling FoFJK, ICntrl=      2127 FMM=F ISym2X=0 I1Cent= 0 IOpClX= 0 NMat=1 NMatS=1 NMatT=0.
 FoFJK:  IHMeth= 8 ICntrl=    2127 DoSepK=F KAlg= 0 I1Cent=   0 FoldK=F
 IRaf=         0 NMat=   1 IRICut=       1 DoRegI=T DoRafI=F ISym2E= 0.
 FoFCou: FMM=F IPFlag=           0 FMFlag=      100000 FMFlg1=         800
         NFxFlg=           0 DoJE=F BraDBF=F KetDBF=F FulRan=T
         wScrn=  0.000000 ICntrl=    2127 IOpCl=  0 I1Cent=           0 NGrid=           0
         NMat0=    1 NMatS0=      1 NMatT0=    0 NMatD0=    1 NMtDS0=    0 NMtDT0=    0
 Symmetry not used in FoFCou.
 Leave Link  703 at Mon Nov 23 02:20:27 2015, MaxMem=    33554432 cpu:         0.0
 (Enter /home/Applications/g09/g09/l716.exe)
 Dipole        =-7.01925811D-02-1.51027847D-01-7.15442932D-03
 ***** Axes restored to original set *****
 -------------------------------------------------------------------
 Center     Atomic                   Forces (Hartrees/Bohr)
 Number     Number              X              Y              Z
 -------------------------------------------------------------------
      1        6           0.001720726    0.007132888    0.000285386
      2        6          -0.001006311    0.010619228   -0.004567822
      3        8          -0.001496907   -0.008634107    0.003430815
      4        6           0.005584372   -0.009629917    0.003590365
      5        6          -0.006816960    0.006125336   -0.003636126
      6        1           0.003037042   -0.001481830    0.000419608
      7        1           0.004116139   -0.001955260   -0.001685374
      8        1          -0.002715066   -0.001897660   -0.000297801
      9        1          -0.002423036   -0.000278679    0.002460950
 -------------------------------------------------------------------
 Cartesian Forces:  Max     0.010619228 RMS     0.004592331
 Leave Link  716 at Mon Nov 23 02:20:27 2015, MaxMem=    33554432 cpu:         0.0
 (Enter /home/Applications/g09/g09/l103.exe)

 GradGradGradGradGradGradGradGradGradGradGradGradGradGradGradGradGradGrad
 Berny optimization.
 Using GEDIIS/GDIIS optimizer.
 FormGI is forming the generalized inverse of G from B-inverse, IUseBI=4.
 Internal  Forces:  Max     0.009995361 RMS     0.003269139
 Search for a local minimum.
 Step number   2 out of a maximum of   48
 All quantities printed in internal units (Hartrees-Bohrs-Radians)
 RMS Force = .32691D-02 SwitMx=.10000D-02 MixMth= 1
 Mixed Optimization -- RFO/linear search
 Update second derivatives using D2CorX and points    1    2
 DE= -7.12D-03 DEPred=-8.47D-03 R= 8.40D-01
 TightC=F SS=  1.41D+00  RLast= 3.26D-01 DXNew= 5.0454D-01 9.7655D-01
 Trust test= 8.40D-01 RLast= 3.26D-01 DXMaxT set to 5.05D-01
 ITU=  1  0
 Use linear search instead of GDIIS.
     Eigenvalues ---    0.01887   0.01988   0.02163   0.02219   0.02281
     Eigenvalues ---    0.02526   0.14587   0.15972   0.15994   0.16013
     Eigenvalues ---    0.22045   0.25493   0.34351   0.38269   0.38410
     Eigenvalues ---    0.39621   0.42575   0.43648   0.46900   0.49350
     Eigenvalues ---    0.52487
 RFO step:  Lambda=-1.93064754D-03 EMin= 1.88677563D-02
 Quartic linear search produced a step of -0.05313.
 Iteration  1 RMS(Cart)=  0.02583100 RMS(Int)=  0.00071606
 Iteration  2 RMS(Cart)=  0.00064025 RMS(Int)=  0.00032101
 Iteration  3 RMS(Cart)=  0.00000033 RMS(Int)=  0.00032101
 ITry= 1 IFail=0 DXMaxC= 8.50D-02 DCOld= 1.00D+10 DXMaxT= 5.05D-01 DXLimC= 3.00D+00 Rises=F
 Variable       Old X    -DE/DX   Delta X   Delta X   Delta X     New X
                                 (Linear)    (Quad)   (Total)
    R1        2.59590   0.00104   0.00051   0.00051   0.00088   2.59677
    R2        2.72198  -0.00553  -0.00085  -0.00934  -0.01033   2.71165
    R3        2.03210  -0.00194   0.00141  -0.01049  -0.00908   2.02302
    R4        2.63652  -0.01000  -0.00006  -0.02006  -0.02007   2.61646
    R5        2.01751   0.00294  -0.00534   0.02603   0.02068   2.03819
    R6        2.61229   0.00160  -0.00043   0.00426   0.00401   2.61630
    R7        2.61372  -0.00804  -0.00066  -0.01307  -0.01367   2.60005
    R8        2.03569  -0.00372  -0.00137  -0.00412  -0.00549   2.03020
    R9        2.02295   0.00158  -0.00387   0.01790   0.01404   2.03698
    A1        1.85229   0.00141   0.00269  -0.00294  -0.00073   1.85157
    A2        2.26887  -0.00227  -0.00021  -0.01263  -0.01245   2.25642
    A3        2.16093   0.00086  -0.00307   0.01620   0.01351   2.17444
    A4        1.92881   0.00172  -0.00157   0.01402   0.01158   1.94039
    A5        2.32622   0.00070   0.00026   0.00414   0.00411   2.33033
    A6        2.02806  -0.00240   0.00118  -0.01740  -0.01651   2.01155
    A7        1.85765  -0.00500  -0.00101  -0.01631  -0.01744   1.84021
    A8        1.91917   0.00614   0.00289   0.01434   0.01689   1.93606
    A9        1.99440  -0.00042  -0.00407   0.01871   0.01442   2.00882
   A10        2.36845  -0.00568   0.00096  -0.03090  -0.03017   2.33828
   A11        1.86582  -0.00417  -0.00312  -0.00607  -0.00974   1.85608
   A12        2.21181  -0.00096   0.00329  -0.02100  -0.01768   2.19413
   A13        2.20538   0.00515  -0.00018   0.02764   0.02748   2.23286
    D1        0.04417  -0.00202  -0.00642  -0.06549  -0.07213  -0.02796
    D2       -3.11386  -0.00015  -0.00123  -0.00500  -0.00614  -3.12000
    D3       -3.04766  -0.00190   0.00000  -0.08054  -0.08082  -3.12848
    D4        0.07750  -0.00003   0.00519  -0.02005  -0.01483   0.06267
    D5       -0.03309   0.00180   0.00430   0.05730   0.06110   0.02801
    D6        3.12746   0.00068   0.00180   0.02518   0.02716  -3.12857
    D7        3.06263   0.00157  -0.00134   0.07019   0.06836   3.13099
    D8       -0.06001   0.00046  -0.00384   0.03806   0.03442  -0.02559
    D9       -0.03821   0.00177   0.00590   0.04922   0.05485   0.01665
   D10        3.11672   0.00024   0.00167  -0.00003   0.00179   3.11851
   D11        0.01608  -0.00054  -0.00317  -0.01125  -0.01394   0.00215
   D12       -3.08194  -0.00112  -0.00061  -0.05052  -0.05173  -3.13367
   D13        0.01040  -0.00073  -0.00064  -0.02835  -0.02925  -0.01885
   D14        3.13313   0.00029   0.00177   0.00295   0.00504   3.13817
   D15        3.09512   0.00035  -0.00433   0.02523   0.02036   3.11548
   D16       -0.06534   0.00137  -0.00192   0.05652   0.05466  -0.01069
         Item               Value     Threshold  Converged?
 Maximum Force            0.009995     0.000450     NO 
 RMS     Force            0.003269     0.000300     NO 
 Maximum Displacement     0.085017     0.001800     NO 
 RMS     Displacement     0.025757     0.001200     NO 
 Predicted change in Energy=-1.020884D-03
 Lowest energy point so far.  Saving SCF results.
 GradGradGradGradGradGradGradGradGradGradGradGradGradGradGradGradGradGrad

 Leave Link  103 at Mon Nov 23 02:20:27 2015, MaxMem=    33554432 cpu:         0.0
 (Enter /home/Applications/g09/g09/l202.exe)
                          Input orientation:                          
 ---------------------------------------------------------------------
 Center     Atomic      Atomic             Coordinates (Angstroms)
 Number     Number       Type             X           Y           Z
 ---------------------------------------------------------------------
      1          6           0        0.956081   -0.724486    0.013008
      2          6           0       -0.364561   -1.101269   -0.034281
      3          8           0       -1.200104    0.002763   -0.030375
      4          6           0       -0.358531    1.101711   -0.000829
      5          6           0        0.960501    0.710448    0.010715
      6          1           0        1.837404    1.337018    0.030065
      7          1           0       -0.854023    2.054848    0.013714
      8          1           0       -0.864713   -2.056855   -0.033900
      9          1           0        1.835547   -1.334884    0.011927
 ---------------------------------------------------------------------
                    Distance matrix (angstroms):
                    1          2          3          4          5
     1  C    0.000000
     2  C    1.374153   0.000000
     3  O    2.275941   1.384570   0.000000
     4  C    2.250199   2.203243   1.384487   0.000000
     5  C    1.434943   2.245024   2.273922   1.375887   0.000000
     6  H    2.242057   3.286036   3.318183   2.208722   1.077925
     7  H    3.316802   3.194206   2.081531   1.074334   2.258300
     8  H    2.256701   1.078562   2.086750   3.199040   3.315323
     9  H    1.070536   2.212959   3.317569   3.278893   2.224655
                    6          7          8          9
     6  H    0.000000
     7  H    2.785557   0.000000
     8  H    4.338652   4.111993   0.000000
     9  H    2.671964   4.327132   2.795487   0.000000
 Stoichiometry    C4H4O
 Framework group  C1[X(C4H4O)]
 Deg. of freedom    21
 Full point group                 C1      NOp   1
 RotChk:  IX=0 Diff= 3.35D-01
 Largest Abelian subgroup         C1      NOp   1
 Largest concise Abelian subgroup C1      NOp   1
                         Standard orientation:                         
 ---------------------------------------------------------------------
 Center     Atomic      Atomic             Coordinates (Angstroms)
 Number     Number       Type             X           Y           Z
 ---------------------------------------------------------------------
      1          6           0        0.754051    0.945677    0.010494
      2          6           0        1.087700   -0.387218   -0.008636
      3          8           0       -0.043159   -1.186046   -0.000506
      4          6           0       -1.114113   -0.308633    0.002405
      5          6           0       -0.679878    0.996905   -0.006402
      6          1           0       -1.277472    1.894007   -0.009556
      7          1           0       -2.083100   -0.772378    0.016429
      8          1           0        2.026301   -0.918211    0.010632
      9          1           0        1.392980    1.804568   -0.000617
 ---------------------------------------------------------------------
 Rotational constants (GHZ):      9.4290624      8.9603153      4.5946268
 Leave Link  202 at Mon Nov 23 02:20:27 2015, MaxMem=    33554432 cpu:         0.0
 (Enter /home/Applications/g09/g09/l301.exe)

 Semi-emprical parameters in input format:
 Method=8 CoreType=1 PeptideFC=0.0125750000 RIJScale=0.5666730000
 ****
 H       
 PQN=1 NValence=1 F0ss=0.4322380000 ZetaOverlap=1.1880780000 U=-0.4188110000
 Beta=-0.2156480000 CoreKO=1.1385450000 KON=0,0,0,1.0589200000 KON=1,0,1,1.1290450000
 KON=0,1,1,1.1706660000 KON=2,1,1,1.0589200000 EISol=-0.4188110042 EHeat=0.0830298228
 Alpha=1.5252600000
 GCore=0.0084690000,1.3383940000,2.2676710000
 GCore=0.0003530000,1.3533660000,3.6667160000
 GCore=-0.0011710000,0.6115380000,4.3212930000
 ****
 C       
 PQN=2,2 NValence=4 F0ss=0.4466820000 F0sp=0.4066640000 F0pp=0.3768030000 F2pp=0.1898720000
 G1sp=0.2679030000
 ZetaOverlap=1.8086650000,1.7840750000
 U=-1.9120180000,-1.5956620000
 Beta=-0.5629500000,-0.3031680000 DDN=0,1,0.7632320000 DDN=1,1,0.7847580000
 CoreKO=1.1124280000 KON=0,0,0,1.0889370000 KON=1,0,1,0.8219700000 KON=0,1,1,0.9893020000
 KON=2,1,1,0.7783930000 EISol=-4.4398989268 EHeat=0.2723305520 Alpha=1.3702060000
 DipHyp=1.5263761812
 GCore=0.0008320000,1.4654240000,2.8806590000
 GCore=0.0027890000,1.3245690000,3.2438410000
 GCore=-0.0012930000,1.2846020000,4.0922960000
 GCore=-0.0000880000,1.4958780000,4.9512050000
 ****
 O       
 PQN=2,2 NValence=6 F0ss=0.5666750000 F0sp=0.5060470000 F0pp=0.4958710000 F2pp=0.2150590000
 G1sp=0.4181060000
 ZetaOverlap=3.3086090000,2.5960610000
 U=-3.8586440000,-2.8743270000
 Beta=-1.1627760000,-1.1056560000 DDN=0,1,0.4676820000 DDN=1,1,0.4852320000
 CoreKO=1.0326690000 KON=0,0,0,0.8822960000 KON=1,0,1,0.5019540000 KON=0,1,1,0.8822960000
 KON=2,1,1,0.5406950000 EISol=-11.6164441184 EHeat=0.0949133088 Alpha=2.2592050000
 DipHyp=0.9353101877
 GCore=0.0202690000,1.4001430000,1.6127490000
 GCore=0.0056550000,2.0844870000,2.7600040000
 ****
 
 Standard basis: VSTO-6G (5D, 7F)
 Ernie: Thresh=  0.10000D-02 Tol=  0.10000D-05 Strict=F.
  NNHCO=     0 NNPyr=     0 NCTC=     0               EPep=         0.000000000
    EC=        67.469469567  ECS=         1.872551791   EG=         0.360260417
   EHC=         0.000000000  EAt=       -31.051283842  AtH=         1.516354808
 EPDDG=         0.000000000  ECC=        69.702281775 EAtT=        32.567638650
 There are    24 symmetry adapted cartesian basis functions of A   symmetry.
 There are    24 symmetry adapted basis functions of A   symmetry.
    24 basis functions,   144 primitive gaussians,    24 cartesian basis functions
    13 alpha electrons       13 beta electrons
       nuclear repulsion energy       102.2699204249 Hartrees.
 IExCor=    0 DFT=F Ex=HF Corr=None ExCW=0 ScaHFX=  1.000000
 ScaDFX=  1.000000  1.000000  1.000000  1.000000 ScalE2=  1.000000  1.000000
 IRadAn=      0 IRanWt=     -1 IRanGd=            0 ICorTp=0 IEmpDi=  4
 Integral buffers will be    131072 words long.
 Regular integral format.
 Two-electron integral symmetry is turned off.
 Leave Link  301 at Mon Nov 23 02:20:27 2015, MaxMem=    33554432 cpu:         0.0
 (Enter /home/Applications/g09/g09/l302.exe)
 Do NDO integrals.
 NPDir=0 NMtPBC=     1 NCelOv=     1 NCel=       1 NClECP=     1 NCelD=      1
         NCelK=      1 NCelE2=     1 NClLst=     1 CellRange=     0.0.
 One-electron integrals computed using PRISM.
 NBasis=    24 RedAO= F EigKep=  0.00D+00  NBF=    24
 NBsUse=    24 1.00D-04 EigRej=  0.00D+00 NBFU=    24
 Leave Link  302 at Mon Nov 23 02:20:27 2015, MaxMem=    33554432 cpu:         0.0
 (Enter /home/Applications/g09/g09/l303.exe)
 DipDrv:  MaxL=1.
 Leave Link  303 at Mon Nov 23 02:20:27 2015, MaxMem=    33554432 cpu:         0.0
 (Enter /home/Applications/g09/g09/l401.exe)
 Initial guess from the checkpoint file:  "/home/Applications/g09/scratch/Gau-2466.chk"
 B after Tr=     0.000000    0.000000    0.000000
         Rot=    0.992761    0.000037    0.000027   -0.120106 Ang=  13.80 deg.
 Guess basis will be translated and rotated to current coordinates.
 JPrj=0 DoOrth=T DoCkMO=T.
 Leave Link  401 at Mon Nov 23 02:20:27 2015, MaxMem=    33554432 cpu:         0.0
 (Enter /home/Applications/g09/g09/l502.exe)
 Closed shell SCF:
 Using DIIS extrapolation, IDIIS=  1040.
 Overlap will be assumed to be unity.
 Two-electron integral symmetry not used.
 Keep J ints in memory in canonical form, NReq=888082.
 IVT=       79475 IEndB=       79475 NGot=    33554432 MDV=    33473473
 LenX=    33473473 LenY=    33472456
 Requested convergence on RMS density matrix=1.00D-08 within 128 cycles.
 Requested convergence on MAX density matrix=1.00D-06.
 Requested convergence on             energy=1.00D-06.
 No special actions if energy rises.
 FoFCou: FMM=F IPFlag=           0 FMFlag=           0 FMFlg1=           0
         NFxFlg=           0 DoJE=F BraDBF=F KetDBF=F FulRan=T
         wScrn=  0.000000 ICntrl=     600 IOpCl=  2 I1Cent=           0 NGrid=           0
         NMat0=    1 NMatS0=     54 NMatT0=    0 NMatD0=    1 NMtDS0=    0 NMtDT0=    0
 Symmetry not used in FoFCou.

 Cycle   1  Pass 1  IDiag  1:
 E= -2.34045268814597    
 DIIS: error= 3.68D-03 at cycle   1 NSaved=   1.
 NSaved= 1 IEnMin= 1 EnMin= -2.34045268814597     IErMin= 1 ErrMin= 3.68D-03
 ErrMax= 3.68D-03  0.00D+00 EMaxC= 1.00D-01 BMatC= 4.35D-04 BMatP= 4.35D-04
 IDIUse=3 WtCom= 9.63D-01 WtEn= 3.68D-02
 Coeff-Com:  0.100D+01
 Coeff-En:   0.100D+01
 Coeff:      0.100D+01
 GapD=    2.000 DampG=2.000 DampE=1.000 DampFc=2.0000 IDamp=-1.
 RMSDP=1.62D-03 MaxDP=1.01D-02              OVMax= 0.00D+00

 Cycle   2  Pass 1  IDiag  3:
 E= -2.34201299907623     Delta-E=       -0.001560310930 Rises=F Damp=F
 DIIS: error= 1.66D-03 at cycle   2 NSaved=   2.
 NSaved= 2 IEnMin= 2 EnMin= -2.34201299907623     IErMin= 2 ErrMin= 1.66D-03
 ErrMax= 1.66D-03  0.00D+00 EMaxC= 1.00D-01 BMatC= 7.35D-05 BMatP= 4.35D-04
 IDIUse=3 WtCom= 9.83D-01 WtEn= 1.66D-02
 Coeff-Com: -0.581D+00 0.158D+01
 Coeff-En:   0.000D+00 0.100D+01
 Coeff:     -0.571D+00 0.157D+01
 Gap=     0.381 Goal=   None    Shift=    0.000
 RMSDP=1.20D-03 MaxDP=7.68D-03 DE=-1.56D-03 OVMax= 6.12D-03

 Cycle   3  Pass 1  IDiag  3:
 E= -2.34241192503619     Delta-E=       -0.000398925960 Rises=F Damp=F
 DIIS: error= 2.96D-04 at cycle   3 NSaved=   3.
 NSaved= 3 IEnMin= 3 EnMin= -2.34241192503619     IErMin= 3 ErrMin= 2.96D-04
 ErrMax= 2.96D-04  0.00D+00 EMaxC= 1.00D-01 BMatC= 2.93D-06 BMatP= 7.35D-05
 IDIUse=3 WtCom= 9.97D-01 WtEn= 2.96D-03
 Coeff-Com:  0.234D+00-0.768D+00 0.153D+01
 Coeff-En:   0.000D+00 0.000D+00 0.100D+01
 Coeff:      0.233D+00-0.766D+00 0.153D+01
 Gap=     0.381 Goal=   None    Shift=    0.000
 RMSDP=3.11D-04 MaxDP=1.88D-03 DE=-3.99D-04 OVMax= 2.07D-03

 Cycle   4  Pass 1  IDiag  3:
 E= -2.34243148544306     Delta-E=       -0.000019560407 Rises=F Damp=F
 DIIS: error= 5.03D-05 at cycle   4 NSaved=   4.
 NSaved= 4 IEnMin= 4 EnMin= -2.34243148544306     IErMin= 4 ErrMin= 5.03D-05
 ErrMax= 5.03D-05  0.00D+00 EMaxC= 1.00D-01 BMatC= 8.98D-08 BMatP= 2.93D-06
 IDIUse=1 WtCom= 1.00D+00 WtEn= 0.00D+00
 Coeff-Com: -0.770D-01 0.263D+00-0.623D+00 0.144D+01
 Coeff:     -0.770D-01 0.263D+00-0.623D+00 0.144D+01
 Gap=     0.381 Goal=   None    Shift=    0.000
 RMSDP=5.13D-05 MaxDP=3.27D-04 DE=-1.96D-05 OVMax= 4.89D-04

 Cycle   5  Pass 1  IDiag  3:
 E= -2.34243210533870     Delta-E=       -0.000000619896 Rises=F Damp=F
 DIIS: error= 1.44D-05 at cycle   5 NSaved=   5.
 NSaved= 5 IEnMin= 5 EnMin= -2.34243210533870     IErMin= 5 ErrMin= 1.44D-05
 ErrMax= 1.44D-05  0.00D+00 EMaxC= 1.00D-01 BMatC= 7.35D-09 BMatP= 8.98D-08
 IDIUse=1 WtCom= 1.00D+00 WtEn= 0.00D+00
 Coeff-Com:  0.675D-02-0.245D-01 0.772D-01-0.440D+00 0.138D+01
 Coeff:      0.675D-02-0.245D-01 0.772D-01-0.440D+00 0.138D+01
 Gap=     0.381 Goal=   None    Shift=    0.000
 RMSDP=1.60D-05 MaxDP=1.15D-04 DE=-6.20D-07 OVMax= 1.50D-04

 Cycle   6  Pass 1  IDiag  3:
 E= -2.34243216122066     Delta-E=       -0.000000055882 Rises=F Damp=F
 DIIS: error= 3.98D-06 at cycle   6 NSaved=   6.
 NSaved= 6 IEnMin= 6 EnMin= -2.34243216122066     IErMin= 6 ErrMin= 3.98D-06
 ErrMax= 3.98D-06  0.00D+00 EMaxC= 1.00D-01 BMatC= 6.84D-10 BMatP= 7.35D-09
 IDIUse=1 WtCom= 1.00D+00 WtEn= 0.00D+00
 Coeff-Com:  0.468D-02-0.151D-01 0.264D-01 0.570D-01-0.588D+00 0.151D+01
 Coeff:      0.468D-02-0.151D-01 0.264D-01 0.570D-01-0.588D+00 0.151D+01
 Gap=     0.381 Goal=   None    Shift=    0.000
 RMSDP=5.48D-06 MaxDP=3.74D-05 DE=-5.59D-08 OVMax= 4.18D-05

 Cycle   7  Pass 1  IDiag  3:
 E= -2.34243216671453     Delta-E=       -0.000000005494 Rises=F Damp=F
 DIIS: error= 9.11D-07 at cycle   7 NSaved=   7.
 NSaved= 7 IEnMin= 7 EnMin= -2.34243216671453     IErMin= 7 ErrMin= 9.11D-07
 ErrMax= 9.11D-07  0.00D+00 EMaxC= 1.00D-01 BMatC= 4.52D-11 BMatP= 6.84D-10
 IDIUse=1 WtCom= 1.00D+00 WtEn= 0.00D+00
 Coeff-Com: -0.271D-02 0.891D-02-0.174D-01-0.710D-02 0.235D+00-0.816D+00
 Coeff-Com:  0.160D+01
 Coeff:     -0.271D-02 0.891D-02-0.174D-01-0.710D-02 0.235D+00-0.816D+00
 Coeff:      0.160D+01
 Gap=     0.381 Goal=   None    Shift=    0.000
 RMSDP=1.47D-06 MaxDP=1.04D-05 DE=-5.49D-09 OVMax= 1.44D-05

 Cycle   8  Pass 1  IDiag  3:
 E= -2.34243216708768     Delta-E=       -0.000000000373 Rises=F Damp=F
 DIIS: error= 2.62D-07 at cycle   8 NSaved=   8.
 NSaved= 8 IEnMin= 8 EnMin= -2.34243216708768     IErMin= 8 ErrMin= 2.62D-07
 ErrMax= 2.62D-07  0.00D+00 EMaxC= 1.00D-01 BMatC= 3.20D-12 BMatP= 4.52D-11
 IDIUse=1 WtCom= 1.00D+00 WtEn= 0.00D+00
 Coeff-Com:  0.129D-02-0.424D-02 0.852D-02-0.391D-03-0.938D-01 0.363D+00
 Coeff-Com: -0.900D+00 0.163D+01
 Coeff:      0.129D-02-0.424D-02 0.852D-02-0.391D-03-0.938D-01 0.363D+00
 Coeff:     -0.900D+00 0.163D+01
 Gap=     0.381 Goal=   None    Shift=    0.000
 RMSDP=3.94D-07 MaxDP=3.21D-06 DE=-3.73D-10 OVMax= 4.08D-06

 Cycle   9  Pass 1  IDiag  3:
 E= -2.34243216711482     Delta-E=       -0.000000000027 Rises=F Damp=F
 DIIS: error= 7.66D-08 at cycle   9 NSaved=   9.
 NSaved= 9 IEnMin= 9 EnMin= -2.34243216711482     IErMin= 9 ErrMin= 7.66D-08
 ErrMax= 7.66D-08  0.00D+00 EMaxC= 1.00D-01 BMatC= 2.28D-13 BMatP= 3.20D-12
 IDIUse=1 WtCom= 1.00D+00 WtEn= 0.00D+00
 Coeff-Com: -0.411D-03 0.136D-02-0.279D-02 0.107D-02 0.257D-01-0.110D+00
 Coeff-Com:  0.305D+00-0.774D+00 0.155D+01
 Coeff:     -0.411D-03 0.136D-02-0.279D-02 0.107D-02 0.257D-01-0.110D+00
 Coeff:      0.305D+00-0.774D+00 0.155D+01
 Gap=     0.381 Goal=   None    Shift=    0.000
 RMSDP=1.11D-07 MaxDP=9.75D-07 DE=-2.71D-11 OVMax= 1.27D-06

 Cycle  10  Pass 1  IDiag  3:
 E= -2.34243216711676     Delta-E=       -0.000000000002 Rises=F Damp=F
 DIIS: error= 1.88D-08 at cycle  10 NSaved=  10.
 NSaved=10 IEnMin=10 EnMin= -2.34243216711676     IErMin=10 ErrMin= 1.88D-08
 ErrMax= 1.88D-08  0.00D+00 EMaxC= 1.00D-01 BMatC= 1.99D-14 BMatP= 2.28D-13
 IDIUse=1 WtCom= 1.00D+00 WtEn= 0.00D+00
 Coeff-Com:  0.176D-03-0.581D-03 0.120D-02-0.715D-03-0.951D-02 0.431D-01
 Coeff-Com: -0.125D+00 0.355D+00-0.955D+00 0.169D+01
 Coeff:      0.176D-03-0.581D-03 0.120D-02-0.715D-03-0.951D-02 0.431D-01
 Coeff:     -0.125D+00 0.355D+00-0.955D+00 0.169D+01
 Gap=     0.381 Goal=   None    Shift=    0.000
 RMSDP=3.28D-08 MaxDP=2.64D-07 DE=-1.93D-12 OVMax= 3.33D-07

 Cycle  11  Pass 1  IDiag  3:
 E= -2.34243216711691     Delta-E=        0.000000000000 Rises=F Damp=F
 DIIS: error= 4.89D-09 at cycle  11 NSaved=  11.
 NSaved=11 IEnMin=11 EnMin= -2.34243216711691     IErMin=11 ErrMin= 4.89D-09
 ErrMax= 4.89D-09  0.00D+00 EMaxC= 1.00D-01 BMatC= 9.08D-16 BMatP= 1.99D-14
 IDIUse=1 WtCom= 1.00D+00 WtEn= 0.00D+00
 Coeff-Com: -0.544D-04 0.180D-03-0.377D-03 0.298D-03 0.257D-02-0.126D-01
 Coeff-Com:  0.385D-01-0.118D+00 0.352D+00-0.778D+00 0.152D+01
 Coeff:     -0.544D-04 0.180D-03-0.377D-03 0.298D-03 0.257D-02-0.126D-01
 Coeff:      0.385D-01-0.118D+00 0.352D+00-0.778D+00 0.152D+01
 Gap=     0.381 Goal=   None    Shift=    0.000
 RMSDP=6.35D-09 MaxDP=4.07D-08 DE=-1.56D-13 OVMax= 5.33D-08

 Cycle  12  Pass 2  IDiag  1:
 SCF Done:  E(RAM1) =  -2.34243216712     A.U. after   12 cycles
            NFock= 11  Conv=0.64D-08     -V/T= 0.8790
 KE=-1.936402240044D+01 PE=-1.704078286015D+02 EE= 8.515949840990D+01
 Leave Link  502 at Mon Nov 23 02:20:27 2015, MaxMem=    33554432 cpu:         0.0
 (Enter /home/Applications/g09/g09/l701.exe)
 Compute integral first derivatives.
 ... and contract with generalized density number  0.
 Leave Link  701 at Mon Nov 23 02:20:27 2015, MaxMem=    33554432 cpu:         0.0
 (Enter /home/Applications/g09/g09/l702.exe)
 L702 exits ... SP integral derivatives will be done elsewhere.
 Leave Link  702 at Mon Nov 23 02:20:27 2015, MaxMem=    33554432 cpu:         0.0
 (Enter /home/Applications/g09/g09/l703.exe)
 Compute integral first derivatives, UseDBF=F ICtDFT=           0.
 Integral derivatives from FoFJK, PRISM(SPDF).
 Calling FoFJK, ICntrl=      2127 FMM=F ISym2X=0 I1Cent= 0 IOpClX= 0 NMat=1 NMatS=1 NMatT=0.
 FoFJK:  IHMeth= 8 ICntrl=    2127 DoSepK=F KAlg= 0 I1Cent=   0 FoldK=F
 IRaf=         0 NMat=   1 IRICut=       1 DoRegI=T DoRafI=F ISym2E= 0.
 FoFCou: FMM=F IPFlag=           0 FMFlag=      100000 FMFlg1=         800
         NFxFlg=           0 DoJE=F BraDBF=F KetDBF=F FulRan=T
         wScrn=  0.000000 ICntrl=    2127 IOpCl=  0 I1Cent=           0 NGrid=           0
         NMat0=    1 NMatS0=      1 NMatT0=    0 NMatD0=    1 NMtDS0=    0 NMtDT0=    0
 Symmetry not used in FoFCou.
 Leave Link  703 at Mon Nov 23 02:20:27 2015, MaxMem=    33554432 cpu:         0.0
 (Enter /home/Applications/g09/g09/l716.exe)
 Dipole        =-1.37586746D-02-1.62118743D-01 1.26290643D-02
 ***** Axes restored to original set *****
 -------------------------------------------------------------------
 Center     Atomic                   Forces (Hartrees/Bohr)
 Number     Number              X              Y              Z
 -------------------------------------------------------------------
      1        6           0.000914116    0.000664011   -0.005546344
      2        6          -0.005389190   -0.007983155    0.004746051
      3        8           0.002077434   -0.000588077   -0.000839849
      4        6          -0.002334136    0.003159888   -0.000872200
      5        6           0.003015328    0.006542058    0.003294351
      6        1          -0.002427034   -0.002961330   -0.000210780
      7        1           0.001159324   -0.000776900   -0.000389804
      8        1           0.002055898    0.003582193   -0.001106420
      9        1           0.000928261   -0.001638690    0.000924994
 -------------------------------------------------------------------
 Cartesian Forces:  Max     0.007983155 RMS     0.003168896
 Leave Link  716 at Mon Nov 23 02:20:27 2015, MaxMem=    33554432 cpu:         0.0
 (Enter /home/Applications/g09/g09/l103.exe)

 GradGradGradGradGradGradGradGradGradGradGradGradGradGradGradGradGradGrad
 Berny optimization.
 Using GEDIIS/GDIIS optimizer.
 FormGI is forming the generalized inverse of G from B-inverse, IUseBI=4.
 Internal  Forces:  Max     0.004127510 RMS     0.001535447
 Search for a local minimum.
 Step number   3 out of a maximum of   48
 All quantities printed in internal units (Hartrees-Bohrs-Radians)
 RMS Force = .15354D-02 SwitMx=.10000D-02 MixMth= 1
 Mixed Optimization -- RFO/linear search
 Update second derivatives using D2CorX and points    1    2    3
 DE= -7.23D-04 DEPred=-1.02D-03 R= 7.08D-01
 TightC=F SS=  1.41D+00  RLast= 1.94D-01 DXNew= 8.4853D-01 5.8147D-01
 Trust test= 7.08D-01 RLast= 1.94D-01 DXMaxT set to 5.81D-01
 ITU=  1  1  0
 Use linear search instead of GDIIS.
     Eigenvalues ---    0.01746   0.02005   0.02070   0.02231   0.02286
     Eigenvalues ---    0.03264   0.12760   0.15985   0.16012   0.16023
     Eigenvalues ---    0.23130   0.26310   0.34979   0.37899   0.39410
     Eigenvalues ---    0.42464   0.43262   0.44385   0.47064   0.50491
     Eigenvalues ---    0.52156
 RFO step:  Lambda=-3.87507709D-04 EMin= 1.74576341D-02
 Quartic linear search produced a step of -0.21188.
 Iteration  1 RMS(Cart)=  0.01188602 RMS(Int)=  0.00023988
 Iteration  2 RMS(Cart)=  0.00018419 RMS(Int)=  0.00017081
[...]
 Coeff:     -0.532D+00 0.145D+01
 Gap=     0.381 Goal=   None    Shift=    0.000
 RMSDP=1.84D-08 MaxDP=1.68D-07 DE=-5.83D-13 OVMax= 1.90D-07

 Cycle   9  Pass 1  IDiag  3:
 E= -2.34267389249814     Delta-E=        0.000000000000 Rises=F Damp=F
 DIIS: error= 4.81D-09 at cycle   9 NSaved=   9.
 NSaved= 9 IEnMin= 9 EnMin= -2.34267389249814     IErMin= 9 ErrMin= 4.81D-09
 ErrMax= 4.81D-09  0.00D+00 EMaxC= 1.00D-01 BMatC= 7.99D-16 BMatP= 7.62D-15
 IDIUse=1 WtCom= 1.00D+00 WtEn= 0.00D+00
 Coeff-Com: -0.486D-03 0.165D-02-0.374D-02 0.770D-02-0.135D-01-0.382D-02
 Coeff-Com:  0.181D+00-0.810D+00 0.164D+01
 Coeff:     -0.486D-03 0.165D-02-0.374D-02 0.770D-02-0.135D-01-0.382D-02
 Coeff:      0.181D+00-0.810D+00 0.164D+01
 Gap=     0.381 Goal=   None    Shift=    0.000
 RMSDP=7.02D-09 MaxDP=6.81D-08 DE=-1.28D-13 OVMax= 7.83D-08

 Cycle  10  Pass 2  IDiag  1:
 SCF Done:  E(RAM1) =  -2.34267389250     A.U. after   10 cycles
            NFock=  9  Conv=0.70D-08     -V/T= 0.8790
 KE=-1.936399974202D+01 PE=-1.703725002697D+02 EE= 8.513856534501D+01
 Leave Link  502 at Mon Nov 23 02:20:28 2015, MaxMem=    33554432 cpu:         0.0
 (Enter /home/Applications/g09/g09/l701.exe)
 Compute integral first derivatives.
 ... and contract with generalized density number  0.
 Leave Link  701 at Mon Nov 23 02:20:28 2015, MaxMem=    33554432 cpu:         0.0
 (Enter /home/Applications/g09/g09/l702.exe)
 L702 exits ... SP integral derivatives will be done elsewhere.
 Leave Link  702 at Mon Nov 23 02:20:28 2015, MaxMem=    33554432 cpu:         0.0
 (Enter /home/Applications/g09/g09/l703.exe)
 Compute integral first derivatives, UseDBF=F ICtDFT=           0.
 Integral derivatives from FoFJK, PRISM(SPDF).
 Calling FoFJK, ICntrl=      2127 FMM=F ISym2X=0 I1Cent= 0 IOpClX= 0 NMat=1 NMatS=1 NMatT=0.
 FoFJK:  IHMeth= 8 ICntrl=    2127 DoSepK=F KAlg= 0 I1Cent=   0 FoldK=F
 IRaf=         0 NMat=   1 IRICut=       1 DoRegI=T DoRafI=F ISym2E= 0.
 FoFCou: FMM=F IPFlag=           0 FMFlag=      100000 FMFlg1=         800
         NFxFlg=           0 DoJE=F BraDBF=F KetDBF=F FulRan=T
         wScrn=  0.000000 ICntrl=    2127 IOpCl=  0 I1Cent=           0 NGrid=           0
         NMat0=    1 NMatS0=      1 NMatT0=    0 NMatD0=    1 NMtDS0=    0 NMtDT0=    0
 Symmetry not used in FoFCou.
 Leave Link  703 at Mon Nov 23 02:20:28 2015, MaxMem=    33554432 cpu:         0.0
 (Enter /home/Applications/g09/g09/l716.exe)
 Dipole        = 7.88249098D-05-1.57629209D-01-2.67236842D-04
 ***** Axes restored to original set *****
 -------------------------------------------------------------------
 Center     Atomic                   Forces (Hartrees/Bohr)
 Number     Number              X              Y              Z
 -------------------------------------------------------------------
      1        6           0.000086090   -0.000082607   -0.000004054
      2        6          -0.000051174   -0.000043617   -0.000114450
      3        8           0.000060032    0.000032164    0.000118192
      4        6          -0.000074281    0.000083014   -0.000117794
      5        6          -0.000054067    0.000031632    0.000095147
      6        1           0.000073636    0.000065054   -0.000021755
      7        1          -0.000003688    0.000031499    0.000011241
      8        1          -0.000051761   -0.000101584    0.000014141
      9        1           0.000015213   -0.000015554    0.000019331
 -------------------------------------------------------------------
 Cartesian Forces:  Max     0.000118192 RMS     0.000065276
 Leave Link  716 at Mon Nov 23 02:20:28 2015, MaxMem=    33554432 cpu:         0.0
 (Enter /home/Applications/g09/g09/l103.exe)

 GradGradGradGradGradGradGradGradGradGradGradGradGradGradGradGradGradGrad
 Berny optimization.
 Using GEDIIS/GDIIS optimizer.
 FormGI is forming the generalized inverse of G from B-inverse, IUseBI=4.
 Internal  Forces:  Max     0.000151642 RMS     0.000049430
 Search for a local minimum.
 Step number   7 out of a maximum of   48
 All quantities printed in internal units (Hartrees-Bohrs-Radians)
 RMS Force = .49430D-04 SwitMx=.10000D-02 MixMth= 2
 Mixed Optimization -- En-DIIS/RFO-DIIS
 Swapping is turned off.
 Update second derivatives using D2CorX and points    1    2    3    4    5
                                                      6    7
 DE= -1.13D-06 DEPred=-1.46D-06 R= 7.75D-01
 TightC=F SS=  1.41D+00  RLast= 7.22D-03 DXNew= 9.7792D-01 2.1673D-02
 Trust test= 7.75D-01 RLast= 7.22D-03 DXMaxT set to 5.81D-01
 ITU=  1  1  1  1  1  1  0
     Eigenvalues ---    0.01553   0.01983   0.02083   0.02156   0.04025
     Eigenvalues ---    0.05708   0.12106   0.15230   0.16001   0.16041
     Eigenvalues ---    0.24074   0.27920   0.34954   0.37966   0.39564
     Eigenvalues ---    0.41581   0.41968   0.43930   0.47537   0.51413
     Eigenvalues ---    0.61543
 En-DIIS/RFO-DIIS IScMMF=        0 using points:     7    6    5    4
 RFO step:  Lambda=-1.72860389D-07.
 NNeg= 0 NP= 4 Switch=  2.50D-03 Rises=F DC=  5.96D-05 SmlDif=  1.00D-05
 RMS Error=  0.1103192837D-03 NUsed= 4 EDIIS=F
 DidBck=T Rises=F RFO-DIIS coefs:    0.73839    0.20246    0.04954    0.00962
 Iteration  1 RMS(Cart)=  0.00027817 RMS(Int)=  0.00000032
 Iteration  2 RMS(Cart)=  0.00000014 RMS(Int)=  0.00000029
 ITry= 1 IFail=0 DXMaxC= 1.06D-03 DCOld= 1.00D+10 DXMaxT= 5.81D-01 DXLimC= 3.00D+00 Rises=F
 Variable       Old X    -DE/DX   Delta X   Delta X   Delta X     New X
                                 (Linear)    (Quad)   (Total)
    R1        2.60033   0.00010   0.00005   0.00012   0.00017   2.60050
    R2        2.71711   0.00015   0.00013   0.00015   0.00028   2.71739
    R3        2.02701   0.00002   0.00005  -0.00005   0.00000   2.02701
    R4        2.61709   0.00006  -0.00013   0.00022   0.00009   2.61718
    R5        2.02646   0.00011   0.00020   0.00006   0.00026   2.02672
    R6        2.61718   0.00002   0.00020  -0.00020   0.00000   2.61718
    R7        2.60041   0.00005   0.00003  -0.00001   0.00003   2.60043
    R8        2.02667   0.00003  -0.00010   0.00019   0.00009   2.02676
    R9        2.02680   0.00010   0.00003   0.00022   0.00026   2.02706
    A1        1.85474  -0.00001  -0.00017   0.00027   0.00010   1.85484
    A2        2.24679   0.00000   0.00005  -0.00009  -0.00004   2.24675
    A3        2.18166   0.00001   0.00012  -0.00018  -0.00006   2.18160
    A4        1.93472  -0.00006   0.00012  -0.00039  -0.00028   1.93444
    A5        2.33250   0.00003   0.00009   0.00003   0.00011   2.33261
    A6        2.01597   0.00003  -0.00020   0.00037   0.00016   2.01613
    A7        1.84595   0.00010   0.00007   0.00023   0.00031   1.84626
    A8        1.93472  -0.00005  -0.00020   0.00008  -0.00012   1.93460
    A9        2.01583   0.00004   0.00030  -0.00021   0.00008   2.01591
   A10        2.33263   0.00001  -0.00010   0.00014   0.00004   2.33267
   A11        1.85464   0.00002   0.00018  -0.00018  -0.00001   1.85463
   A12        2.18164   0.00000  -0.00009   0.00020   0.00010   2.18174
   A13        2.24690  -0.00002  -0.00008  -0.00001  -0.00010   2.24681
    D1        0.00056  -0.00002  -0.00012  -0.00064  -0.00076  -0.00020
    D2        3.14115   0.00002   0.00062  -0.00008   0.00054  -3.14150
    D3       -3.14065  -0.00003  -0.00029  -0.00055  -0.00084  -3.14149
    D4       -0.00006   0.00001   0.00044   0.00001   0.00046   0.00040
    D5        0.00007  -0.00001  -0.00024   0.00018  -0.00006   0.00001
    D6        3.14081   0.00001   0.00019   0.00030   0.00049   3.14129
    D7        3.14130   0.00000  -0.00007   0.00009   0.00002   3.14131
    D8       -0.00115   0.00002   0.00035   0.00021   0.00056  -0.00059
    D9       -0.00096   0.00005   0.00042   0.00085   0.00127   0.00030
   D10        3.14144   0.00001  -0.00017   0.00039   0.00023  -3.14152
   D11        0.00101  -0.00005  -0.00058  -0.00073  -0.00130  -0.00030
   D12       -3.14128  -0.00002  -0.00062   0.00020  -0.00042   3.14149
   D13       -0.00068   0.00004   0.00051   0.00034   0.00086   0.00018
   D14       -3.14137   0.00002   0.00007   0.00022   0.00029  -3.14108
   D15       -3.14141   0.00000   0.00057  -0.00081  -0.00024   3.14153
   D16        0.00109  -0.00003   0.00012  -0.00094  -0.00081   0.00027
         Item               Value     Threshold  Converged?
 Maximum Force            0.000152     0.000450     YES
 RMS     Force            0.000049     0.000300     YES
 Maximum Displacement     0.001060     0.001800     YES
 RMS     Displacement     0.000278     0.001200     YES
 Predicted change in Energy=-2.311628D-07
 Optimization completed.
    -- Stationary point found.
                           ----------------------------
                           !   Optimized Parameters   !
                           ! (Angstroms and Degrees)  !
 --------------------------                            --------------------------
 ! Name  Definition              Value          Derivative Info.                !
 --------------------------------------------------------------------------------
 ! R1    R(1,2)                  1.376          -DE/DX =    0.0001              !
 ! R2    R(1,5)                  1.4378         -DE/DX =    0.0002              !
 ! R3    R(1,9)                  1.0726         -DE/DX =    0.0                 !
 ! R4    R(2,3)                  1.3849         -DE/DX =    0.0001              !
 ! R5    R(2,8)                  1.0724         -DE/DX =    0.0001              !
 ! R6    R(3,4)                  1.385          -DE/DX =    0.0                 !
 ! R7    R(4,5)                  1.3761         -DE/DX =    0.0001              !
 ! R8    R(4,7)                  1.0725         -DE/DX =    0.0                 !
 ! R9    R(5,6)                  1.0725         -DE/DX =    0.0001              !
 ! A1    A(2,1,5)              106.2688         -DE/DX =    0.0                 !
 ! A2    A(2,1,9)              128.7313         -DE/DX =    0.0                 !
 ! A3    A(5,1,9)              124.9999         -DE/DX =    0.0                 !
 ! A4    A(1,2,3)              110.8513         -DE/DX =   -0.0001              !
 ! A5    A(1,2,8)              133.6423         -DE/DX =    0.0                 !
 ! A6    A(3,2,8)              115.5064         -DE/DX =    0.0                 !
 ! A7    A(2,3,4)              105.7654         -DE/DX =    0.0001              !
 ! A8    A(3,4,5)              110.8515         -DE/DX =    0.0                 !
 ! A9    A(3,4,7)              115.4984         -DE/DX =    0.0                 !
 ! A10   A(5,4,7)              133.65           -DE/DX =    0.0                 !
 ! A11   A(1,5,4)              106.263          -DE/DX =    0.0                 !
 ! A12   A(1,5,6)              124.9989         -DE/DX =    0.0                 !
 ! A13   A(4,5,6)              128.7381         -DE/DX =    0.0                 !
 ! D1    D(5,1,2,3)              0.0322         -DE/DX =    0.0                 !
 ! D2    D(5,1,2,8)           -180.0254         -DE/DX =    0.0                 !
 ! D3    D(9,1,2,3)           -179.9457         -DE/DX =    0.0                 !
 ! D4    D(9,1,2,8)             -0.0034         -DE/DX =    0.0                 !
 ! D5    D(2,1,5,4)              0.0039         -DE/DX =    0.0                 !
 ! D6    D(2,1,5,6)            179.9549         -DE/DX =    0.0                 !
 ! D7    D(9,1,5,4)            179.9829         -DE/DX =    0.0                 !
 ! D8    D(9,1,5,6)             -0.0661         -DE/DX =    0.0                 !
 ! D9    D(1,2,3,4)             -0.0552         -DE/DX =    0.0                 !
 ! D10   D(8,2,3,4)           -180.009          -DE/DX =    0.0                 !
 ! D11   D(2,3,4,5)              0.0578         -DE/DX =   -0.0001              !
 ! D12   D(2,3,4,7)            180.0181         -DE/DX =    0.0                 !
 ! D13   D(3,4,5,1)             -0.0388         -DE/DX =    0.0                 !
 ! D14   D(3,4,5,6)           -179.9873         -DE/DX =    0.0                 !
 ! D15   D(7,4,5,1)            180.0107         -DE/DX =    0.0                 !
 ! D16   D(7,4,5,6)              0.0622         -DE/DX =    0.0                 !
 --------------------------------------------------------------------------------
 Lowest energy point so far.  Saving SCF results.
 GradGradGradGradGradGradGradGradGradGradGradGradGradGradGradGradGradGrad

 Largest change from initial coordinates is atom    6       1.753 Angstoms.
 Leave Link  103 at Mon Nov 23 02:20:28 2015, MaxMem=    33554432 cpu:         0.0
 (Enter /home/Applications/g09/g09/l202.exe)
                          Input orientation:                          
 ---------------------------------------------------------------------
 Center     Atomic      Atomic             Coordinates (Angstroms)
 Number     Number       Type             X           Y           Z
 ---------------------------------------------------------------------
      1          6           0        0.956252   -0.721311    0.001675
      2          6           0       -0.365151   -1.104474   -0.021833
      3          8           0       -1.199055    0.001217   -0.023932
      4          6           0       -0.361705    1.104097    0.000379
      5          6           0        0.958548    0.716447    0.016077
      6          1           0        1.838005    1.330041    0.035998
      7          1           0       -0.853463    2.057175    0.002468
      8          1           0       -0.859669   -2.055845   -0.039049
      9          1           0        1.833839   -1.338053    0.008260
 ---------------------------------------------------------------------
                    Distance matrix (angstroms):
                    1          2          3          4          5
     1  C    0.000000
     2  C    1.376035   0.000000
     3  O    2.273335   1.384902   0.000000
     4  C    2.251472   2.208685   1.384950   0.000000
     5  C    1.437832   2.251525   2.273412   1.376077   0.000000
     6  H    2.233094   3.283915   3.315584   2.211571   1.072539
     7  H    3.315879   3.199228   2.084968   1.072468   2.254134
     8  H    2.253932   1.072359   2.084926   3.199180   3.315804
     9  H    1.072647   2.211565   3.315588   3.283987   2.233196
                    6          7          8          9
     6  H    0.000000
     7  H    2.788162   0.000000
     8  H    4.329816   4.113234   0.000000
     9  H    2.668241   4.330034   2.787911   0.000000
 Stoichiometry    C4H4O
 Framework group  C1[X(C4H4O)]
 Deg. of freedom    21
 Full point group                 C1      NOp   1
 RotChk:  IX=0 Diff= 6.50D-14
 Largest Abelian subgroup         C1      NOp   1
 Largest concise Abelian subgroup C1      NOp   1
                         Standard orientation:                         
 ---------------------------------------------------------------------
 Center     Atomic      Atomic             Coordinates (Angstroms)
 Number     Number       Type             X           Y           Z
 ---------------------------------------------------------------------
      1          6           0        0.718809    0.971607   -0.000028
      2          6           0        1.104369   -0.349307    0.000318
      3          8           0        0.000133   -1.185139   -0.000299
      4          6           0       -1.104316   -0.349507    0.000233
      5          6           0       -0.719022    0.971529   -0.000142
      6          1           0       -1.334236    1.850080    0.000290
      7          1           0       -2.056554   -0.842893    0.000163
      8          1           0        2.056680   -0.842314    0.000167
      9          1           0        1.334005    1.850303   -0.000510
 ---------------------------------------------------------------------
 Rotational constants (GHZ):      9.3959242      8.9728525      4.5897584
 Leave Link  202 at Mon Nov 23 02:20:28 2015, MaxMem=    33554432 cpu:         0.0
 (Enter /home/Applications/g09/g09/l601.exe)
 Copying SCF densities to generalized density rwf, IOpCl= 0 IROHF=0.

 **********************************************************************

            Population analysis using the SCF density.

 **********************************************************************

 Orbital symmetries:
       Occupied  (A) (A) (A) (A) (A) (A) (A) (A) (A) (A) (A) (A)
                 (A)
       Virtual   (A) (A) (A) (A) (A) (A) (A) (A) (A) (A) (A)
 The electronic state is 1-A.
 Alpha  occ. eigenvalues --   -1.66299  -1.21882  -1.00357  -0.80151  -0.78856
 Alpha  occ. eigenvalues --   -0.68961  -0.59305  -0.56140  -0.55340  -0.52343
 Alpha  occ. eigenvalues --   -0.51639  -0.42275  -0.39421
 Alpha virt. eigenvalues --   -0.01336   0.01262   0.10714   0.14407   0.18131
 Alpha virt. eigenvalues --    0.18325   0.19513   0.20222   0.20831   0.21579
 Alpha virt. eigenvalues --    0.22873
          Condensed to atoms (all electrons):
               1          2          3          4          5          6
     1  C    4.471726   0.000000   0.000000   0.000000   0.000000   0.000000
     2  C    0.000000   4.352336   0.000000   0.000000   0.000000   0.000000
     3  O    0.000000   0.000000   5.883946   0.000000   0.000000   0.000000
     4  C    0.000000   0.000000   0.000000   4.352369   0.000000   0.000000
     5  C    0.000000   0.000000   0.000000   0.000000   4.471673   0.000000
     6  H    0.000000   0.000000   0.000000   0.000000   0.000000   0.619862
     7  H    0.000000   0.000000   0.000000   0.000000   0.000000   0.000000
     8  H    0.000000   0.000000   0.000000   0.000000   0.000000   0.000000
     9  H    0.000000   0.000000   0.000000   0.000000   0.000000   0.000000
               7          8          9
     1  C    0.000000   0.000000   0.000000
     2  C    0.000000   0.000000   0.000000
     3  O    0.000000   0.000000   0.000000
     4  C    0.000000   0.000000   0.000000
     5  C    0.000000   0.000000   0.000000
     6  H    0.000000   0.000000   0.000000
     7  H    0.614108   0.000000   0.000000
     8  H    0.000000   0.614128   0.000000
     9  H    0.000000   0.000000   0.619851
 Mulliken charges:
               1
     1  C   -0.471726
     2  C   -0.352336
     3  O    0.116054
     4  C   -0.352369
     5  C   -0.471673
     6  H    0.380138
     7  H    0.385892
     8  H    0.385872
     9  H    0.380149
 Sum of Mulliken charges =   0.00000
 Mulliken charges with hydrogens summed into heavy atoms:
               1
     1  C   -0.091577
     2  C    0.033535
     3  O    0.116054
     4  C    0.033523
     5  C   -0.091536
 Charge=              0.0000 electrons
 Dipole moment (field-independent basis, Debye):
    X=              0.0002    Y=             -0.4007    Z=             -0.0007  Tot=              0.4007
 N-N= 1.022552607742D+02 E-N=-1.703725002664D+02  KE=-1.936399974202D+01
 Leave Link  601 at Mon Nov 23 02:20:28 2015, MaxMem=    33554432 cpu:         0.0
 (Enter /home/Applications/g09/g09/l9999.exe)
 1\1\GINC-DUSTIN-DESKTOP\FOpt\RAM1\ZDO\C4H4O1\DUSTIN\23-Nov-2015\0\\#P 
 AM1(Input,print) Opt\\AM1-Reparam Input\\0,1\C,0.9562524382,-0.7213110
 634,0.0016753222\C,-0.3651505481,-1.1044737331,-0.0218331004\O,-1.1990
 547435,0.001217189,-0.0239316585\C,-0.3617053552,1.1040965181,0.000378
 8578\C,0.9585476395,0.7164468033,0.0160769709\H,1.8380050378,1.3300408
 85,0.0359977115\H,-0.8534626921,2.0571746646,0.0024677331\H,-0.8596689
 766,-2.0558453555,-0.0390491259\H,1.8338391999,-1.338052908,0.00826028
 93\\Version=ES64L-G09RevD.01\State=1-A\HF=-2.3426739\RMSD=7.017e-09\RM
 SF=6.528e-05\Dipole=-0.157607,0.0002079,-0.0026501\PG=C01 [X(C4H4O1)]\
 \@


 "TIGER, TIGER BURNING BRIGHT
 IN THE FOREST OF THE NIGHT.
 WHAT IMMORTAL HAND OR EYE
 CAN FRAME THY FEARFUL SYMMETRYE?"
                     - WILLIAM BLAKE
 Job cpu time:       0 days  0 hours  0 minutes  1.2 seconds.
 File lengths (MBytes):  RWF=      5 Int=      0 D2E=      0 Chk=      2 Scr=      1
 Normal termination of Gaussian 09 at Mon Nov 23 02:20:28 2015.
