 Entering Gaussian System, Link 0=g09
 Input=FuranAM1Best2.com
 Output=FuranAM1Best2.log
 Initial command:
 /home/Applications/g09/g09/l1.exe "/home/Applications/g09/scratch/Gau-2428.inp" -scrdir="/home/Applications/g09/scratch/"
 Entering Link 1 = /home/Applications/g09/g09/l1.exe PID=      2430.
  
 Copyright (c) 1988,1990,1992,1993,1995,1998,2003,2009,2013,
            Gaussian, Inc.  All Rights Reserved.
  
 This is part of the Gaussian(R) 09 program.  It is based on
 the Gaussian(R) 03 system (copyright 2003, Gaussian, Inc.),
 the Gaussian(R) 98 system (copyright 1998, Gaussian, Inc.),
 the Gaussian(R) 94 system (copyright 1995, Gaussian, Inc.),
 the Gaussian 92(TM) system (copyright 1992, Gaussian, Inc.),
 the Gaussian 90(TM) system (copyright 1990, Gaussian, Inc.),
 the Gaussian 88(TM) system (copyright 1988, Gaussian, Inc.),
 the Gaussian 86(TM) system (copyright 1986, Carnegie Mellon
 University), and the Gaussian 82(TM) system (copyright 1983,
 Carnegie Mellon University). Gaussian is a federally registered
 trademark of Gaussian, Inc.
  
 This software contains proprietary and confidential information,
 including trade secrets, belonging to Gaussian, Inc.
  
 This software is provided under written license and may be
 used, copied, transmitted, or stored only in accord with that
 written license.
  
 The following legend is applicable only to US Government
 contracts under FAR:
  
                    RESTRICTED RIGHTS LEGEND
  
 Use, reproduction and disclosure by the US Government is
 subject to restrictions as set forth in subparagraphs (a)
 and (c) of the Commercial Computer Software - Restricted
 Rights clause in FAR 52.227-19.
  
 Gaussian, Inc.
 340 Quinnipiac St., Bldg. 40, Wallingford CT 06492
  
  
 ---------------------------------------------------------------
 Warning -- This program may not be used in any manner that
 competes with the business of Gaussian, Inc. or will provide
 assistance to any competitor of Gaussian, Inc.  The licensee
 of this program is prohibited from giving any competitor of
 Gaussian, Inc. access to this program.  By using this program,
 the user acknowledges that Gaussian, Inc. is engaged in the
 business of creating and licensing software in the field of
 computational chemistry and represents and warrants to the
 licensee that it is not a competitor of Gaussian, Inc. and that
 it will not use this program in any manner prohibited above.
 ---------------------------------------------------------------
  

 Cite this work as:
 Gaussian 09, Revision D.01,
 M. J. Frisch, G. W. Trucks, H. B. Schlegel, G. E. Scuseria, 
 M. A. Robb, J. R. Cheeseman, G. Scalmani, V. Barone, B. Mennucci, 
 G. A. Petersson, H. Nakatsuji, M. Caricato, X. Li, H. P. Hratchian, 
 A. F. Izmaylov, J. Bloino, G. Zheng, J. L. Sonnenberg, M. Hada, 
 M. Ehara, K. Toyota, R. Fukuda, J. Hasegawa, M. Ishida, T. Nakajima, 
 Y. Honda, O. Kitao, H. Nakai, T. Vreven, J. A. Montgomery, Jr., 
 J. E. Peralta, F. Ogliaro, M. Bearpark, J. J. Heyd, E. Brothers, 
 K. N. Kudin, V. N. Staroverov, T. Keith, R. Kobayashi, J. Normand, 
 K. Raghavachari, A. Rendell, J. C. Burant, S. S. Iyengar, J. Tomasi, 
 M. Cossi, N. Rega, J. M. Millam, M. Klene, J. E. Knox, J. B. Cross, 
 V. Bakken, C. Adamo, J. Jaramillo, R. Gomperts, R. E. Stratmann, 
 O. Yazyev, A. J. Austin, R. Cammi, C. Pomelli, J. W. Ochterski, 
 R. L. Martin, K. Morokuma, V. G. Zakrzewski, G. A. Voth, 
 P. Salvador, J. J. Dannenberg, S. Dapprich, A. D. Daniels, 
 O. Farkas, J. B. Foresman, J. V. Ortiz, J. Cioslowski, 
 and D. J. Fox, Gaussian, Inc., Wallingford CT, 2013.
 
 ******************************************
 Gaussian 09:  ES64L-G09RevD.01 24-Apr-2013
                23-Nov-2015 
 ******************************************
 -----------------------
 #P AM1(Input,print) Opt
 -----------------------
 1/14=-1,18=20,19=15,26=1,38=1/1,3;
 2/9=110,12=2,17=6,18=5,40=1/2;
 3/5=2,16=1,25=1,41=700000,71=1,135=100,136=1/1,2,3;
 4/35=1/1;
 5/5=2,35=1,38=5/2;
 6/7=2,8=2,9=2,10=2,28=1/1;
 7//1,2,3,16;
 1/14=-1,18=20,19=15,26=1/3(2);
 2/9=110/2;
 99//99;
 2/9=110/2;
 3/5=2,16=1,25=1,41=700000,71=1,135=20,136=1/1,2,3;
 4/5=5,16=3,35=1/1;
 5/5=2,35=1,38=5/2;
 7//1,2,3,16;
 1/14=-1,18=20,19=15,26=1/3(-5);
 2/9=110/2;
 6/7=2,8=2,9=2,10=2,19=2,28=1/1;
 99/9=1/99;
 Leave Link    1 at Mon Nov 23 02:20:18 2015, MaxMem=           0 cpu:         0.0
 (Enter /home/Applications/g09/g09/l101.exe)
 -----------------
 AM1-Reparam Input
 -----------------
 Symbolic Z-matrix:
 Charge =  0 Multiplicity = 1
 6                     1.00364  -0.7298    0.02576 
 6                    -0.39476  -1.09432  -0.00535 
 8                    -1.19972   0.03735   0.02871 
 6                    -0.3797    1.06438  -0.01145 
 6                     0.98866   0.68865   0.03786 
 1                     1.83835   1.36009   0.00667 
 1                    -0.80036   2.00855   0.02256 
 1                    -0.83286  -2.00447  -0.03695 
 1                     1.82515  -1.40195   0.04592 
 
 NAtoms=      9 NQM=        9 NQMF=       0 NMMI=      0 NMMIF=      0
                NMic=       0 NMicF=      0.
                    Isotopes and Nuclear Properties:
 (Nuclear quadrupole moments (NQMom) in fm**2, nuclear magnetic moments (NMagM)
  in nuclear magnetons)

  Atom         1           2           3           4           5           6           7           8           9
 IAtWgt=          12          12          16          12          12           1           1           1           1
 AtmWgt=  12.0000000  12.0000000  15.9949146  12.0000000  12.0000000   1.0078250   1.0078250   1.0078250   1.0078250
 NucSpn=           0           0           0           0           0           1           1           1           1
 AtZEff=   0.0000000   0.0000000   0.0000000   0.0000000   0.0000000   0.0000000   0.0000000   0.0000000   0.0000000
 NQMom=    0.0000000   0.0000000   0.0000000   0.0000000   0.0000000   0.0000000   0.0000000   0.0000000   0.0000000
 NMagM=    0.0000000   0.0000000   0.0000000   0.0000000   0.0000000   2.7928460   2.7928460   2.7928460   2.7928460
 AtZNuc=   6.0000000   6.0000000   8.0000000   6.0000000   6.0000000   1.0000000   1.0000000   1.0000000   1.0000000
 Leave Link  101 at Mon Nov 23 02:20:18 2015, MaxMem=    33554432 cpu:         0.0
 (Enter /home/Applications/g09/g09/l103.exe)

 GradGradGradGradGradGradGradGradGradGradGradGradGradGradGradGradGradGrad
 Berny optimization.
 Initialization pass.
                           ----------------------------
                           !    Initial Parameters    !
                           ! (Angstroms and Degrees)  !
 --------------------------                            --------------------------
 ! Name  Definition              Value          Derivative Info.                !
 --------------------------------------------------------------------------------
 ! R1    R(1,2)                  1.4455         estimate D2E/DX2                !
 ! R2    R(1,5)                  1.4186         estimate D2E/DX2                !
 ! R3    R(1,9)                  1.0616         estimate D2E/DX2                !
 ! R4    R(2,3)                  1.3892         estimate D2E/DX2                !
 ! R5    R(2,8)                  1.0106         estimate D2E/DX2                !
 ! R6    R(3,4)                  1.3149         estimate D2E/DX2                !
 ! R7    R(4,5)                  1.4199         estimate D2E/DX2                !
 ! R8    R(4,7)                  1.0342         estimate D2E/DX2                !
 ! R9    R(5,6)                  1.0834         estimate D2E/DX2                !
 ! A1    A(2,1,5)              104.0126         estimate D2E/DX2                !
 ! A2    A(2,1,9)              126.112          estimate D2E/DX2                !
 ! A3    A(5,1,9)              129.8717         estimate D2E/DX2                !
 ! A4    A(1,2,3)              110.7701         estimate D2E/DX2                !
 ! A5    A(1,2,8)              130.3302         estimate D2E/DX2                !
 ! A6    A(3,2,8)              118.8965         estimate D2E/DX2                !
 ! A7    A(2,3,4)              105.9131         estimate D2E/DX2                !
 ! A8    A(3,4,5)              113.1584         estimate D2E/DX2                !
 ! A9    A(3,4,7)              117.2853         estimate D2E/DX2                !
 ! A10   A(5,4,7)              129.231          estimate D2E/DX2                !
 ! A11   A(1,5,4)              105.9311         estimate D2E/DX2                !
 ! A12   A(1,5,6)              127.6739         estimate D2E/DX2                !
 ! A13   A(4,5,6)              126.2152         estimate D2E/DX2                !
 ! D1    D(5,1,2,3)             -1.7752         estimate D2E/DX2                !
 ! D2    D(5,1,2,8)            178.893          estimate D2E/DX2                !
 ! D3    D(9,1,2,3)            177.5823         estimate D2E/DX2                !
 ! D4    D(9,1,2,8)             -1.7495         estimate D2E/DX2                !
 ! D5    D(2,1,5,4)             -1.06           estimate D2E/DX2                !
 ! D6    D(2,1,5,6)           -176.3882         estimate D2E/DX2                !
 ! D7    D(9,1,5,4)            179.6163         estimate D2E/DX2                !
 ! D8    D(9,1,5,6)              4.2881         estimate D2E/DX2                !
 ! D9    D(1,2,3,4)              4.0741         estimate D2E/DX2                !
 ! D10   D(8,2,3,4)           -176.5078         estimate D2E/DX2                !
 ! D11   D(2,3,4,5)             -4.8762         estimate D2E/DX2                !
 ! D12   D(2,3,4,7)           -178.9358         estimate D2E/DX2                !
 ! D13   D(3,4,5,1)              3.8339         estimate D2E/DX2                !
 ! D14   D(3,4,5,6)            179.2509         estimate D2E/DX2                !
 ! D15   D(7,4,5,1)            177.0143         estimate D2E/DX2                !
 ! D16   D(7,4,5,6)             -7.5687         estimate D2E/DX2                !
 --------------------------------------------------------------------------------
 Trust Radius=3.00D-01 FncErr=1.00D-07 GrdErr=1.00D-07
 Number of steps in this run=     48 maximum allowed number of steps=    100.
 GradGradGradGradGradGradGradGradGradGradGradGradGradGradGradGradGradGrad

 Leave Link  103 at Mon Nov 23 02:20:18 2015, MaxMem=    33554432 cpu:         0.0
 (Enter /home/Applications/g09/g09/l202.exe)
                          Input orientation:                          
 ---------------------------------------------------------------------
 Center     Atomic      Atomic             Coordinates (Angstroms)
 Number     Number       Type             X           Y           Z
 ---------------------------------------------------------------------
      1          6           0        1.003636   -0.729799    0.025764
      2          6           0       -0.394755   -1.094324   -0.005354
      3          8           0       -1.199721    0.037349    0.028706
      4          6           0       -0.379695    1.064384   -0.011449
      5          6           0        0.988663    0.688646    0.037862
      6          1           0        1.838351    1.360085    0.006669
      7          1           0       -0.800356    2.008547    0.022555
      8          1           0       -0.832863   -2.004471   -0.036947
      9          1           0        1.825151   -1.401946    0.045918
 ---------------------------------------------------------------------
                    Distance matrix (angstroms):
                    1          2          3          4          5
     1  C    0.000000
     2  C    1.445456   0.000000
     3  O    2.333090   1.389177   0.000000
     4  C    2.265851   2.158769   1.314860   0.000000
     5  C    1.418576   2.257143   2.283264   1.419864   0.000000
     6  H    2.250495   3.318287   3.313608   2.237743   1.083408
     7  H    3.279167   3.129393   2.011256   1.034193   2.223277
     8  H    2.236392   1.010596   2.075554   3.102238   3.252143
     9  H    1.061638   2.241705   3.349883   3.308689   2.251744
                    6          7          8          9
     6  H    0.000000
     7  H    2.717265   0.000000
     8  H    4.296222   4.013591   0.000000
     9  H    2.762341   4.304102   2.726709   0.000000
 Stoichiometry    C4H4O
 Framework group  C1[X(C4H4O)]
 Deg. of freedom    21
 Full point group                 C1      NOp   1
 Largest Abelian subgroup         C1      NOp   1
 Largest concise Abelian subgroup C1      NOp   1
                         Standard orientation:                         
 ---------------------------------------------------------------------
 Center     Atomic      Atomic             Coordinates (Angstroms)
 Number     Number       Type             X           Y           Z
 ---------------------------------------------------------------------
      1          6           0       -1.185872   -0.376255   -0.004631
      2          6           0        0.030914   -1.156256    0.014708
      3          8           0        1.146680   -0.329521   -0.022569
      4          6           0        0.685530    0.900835    0.026651
      5          6           0       -0.732198    0.967793   -0.013078
      6          1           0       -1.331793    1.869289    0.026466
      7          1           0        1.377813    1.668358   -0.008097
      8          1           0        0.165639   -2.157499    0.040496
      9          1           0       -2.175338   -0.760688   -0.020218
 ---------------------------------------------------------------------
 Rotational constants (GHZ):      9.7377499      8.6190847      4.5741825
 Leave Link  202 at Mon Nov 23 02:20:18 2015, MaxMem=    33554432 cpu:         0.0
 (Enter /home/Applications/g09/g09/l301.exe)

 Semi-emprical parameters in input format:
 Method=8 CoreType=1 PeptideFC=0.0125750000 RIJScale=0.5666730000
 ****
 H       
 PQN=1 NValence=1 F0ss=0.4322380000 ZetaOverlap=1.1880780000 U=-0.4188110000
 Beta=-0.2156480000 CoreKO=1.1385450000 KON=0,0,0,1.0589200000 KON=1,0,1,1.1290450000
 KON=0,1,1,1.1706660000 KON=2,1,1,1.0589200000 EISol=-0.4188110042 EHeat=0.0830298228
 Alpha=1.5252600000
 GCore=0.0084690000,1.3383940000,2.2676710000
 GCore=0.0003530000,1.3533660000,3.6667160000
 GCore=-0.0011710000,0.6115380000,4.3212930000
 ****
 C       
 PQN=2,2 NValence=4 F0ss=0.4466820000 F0sp=0.4066640000 F0pp=0.3768030000 F2pp=0.1898720000
 G1sp=0.2679030000
 ZetaOverlap=1.8086650000,1.7840750000
 U=-1.9120180000,-1.5956620000
 Beta=-0.5629500000,-0.3031680000 DDN=0,1,0.7632320000 DDN=1,1,0.7847580000
 CoreKO=1.1124280000 KON=0,0,0,1.0889370000 KON=1,0,1,0.8219700000 KON=0,1,1,0.9893020000
 KON=2,1,1,0.7783930000 EISol=-4.4398989268 EHeat=0.2723305520 Alpha=1.3702060000
 DipHyp=1.5263761812
 GCore=0.0008320000,1.4654240000,2.8806590000
 GCore=0.0027890000,1.3245690000,3.2438410000
 GCore=-0.0012930000,1.2846020000,4.0922960000
 GCore=-0.0000880000,1.4958780000,4.9512050000
 ****
 O       
 PQN=2,2 NValence=6 F0ss=0.5666750000 F0sp=0.5060470000 F0pp=0.4958710000 F2pp=0.2150590000
 G1sp=0.4181060000
 ZetaOverlap=3.3086090000,2.5960610000
 U=-3.8586440000,-2.8743270000
 Beta=-1.1627760000,-1.1056560000 DDN=0,1,0.4676820000 DDN=1,1,0.4852320000
 CoreKO=1.0326690000 KON=0,0,0,0.8822960000 KON=1,0,1,0.5019540000 KON=0,1,1,0.8822960000
 KON=2,1,1,0.5406950000 EISol=-11.6164441184 EHeat=0.0949133088 Alpha=2.2592050000
 DipHyp=0.9353101877
 GCore=0.0202690000,1.4001430000,1.6127490000
 GCore=0.0056550000,2.0844870000,2.7600040000
 ****
 
 Standard basis: VSTO-6G (5D, 7F)
 Ernie: Thresh=  0.10000D-02 Tol=  0.10000D-05 Strict=F.
  NNHCO=     0 NNPyr=     0 NCTC=     0               EPep=         0.000000000
    EC=        67.514481464  ECS=         1.903295844   EG=         0.379473064
   EHC=         0.000000000  EAt=       -31.051283842  AtH=         1.516354808
 EPDDG=         0.000000000  ECC=        69.797250372 EAtT=        32.567638650
 There are    24 symmetry adapted cartesian basis functions of A   symmetry.
 There are    24 symmetry adapted basis functions of A   symmetry.
    24 basis functions,   144 primitive gaussians,    24 cartesian basis functions
    13 alpha electrons       13 beta electrons
       nuclear repulsion energy       102.3648890224 Hartrees.
 IExCor=    0 DFT=F Ex=HF Corr=None ExCW=0 ScaHFX=  1.000000
 ScaDFX=  1.000000  1.000000  1.000000  1.000000 ScalE2=  1.000000  1.000000
 IRadAn=      0 IRanWt=     -1 IRanGd=            0 ICorTp=0 IEmpDi=  4
 Integral buffers will be    131072 words long.
 Regular integral format.
 Two-electron integral symmetry is turned off.
 Leave Link  301 at Mon Nov 23 02:20:18 2015, MaxMem=    33554432 cpu:         0.0
 (Enter /home/Applications/g09/g09/l302.exe)
 Do NDO integrals.
 NPDir=0 NMtPBC=     1 NCelOv=     1 NCel=       1 NClECP=     1 NCelD=      1
         NCelK=      1 NCelE2=     1 NClLst=     1 CellRange=     0.0.
 One-electron integrals computed using PRISM.
 NBasis=    24 RedAO= F EigKep=  0.00D+00  NBF=    24
 NBsUse=    24 1.00D-04 EigRej=  0.00D+00 NBFU=    24
 Leave Link  302 at Mon Nov 23 02:20:18 2015, MaxMem=    33554432 cpu:         0.0
 (Enter /home/Applications/g09/g09/l303.exe)
 DipDrv:  MaxL=1.
 Leave Link  303 at Mon Nov 23 02:20:18 2015, MaxMem=    33554432 cpu:         0.0
 (Enter /home/Applications/g09/g09/l401.exe)
 Simple Huckel Guess.
 JPrj=0 DoOrth=F DoCkMO=F.
 Leave Link  401 at Mon Nov 23 02:20:18 2015, MaxMem=    33554432 cpu:         0.0
 (Enter /home/Applications/g09/g09/l502.exe)
 Closed shell SCF:
 Using DIIS extrapolation, IDIIS=  1040.
 Overlap will be assumed to be unity.
 Two-electron integral symmetry not used.
 Keep J ints in memory in canonical form, NReq=888082.
 IVT=       79475 IEndB=       79475 NGot=    33554432 MDV=    33473473
 LenX=    33473473 LenY=    33472456
 Requested convergence on RMS density matrix=1.00D-08 within 128 cycles.
 Requested convergence on MAX density matrix=1.00D-06.
 Requested convergence on             energy=1.00D-06.
 No special actions if energy rises.
 FoFCou: FMM=F IPFlag=           0 FMFlag=           0 FMFlg1=           0
         NFxFlg=           0 DoJE=F BraDBF=F KetDBF=F FulRan=T
         wScrn=  0.000000 ICntrl=     600 IOpCl=  2 I1Cent=           0 NGrid=           0
         NMat0=    1 NMatS0=     54 NMatT0=    0 NMatD0=    1 NMtDS0=    0 NMtDT0=    0
 Symmetry not used in FoFCou.

 Cycle   1  Pass 1  IDiag  1:
 E= -1.77067957452013    
 DIIS: error= 1.08D-01 at cycle   1 NSaved=   1.
 NSaved= 1 IEnMin= 1 EnMin= -1.77067957452013     IErMin= 1 ErrMin= 1.08D-01
 ErrMax= 1.08D-01  0.00D+00 EMaxC= 1.00D-01 BMatC= 2.21D-01 BMatP= 2.21D-01
 IDIUse=3 WtCom= 0.00D+00 WtEn= 1.00D+00
 Coeff-Com:  0.100D+01
 Coeff-En:   0.100D+01
 Coeff:      0.100D+01
 GapD=    2.000 DampG=2.000 DampE=0.250 DampFc=0.5000 IDamp=-1.
 Damping current iteration by 5.00D-01
 RMSDP=2.54D-02 MaxDP=2.16D-01              OVMax= 0.00D+00

 Cycle   2  Pass 1  IDiag  1:
 E= -1.99377418497294     Delta-E=       -0.223094610453 Rises=F Damp=T
 DIIS: error= 6.42D-02 at cycle   2 NSaved=   2.
 NSaved= 2 IEnMin= 2 EnMin= -1.99377418497294     IErMin= 2 ErrMin= 6.42D-02
 ErrMax= 6.42D-02  0.00D+00 EMaxC= 1.00D-01 BMatC= 8.70D-02 BMatP= 2.21D-01
 IDIUse=3 WtCom= 3.58D-01 WtEn= 6.42D-01
 Coeff-Com: -0.160D+01 0.260D+01
 Coeff-En:   0.000D+00 0.100D+01
 Coeff:     -0.574D+00 0.157D+01
 RMSDP=1.87D-02 MaxDP=1.32D-01 DE=-2.23D-01 OVMax= 0.00D+00

 Cycle   3  Pass 1  IDiag  1:
 E= -2.31353810127391     Delta-E=       -0.319763916301 Rises=F Damp=F
 DIIS: error= 1.00D-02 at cycle   3 NSaved=   3.
 NSaved= 3 IEnMin= 3 EnMin= -2.31353810127391     IErMin= 3 ErrMin= 1.00D-02
 ErrMax= 1.00D-02  0.00D+00 EMaxC= 1.00D-01 BMatC= 3.53D-03 BMatP= 8.70D-02
 IDIUse=3 WtCom= 9.00D-01 WtEn= 1.00D-01
 Coeff-Com:  0.158D+01-0.288D+01 0.230D+01
 Coeff-En:   0.000D+00 0.000D+00 0.100D+01
 Coeff:      0.142D+01-0.259D+01 0.217D+01
 RMSDP=6.48D-03 MaxDP=5.43D-02 DE=-3.20D-01 OVMax= 0.00D+00

 Cycle   4  Pass 1  IDiag  3:
 E= -2.32758695510782     Delta-E=       -0.014048853834 Rises=F Damp=F
 DIIS: error= 1.51D-03 at cycle   4 NSaved=   4.
 NSaved= 4 IEnMin= 4 EnMin= -2.32758695510782     IErMin= 4 ErrMin= 1.51D-03
 ErrMax= 1.51D-03  0.00D+00 EMaxC= 1.00D-01 BMatC= 7.09D-05 BMatP= 3.53D-03
 IDIUse=3 WtCom= 9.85D-01 WtEn= 1.51D-02
 Coeff-Com: -0.206D+00 0.395D+00-0.525D+00 0.134D+01
 Coeff-En:   0.000D+00 0.000D+00 0.000D+00 0.100D+01
 Coeff:     -0.203D+00 0.389D+00-0.517D+00 0.133D+01
 Gap=     0.367 Goal=   None    Shift=    0.000
 RMSDP=1.19D-03 MaxDP=9.90D-03 DE=-1.40D-02 OVMax= 1.03D-02

 Cycle   5  Pass 1  IDiag  3:
 E= -2.32793482255923     Delta-E=       -0.000347867451 Rises=F Damp=F
 DIIS: error= 1.90D-04 at cycle   5 NSaved=   5.
 NSaved= 5 IEnMin= 5 EnMin= -2.32793482255923     IErMin= 5 ErrMin= 1.90D-04
 ErrMax= 1.90D-04  0.00D+00 EMaxC= 1.00D-01 BMatC= 1.30D-06 BMatP= 7.09D-05
 IDIUse=3 WtCom= 9.98D-01 WtEn= 1.90D-03
 Coeff-Com: -0.925D-02 0.127D-01 0.436D-01-0.322D+00 0.128D+01
 Coeff-En:   0.000D+00 0.000D+00 0.000D+00 0.000D+00 0.100D+01
 Coeff:     -0.923D-02 0.127D-01 0.435D-01-0.322D+00 0.127D+01
 Gap=     0.367 Goal=   None    Shift=    0.000
 RMSDP=1.33D-04 MaxDP=8.85D-04 DE=-3.48D-04 OVMax= 1.12D-03

 Cycle   6  Pass 1  IDiag  3:
 E= -2.32794079999621     Delta-E=       -0.000005977437 Rises=F Damp=F
 DIIS: error= 4.04D-05 at cycle   6 NSaved=   6.
 NSaved= 6 IEnMin= 6 EnMin= -2.32794079999621     IErMin= 6 ErrMin= 4.04D-05
 ErrMax= 4.04D-05  0.00D+00 EMaxC= 1.00D-01 BMatC= 9.53D-08 BMatP= 1.30D-06
 IDIUse=1 WtCom= 1.00D+00 WtEn= 0.00D+00
 Coeff-Com:  0.746D-02-0.135D-01 0.716D-02 0.235D-01-0.385D+00 0.136D+01
 Coeff:      0.746D-02-0.135D-01 0.716D-02 0.235D-01-0.385D+00 0.136D+01
 Gap=     0.367 Goal=   None    Shift=    0.000
 RMSDP=4.43D-05 MaxDP=2.48D-04 DE=-5.98D-06 OVMax= 4.21D-04

 Cycle   7  Pass 1  IDiag  3:
 E= -2.32794132268680     Delta-E=       -0.000000522691 Rises=F Damp=F
 DIIS: error= 1.35D-05 at cycle   7 NSaved=   7.
 NSaved= 7 IEnMin= 7 EnMin= -2.32794132268680     IErMin= 7 ErrMin= 1.35D-05
 ErrMax= 1.35D-05  0.00D+00 EMaxC= 1.00D-01 BMatC= 6.68D-09 BMatP= 9.53D-08
 IDIUse=1 WtCom= 1.00D+00 WtEn= 0.00D+00
 Coeff-Com: -0.146D-02 0.286D-02-0.393D-02 0.642D-02 0.111D+00-0.630D+00
 Coeff-Com:  0.151D+01
 Coeff:     -0.146D-02 0.286D-02-0.393D-02 0.642D-02 0.111D+00-0.630D+00
 Coeff:      0.151D+01
 Gap=     0.367 Goal=   None    Shift=    0.000
 RMSDP=1.46D-05 MaxDP=1.19D-04 DE=-5.23D-07 OVMax= 1.48D-04

 Cycle   8  Pass 1  IDiag  3:
 E= -2.32794136943500     Delta-E=       -0.000000046748 Rises=F Damp=F
 DIIS: error= 4.39D-06 at cycle   8 NSaved=   8.
 NSaved= 8 IEnMin= 8 EnMin= -2.32794136943500     IErMin= 8 ErrMin= 4.39D-06
 ErrMax= 4.39D-06  0.00D+00 EMaxC= 1.00D-01 BMatC= 5.30D-10 BMatP= 6.68D-09
 IDIUse=1 WtCom= 1.00D+00 WtEn= 0.00D+00
 Coeff-Com:  0.756D-03-0.150D-02 0.222D-02-0.385D-02-0.671D-01 0.377D+00
 Coeff-Com: -0.102D+01 0.172D+01
 Coeff:      0.756D-03-0.150D-02 0.222D-02-0.385D-02-0.671D-01 0.377D+00
 Coeff:     -0.102D+01 0.172D+01
 Gap=     0.367 Goal=   None    Shift=    0.000
 RMSDP=5.57D-06 MaxDP=4.98D-05 DE=-4.67D-08 OVMax= 5.95D-05

 Cycle   9  Pass 1  IDiag  3:
 E= -2.32794137474146     Delta-E=       -0.000000005306 Rises=F Damp=F
 DIIS: error= 1.52D-06 at cycle   9 NSaved=   9.
 NSaved= 9 IEnMin= 9 EnMin= -2.32794137474146     IErMin= 9 ErrMin= 1.52D-06
 ErrMax= 1.52D-06  0.00D+00 EMaxC= 1.00D-01 BMatC= 5.68D-11 BMatP= 5.30D-10
 IDIUse=1 WtCom= 1.00D+00 WtEn= 0.00D+00
 Coeff-Com: -0.512D-03 0.999D-03-0.142D-02 0.281D-02 0.260D-01-0.153D+00
 Coeff-Com:  0.441D+00-0.103D+01 0.171D+01
 Coeff:     -0.512D-03 0.999D-03-0.142D-02 0.281D-02 0.260D-01-0.153D+00
 Coeff:      0.441D+00-0.103D+01 0.171D+01
 Gap=     0.367 Goal=   None    Shift=    0.000
 RMSDP=2.21D-06 MaxDP=1.94D-05 DE=-5.31D-09 OVMax= 2.49D-05

 Cycle  10  Pass 1  IDiag  3:
 E= -2.32794137535971     Delta-E=       -0.000000000618 Rises=F Damp=F
 DIIS: error= 3.41D-07 at cycle  10 NSaved=  10.
 NSaved=10 IEnMin=10 EnMin= -2.32794137535971     IErMin=10 ErrMin= 3.41D-07
 ErrMax= 3.41D-07  0.00D+00 EMaxC= 1.00D-01 BMatC= 3.48D-12 BMatP= 5.68D-11
 IDIUse=1 WtCom= 1.00D+00 WtEn= 0.00D+00
 Coeff-Com:  0.235D-04-0.543D-04 0.158D-03-0.527D-03-0.510D-03 0.551D-02
 Coeff-Com: -0.262D-01 0.159D+00-0.556D+00 0.142D+01
 Coeff:      0.235D-04-0.543D-04 0.158D-03-0.527D-03-0.510D-03 0.551D-02
 Coeff:     -0.262D-01 0.159D+00-0.556D+00 0.142D+01
 Gap=     0.367 Goal=   None    Shift=    0.000
 RMSDP=4.54D-07 MaxDP=3.34D-06 DE=-6.18D-10 OVMax= 4.87D-06

 Cycle  11  Pass 1  IDiag  3:
 E= -2.32794137538950     Delta-E=       -0.000000000030 Rises=F Damp=F
 DIIS: error= 8.30D-08 at cycle  11 NSaved=  11.
 NSaved=11 IEnMin=11 EnMin= -2.32794137538950     IErMin=11 ErrMin= 8.30D-08
 ErrMax= 8.30D-08  0.00D+00 EMaxC= 1.00D-01 BMatC= 1.83D-13 BMatP= 3.48D-12
 IDIUse=1 WtCom= 1.00D+00 WtEn= 0.00D+00
 Coeff-Com: -0.111D-04 0.227D-04-0.411D-04 0.116D-03-0.305D-03 0.153D-02
 Coeff-Com: -0.201D-02-0.271D-01 0.141D+00-0.539D+00 0.143D+01
 Coeff:     -0.111D-04 0.227D-04-0.411D-04 0.116D-03-0.305D-03 0.153D-02
 Coeff:     -0.201D-02-0.271D-01 0.141D+00-0.539D+00 0.143D+01
 Gap=     0.367 Goal=   None    Shift=    0.000
 RMSDP=9.23D-08 MaxDP=6.99D-07 DE=-2.98D-11 OVMax= 1.13D-06

 Cycle  12  Pass 1  IDiag  3:
 E= -2.32794137539085     Delta-E=       -0.000000000001 Rises=F Damp=F
 DIIS: error= 2.37D-08 at cycle  12 NSaved=  12.
 NSaved=12 IEnMin=12 EnMin= -2.32794137539085     IErMin=12 ErrMin= 2.37D-08
 ErrMax= 2.37D-08  0.00D+00 EMaxC= 1.00D-01 BMatC= 1.55D-14 BMatP= 1.83D-13
 IDIUse=1 WtCom= 1.00D+00 WtEn= 0.00D+00
 Coeff-Com:  0.550D-05-0.107D-04 0.157D-04-0.431D-04 0.325D-03-0.177D-02
 Coeff-Com:  0.422D-02 0.346D-02-0.447D-01 0.217D+00-0.812D+00 0.163D+01
 Coeff:      0.550D-05-0.107D-04 0.157D-04-0.431D-04 0.325D-03-0.177D-02
 Coeff:      0.422D-02 0.346D-02-0.447D-01 0.217D+00-0.812D+00 0.163D+01
 Gap=     0.367 Goal=   None    Shift=    0.000
 RMSDP=3.00D-08 MaxDP=2.47D-07 DE=-1.35D-12 OVMax= 3.15D-07

 Cycle  13  Pass 1  IDiag  3:
 E= -2.32794137539123     Delta-E=        0.000000000000 Rises=F Damp=F
 DIIS: error= 6.74D-09 at cycle  13 NSaved=  13.
 NSaved=13 IEnMin=13 EnMin= -2.32794137539123     IErMin=13 ErrMin= 6.74D-09
 ErrMax= 6.74D-09  0.00D+00 EMaxC= 1.00D-01 BMatC= 1.38D-15 BMatP= 1.55D-14
 IDIUse=1 WtCom= 1.00D+00 WtEn= 0.00D+00
 Coeff-Com: -0.153D-05 0.300D-05-0.471D-05 0.169D-04-0.254D-03 0.138D-02
 Coeff-Com: -0.350D-02 0.141D-02 0.161D-01-0.958D-01 0.416D+00-0.104D+01
 Coeff-Com:  0.170D+01
 Coeff:     -0.153D-05 0.300D-05-0.471D-05 0.169D-04-0.254D-03 0.138D-02
 Coeff:     -0.350D-02 0.141D-02 0.161D-01-0.958D-01 0.416D+00-0.104D+01
 Coeff:      0.170D+01
 Gap=     0.367 Goal=   None    Shift=    0.000
 RMSDP=9.43D-09 MaxDP=9.70D-08 DE=-3.84D-13 OVMax= 1.02D-07

 Cycle  14  Pass 2  IDiag  1:
 SCF Done:  E(RAM1) =  -2.32794137539     A.U. after   14 cycles
            NFock= 13  Conv=0.94D-08     -V/T= 0.8801
 KE=-1.941080572253D+01 PE=-1.703622551087D+02 EE= 8.508023043343D+01
 Leave Link  502 at Mon Nov 23 02:20:18 2015, MaxMem=    33554432 cpu:         0.0
 (Enter /home/Applications/g09/g09/l601.exe)
 Copying SCF densities to generalized density rwf, IOpCl= 0 IROHF=0.

 **********************************************************************

            Population analysis using the SCF density.

 **********************************************************************

 Orbital symmetries:
       Occupied  (A) (A) (A) (A) (A) (A) (A) (A) (A) (A) (A) (A)
                 (A)
       Virtual   (A) (A) (A) (A) (A) (A) (A) (A) (A) (A) (A)
 The electronic state is 1-A.
 Alpha  occ. eigenvalues --   -1.69452  -1.20810  -1.00180  -0.81069  -0.79828
 Alpha  occ. eigenvalues --   -0.70006  -0.60773  -0.57665  -0.55090  -0.53339
 Alpha  occ. eigenvalues --   -0.51305  -0.42639  -0.38476
 Alpha virt. eigenvalues --   -0.01786   0.00605   0.10187   0.14463   0.17569
 Alpha virt. eigenvalues --    0.18913   0.20093   0.20397   0.20725   0.21692
 Alpha virt. eigenvalues --    0.22472
          Condensed to atoms (all electrons):
               1          2          3          4          5          6
     1  C    4.426900   0.000000   0.000000   0.000000   0.000000   0.000000
     2  C    0.000000   4.430545   0.000000   0.000000   0.000000   0.000000
     3  O    0.000000   0.000000   5.816093   0.000000   0.000000   0.000000
     4  C    0.000000   0.000000   0.000000   4.350576   0.000000   0.000000
     5  C    0.000000   0.000000   0.000000   0.000000   4.501259   0.000000
     6  H    0.000000   0.000000   0.000000   0.000000   0.000000   0.616369
     7  H    0.000000   0.000000   0.000000   0.000000   0.000000   0.000000
     8  H    0.000000   0.000000   0.000000   0.000000   0.000000   0.000000
     9  H    0.000000   0.000000   0.000000   0.000000   0.000000   0.000000
               7          8          9
     1  C    0.000000   0.000000   0.000000
     2  C    0.000000   0.000000   0.000000
     3  O    0.000000   0.000000   0.000000
     4  C    0.000000   0.000000   0.000000
     5  C    0.000000   0.000000   0.000000
     6  H    0.000000   0.000000   0.000000
     7  H    0.619459   0.000000   0.000000
     8  H    0.000000   0.618207   0.000000
     9  H    0.000000   0.000000   0.620593
 Mulliken charges:
               1
     1  C   -0.426900
     2  C   -0.430545
     3  O    0.183907
     4  C   -0.350576
     5  C   -0.501259
     6  H    0.383631
     7  H    0.380541
     8  H    0.381793
     9  H    0.379407
 Sum of Mulliken charges =   0.00000
 Mulliken charges with hydrogens summed into heavy atoms:
               1
     1  C   -0.047493
     2  C   -0.048752
     3  O    0.183907
     4  C    0.029965
     5  C   -0.117627
 Charge=              0.0000 electrons
 Dipole moment (field-independent basis, Debye):
    X=              0.5694    Y=              0.1125    Z=              0.0004  Tot=              0.5804
 N-N= 1.023648890224D+02 E-N=-1.703622550736D+02  KE=-1.941080572253D+01
 Leave Link  601 at Mon Nov 23 02:20:18 2015, MaxMem=    33554432 cpu:         0.0
 (Enter /home/Applications/g09/g09/l701.exe)
 Compute integral first derivatives.
 ... and contract with generalized density number  0.
 Leave Link  701 at Mon Nov 23 02:20:18 2015, MaxMem=    33554432 cpu:         0.0
 (Enter /home/Applications/g09/g09/l702.exe)
 L702 exits ... SP integral derivatives will be done elsewhere.
 Leave Link  702 at Mon Nov 23 02:20:18 2015, MaxMem=    33554432 cpu:         0.0
 (Enter /home/Applications/g09/g09/l703.exe)
 Compute integral first derivatives, UseDBF=F ICtDFT=           0.
 Integral derivatives from FoFJK, PRISM(SPDF).
 Calling FoFJK, ICntrl=      2127 FMM=F ISym2X=0 I1Cent= 0 IOpClX= 0 NMat=1 NMatS=1 NMatT=0.
 FoFJK:  IHMeth= 8 ICntrl=    2127 DoSepK=F KAlg= 0 I1Cent=   0 FoldK=F
 IRaf=         0 NMat=   1 IRICut=       1 DoRegI=T DoRafI=F ISym2E= 0.
 FoFCou: FMM=F IPFlag=           0 FMFlag=      100000 FMFlg1=         800
         NFxFlg=           0 DoJE=F BraDBF=F KetDBF=F FulRan=T
         wScrn=  0.000000 ICntrl=    2127 IOpCl=  0 I1Cent=           0 NGrid=           0
         NMat0=    1 NMatS0=      1 NMatT0=    0 NMatD0=    1 NMtDS0=    0 NMtDT0=    0
 Symmetry not used in FoFCou.
 Leave Link  703 at Mon Nov 23 02:20:18 2015, MaxMem=    33554432 cpu:         0.0
 (Enter /home/Applications/g09/g09/l716.exe)
 Dipole        = 2.24017495D-01 4.42697945D-02 1.50670916D-04
 ***** Axes restored to original set *****
 -------------------------------------------------------------------
 Center     Atomic                   Forces (Hartrees/Bohr)
 Number     Number              X              Y              Z
 -------------------------------------------------------------------
      1        6          -0.066724404    0.005120481   -0.000296297
      2        6           0.066095260    0.043051956    0.007148065
      3        8          -0.019164708   -0.058693123   -0.007849354
      4        6           0.071500024    0.025338158    0.011887953
      5        6          -0.014710477    0.003704019   -0.010510021
      6        1          -0.006175214   -0.006611430    0.002315361
      7        1          -0.012935966    0.032187497   -0.001396928
      8        1          -0.023371196   -0.042210553   -0.000897859
      9        1           0.005486681   -0.001887005   -0.000400920
 -------------------------------------------------------------------
 Cartesian Forces:  Max     0.071500024 RMS     0.030133448
 Leave Link  716 at Mon Nov 23 02:20:18 2015, MaxMem=    33554432 cpu:         0.0
 (Enter /home/Applications/g09/g09/l103.exe)

 GradGradGradGradGradGradGradGradGradGradGradGradGradGradGradGradGradGrad
 Berny optimization.
 FormGI is forming the generalized inverse of G from B-inverse, IUseBI=4.
 Internal  Forces:  Max     0.058630688 RMS     0.017639702
 Search for a local minimum.
 Step number   1 out of a maximum of   48
 All quantities printed in internal units (Hartrees-Bohrs-Radians)
 RMS Force = .17640D-01 SwitMx=.10000D-02 MixMth= 1
 Mixed Optimization -- RFO/linear search
 Second derivative matrix not updated -- first step.
 ITU=  0
     Eigenvalues ---    0.01573   0.01691   0.01715   0.01844   0.02081
     Eigenvalues ---    0.02242   0.15894   0.15936   0.15998   0.15999
     Eigenvalues ---    0.21987   0.22919   0.35586   0.36262   0.38307
     Eigenvalues ---    0.39960   0.41592   0.42149   0.45873   0.46158
     Eigenvalues ---    0.60212
 RFO step:  Lambda=-2.71558726D-02 EMin= 1.57348249D-02
 Linear search not attempted -- first point.
 Iteration  1 RMS(Cart)=  0.04768440 RMS(Int)=  0.00186259
 Iteration  2 RMS(Cart)=  0.00128320 RMS(Int)=  0.00113275
 Iteration  3 RMS(Cart)=  0.00000184 RMS(Int)=  0.00113275
 Iteration  4 RMS(Cart)=  0.00000000 RMS(Int)=  0.00113275
 ITry= 1 IFail=0 DXMaxC= 1.41D-01 DCOld= 1.00D+10 DXMaxT= 3.00D-01 DXLimC= 3.00D+00 Rises=F
 Variable       Old X    -DE/DX   Delta X   Delta X   Delta X     New X
                                 (Linear)    (Quad)   (Total)
    R1        2.73152  -0.04715   0.00000  -0.12264  -0.12270   2.60882
    R2        2.68072  -0.00003   0.00000  -0.00689  -0.00608   2.67464
    R3        2.00620   0.00543   0.00000   0.01324   0.01324   2.01945
    R4        2.62517  -0.00744   0.00000  -0.01341  -0.01426   2.61090
    R5        1.90975   0.04817   0.00000   0.09915   0.09915   2.00890
    R6        2.48472   0.05863   0.00000   0.09564   0.09516   2.57989
    R7        2.68315  -0.03081   0.00000  -0.06333  -0.06278   2.62038
    R8        1.95434   0.03460   0.00000   0.07712   0.07712   2.03147
    R9        2.04734  -0.00901   0.00000  -0.02352  -0.02352   2.02383
    A1        1.81536   0.02226   0.00000   0.06226   0.06256   1.87792
    A2        2.20107  -0.00913   0.00000  -0.02034  -0.02049   2.18058
    A3        2.26669  -0.01314   0.00000  -0.04186  -0.04202   2.22467
    A4        1.93330  -0.00586   0.00000  -0.03499  -0.03636   1.89694
    A5        2.27469   0.00558   0.00000   0.03176   0.03219   2.30688
    A6        2.07513   0.00029   0.00000   0.00356   0.00400   2.07914
    A7        1.84853   0.00225   0.00000   0.03449   0.03208   1.88061
    A8        1.97499  -0.02020   0.00000  -0.05706  -0.05862   1.91637
    A9        2.04701   0.01142   0.00000   0.03891   0.03775   2.08477
   A10        2.25551   0.00921   0.00000   0.02746   0.02635   2.28185
   A11        1.84885   0.00191   0.00000   0.00344   0.00398   1.85283
   A12        2.22833  -0.00220   0.00000  -0.00734  -0.00825   2.22008
   A13        2.20287   0.00046   0.00000   0.00763   0.00689   2.20976
    D1       -0.03098   0.00068   0.00000   0.02313   0.02352  -0.00746
    D2        3.12227  -0.00053   0.00000  -0.01099  -0.01178   3.11049
    D3        3.09940   0.00063   0.00000   0.02772   0.02935   3.12875
    D4       -0.03053  -0.00058   0.00000  -0.00640  -0.00595  -0.03649
    D5       -0.01850   0.00069   0.00000   0.02895   0.03100   0.01250
    D6       -3.07855  -0.00158   0.00000  -0.01990  -0.01760  -3.09616
    D7        3.13490   0.00068   0.00000   0.02388   0.02476  -3.12353
    D8        0.07484  -0.00159   0.00000  -0.02497  -0.02384   0.05100
    D9        0.07111  -0.00340   0.00000  -0.07109  -0.07175  -0.00064
   D10       -3.08064  -0.00230   0.00000  -0.04113  -0.04154  -3.12218
   D11       -0.08511   0.00456   0.00000   0.09372   0.09388   0.00877
   D12       -3.12302   0.00015   0.00000   0.00746   0.00920  -3.11382
   D13        0.06691  -0.00440   0.00000  -0.08237  -0.08008  -0.01316
   D14        3.12852  -0.00233   0.00000  -0.03535  -0.03277   3.09575
   D15        3.08948   0.00048   0.00000   0.01648   0.01711   3.10659
   D16       -0.13210   0.00254   0.00000   0.06351   0.06441  -0.06768
         Item               Value     Threshold  Converged?
 Maximum Force            0.058631     0.000450     NO 
 RMS     Force            0.017640     0.000300     NO 
 Maximum Displacement     0.140988     0.001800     NO 
 RMS     Displacement     0.047674     0.001200     NO 
 Predicted change in Energy=-1.482986D-02
 Lowest energy point so far.  Saving SCF results.
 GradGradGradGradGradGradGradGradGradGradGradGradGradGradGradGradGradGrad

 Leave Link  103 at Mon Nov 23 02:20:18 2015, MaxMem=    33554432 cpu:         0.0
 (Enter /home/Applications/g09/g09/l202.exe)
                          Input orientation:                          
 ---------------------------------------------------------------------
 Center     Atomic      Atomic             Coordinates (Angstroms)
 Number     Number       Type             X           Y           Z
 ---------------------------------------------------------------------
      1          6           0        0.953906   -0.717485    0.026740
      2          6           0       -0.366924   -1.118266    0.001523
      3          8           0       -1.170455    0.005636   -0.007446
      4          6           0       -0.355082    1.100429    0.012905
      5          6           0        0.971766    0.697760    0.023582
      6          1           0        1.832632    1.334417    0.000332
      7          1           0       -0.790235    2.083154    0.035932
      8          1           0       -0.820780   -2.079072   -0.029605
      9          1           0        1.793584   -1.378102    0.049761
 ---------------------------------------------------------------------
                    Distance matrix (angstroms):
                    1          2          3          4          5
     1  C    0.000000
     2  C    1.380526   0.000000
     3  O    2.244322   1.381629   0.000000
     4  C    2.240190   2.218756   1.365217   0.000000
     5  C    1.415361   2.256219   2.251468   1.386644   0.000000
     6  H    2.232299   3.294495   3.283938   2.200227   1.070964
     7  H    3.299347   3.229469   2.112470   1.075006   2.241454
     8  H    2.237545   1.063063   2.113947   3.213707   3.305578
     9  H    1.068646   2.176611   3.271625   3.280433   2.232772
                    6          7          8          9
     6  H    0.000000
     7  H    2.727875   0.000000
     8  H    4.323587   4.162855   0.000000
     9  H    2.713251   4.319329   2.707869   0.000000
 Stoichiometry    C4H4O
 Framework group  C1[X(C4H4O)]
 Deg. of freedom    21
 Full point group                 C1      NOp   1
 RotChk:  IX=0 Diff= 1.71D+00
 Largest Abelian subgroup         C1      NOp   1
 Largest concise Abelian subgroup C1      NOp   1
                         Standard orientation:                         
 ---------------------------------------------------------------------
 Center     Atomic      Atomic             Coordinates (Angstroms)
 Number     Number       Type             X           Y           Z
 ---------------------------------------------------------------------
      1          6           0       -0.673908    0.984263   -0.006141
      2          6           0       -1.125356   -0.320348    0.000079
      3          8           0       -0.033276   -1.166665    0.002783
      4          6           0        1.092179   -0.393916   -0.002564
      5          6           0        0.740947    0.947498    0.002726
      6          1           0        1.410171    1.782799    0.039806
      7          1           0        2.057512   -0.866299   -0.027534
      8          1           0       -2.103052   -0.737187    0.021494
      9          1           0       -1.301598    1.849017   -0.020626
 ---------------------------------------------------------------------
 Rotational constants (GHZ):      9.3599776      9.1598934      4.6297633
 Leave Link  202 at Mon Nov 23 02:20:18 2015, MaxMem=    33554432 cpu:         0.0
 (Enter /home/Applications/g09/g09/l301.exe)

 Semi-emprical parameters in input format:
 Method=8 CoreType=1 PeptideFC=0.0125750000 RIJScale=0.5666730000
 ****
 H       
 PQN=1 NValence=1 F0ss=0.4322380000 ZetaOverlap=1.1880780000 U=-0.4188110000
 Beta=-0.2156480000 CoreKO=1.1385450000 KON=0,0,0,1.0589200000 KON=1,0,1,1.1290450000
 KON=0,1,1,1.1706660000 KON=2,1,1,1.0589200000 EISol=-0.4188110042 EHeat=0.0830298228
 Alpha=1.5252600000
 GCore=0.0084690000,1.3383940000,2.2676710000
 GCore=0.0003530000,1.3533660000,3.6667160000
 GCore=-0.0011710000,0.6115380000,4.3212930000
 ****
 C       
 PQN=2,2 NValence=4 F0ss=0.4466820000 F0sp=0.4066640000 F0pp=0.3768030000 F2pp=0.1898720000
 G1sp=0.2679030000
 ZetaOverlap=1.8086650000,1.7840750000
 U=-1.9120180000,-1.5956620000
 Beta=-0.5629500000,-0.3031680000 DDN=0,1,0.7632320000 DDN=1,1,0.7847580000
 CoreKO=1.1124280000 KON=0,0,0,1.0889370000 KON=1,0,1,0.8219700000 KON=0,1,1,0.9893020000
 KON=2,1,1,0.7783930000 EISol=-4.4398989268 EHeat=0.2723305520 Alpha=1.3702060000
 DipHyp=1.5263761812
 GCore=0.0008320000,1.4654240000,2.8806590000
 GCore=0.0027890000,1.3245690000,3.2438410000
 GCore=-0.0012930000,1.2846020000,4.0922960000
 GCore=-0.0000880000,1.4958780000,4.9512050000
 ****
 O       
 PQN=2,2 NValence=6 F0ss=0.5666750000 F0sp=0.5060470000 F0pp=0.4958710000 F2pp=0.2150590000
 G1sp=0.4181060000
 ZetaOverlap=3.3086090000,2.5960610000
 U=-3.8586440000,-2.8743270000
 Beta=-1.1627760000,-1.1056560000 DDN=0,1,0.4676820000 DDN=1,1,0.4852320000
 CoreKO=1.0326690000 KON=0,0,0,0.8822960000 KON=1,0,1,0.5019540000 KON=0,1,1,0.8822960000
 KON=2,1,1,0.5406950000 EISol=-11.6164441184 EHeat=0.0949133088 Alpha=2.2592050000
 DipHyp=0.9353101877
 GCore=0.0202690000,1.4001430000,1.6127490000
 GCore=0.0056550000,2.0844870000,2.7600040000
 ****
 
 Standard basis: VSTO-6G (5D, 7F)
 Ernie: Thresh=  0.10000D-02 Tol=  0.10000D-05 Strict=F.
  NNHCO=     0 NNPyr=     0 NCTC=     0               EPep=         0.000000000
    EC=        67.645498974  ECS=         1.900395576   EG=         0.365301835
   EHC=         0.000000000  EAt=       -31.051283842  AtH=         1.516354808
 EPDDG=         0.000000000  ECC=        69.911196385 EAtT=        32.567638650
 There are    24 symmetry adapted cartesian basis functions of A   symmetry.
 There are    24 symmetry adapted basis functions of A   symmetry.
    24 basis functions,   144 primitive gaussians,    24 cartesian basis functions
    13 alpha electrons       13 beta electrons
       nuclear repulsion energy       102.4788350356 Hartrees.
 IExCor=    0 DFT=F Ex=HF Corr=None ExCW=0 ScaHFX=  1.000000
 ScaDFX=  1.000000  1.000000  1.000000  1.000000 ScalE2=  1.000000  1.000000
 IRadAn=      0 IRanWt=     -1 IRanGd=            0 ICorTp=0 IEmpDi=  4
 Integral buffers will be    131072 words long.
 Regular integral format.
 Two-electron integral symmetry is turned off.
 Leave Link  301 at Mon Nov 23 02:20:18 2015, MaxMem=    33554432 cpu:         0.0
 (Enter /home/Applications/g09/g09/l302.exe)
 Do NDO integrals.
 NPDir=0 NMtPBC=     1 NCelOv=     1 NCel=       1 NClECP=     1 NCelD=      1
         NCelK=      1 NCelE2=     1 NClLst=     1 CellRange=     0.0.
 One-electron integrals computed using PRISM.
 NBasis=    24 RedAO= F EigKep=  0.00D+00  NBF=    24
 NBsUse=    24 1.00D-04 EigRej=  0.00D+00 NBFU=    24
 Leave Link  302 at Mon Nov 23 02:20:18 2015, MaxMem=    33554432 cpu:         0.0
 (Enter /home/Applications/g09/g09/l303.exe)
 DipDrv:  MaxL=1.
 Leave Link  303 at Mon Nov 23 02:20:18 2015, MaxMem=    33554432 cpu:         0.0
 (Enter /home/Applications/g09/g09/l401.exe)
 Initial guess from the checkpoint file:  "/home/Applications/g09/scratch/Gau-2430.chk"
 B after Tr=     0.000000    0.000000    0.000000
         Rot=    0.796682    0.000061    0.000102    0.604399 Ang=  74.37 deg.
 Guess basis will be translated and rotated to current coordinates.
 JPrj=0 DoOrth=T DoCkMO=T.
 Leave Link  401 at Mon Nov 23 02:20:18 2015, MaxMem=    33554432 cpu:         0.0
 (Enter /home/Applications/g09/g09/l502.exe)
 Closed shell SCF:
 Using DIIS extrapolation, IDIIS=  1040.
 Overlap will be assumed to be unity.
 Two-electron integral symmetry not used.
 Keep J ints in memory in canonical form, NReq=888082.
 IVT=       79475 IEndB=       79475 NGot=    33554432 MDV=    33473473
 LenX=    33473473 LenY=    33472456
 Requested convergence on RMS density matrix=1.00D-08 within 128 cycles.
 Requested convergence on MAX density matrix=1.00D-06.
 Requested convergence on             energy=1.00D-06.
 No special actions if energy rises.
 FoFCou: FMM=F IPFlag=           0 FMFlag=           0 FMFlg1=           0
         NFxFlg=           0 DoJE=F BraDBF=F KetDBF=F FulRan=T
         wScrn=  0.000000 ICntrl=     600 IOpCl=  2 I1Cent=           0 NGrid=           0
         NMat0=    1 NMatS0=     54 NMatT0=    0 NMatD0=    1 NMtDS0=    0 NMtDT0=    0
 Symmetry not used in FoFCou.

 Cycle   1  Pass 1  IDiag  1:
 E= -2.33324503784844    
 DIIS: error= 5.19D-03 at cycle   1 NSaved=   1.
 NSaved= 1 IEnMin= 1 EnMin= -2.33324503784844     IErMin= 1 ErrMin= 5.19D-03
 ErrMax= 5.19D-03  0.00D+00 EMaxC= 1.00D-01 BMatC= 1.93D-03 BMatP= 1.93D-03
 IDIUse=3 WtCom= 9.48D-01 WtEn= 5.19D-02
 Coeff-Com:  0.100D+01
 Coeff-En:   0.100D+01
 Coeff:      0.100D+01
 GapD=    2.000 DampG=2.000 DampE=1.000 DampFc=2.0000 IDamp=-1.
 RMSDP=3.12D-03 MaxDP=1.15D-02              OVMax= 0.00D+00

 Cycle   2  Pass 1  IDiag  3:
 E= -2.33909963577888     Delta-E=       -0.005854597930 Rises=F Damp=F
 DIIS: error= 2.47D-03 at cycle   2 NSaved=   2.
 NSaved= 2 IEnMin= 2 EnMin= -2.33909963577888     IErMin= 2 ErrMin= 2.47D-03
 ErrMax= 2.47D-03  0.00D+00 EMaxC= 1.00D-01 BMatC= 2.40D-04 BMatP= 1.93D-03
 IDIUse=3 WtCom= 9.75D-01 WtEn= 2.47D-02
 Coeff-Com: -0.411D+00 0.141D+01
 Coeff-En:   0.000D+00 0.100D+01
 Coeff:     -0.401D+00 0.140D+01
 Gap=     0.378 Goal=   None    Shift=    0.000
 RMSDP=1.93D-03 MaxDP=9.12D-03 DE=-5.85D-03 OVMax= 1.27D-02

 Cycle   3  Pass 1  IDiag  3:
 E= -2.34030705822289     Delta-E=       -0.001207422444 Rises=F Damp=F
 DIIS: error= 7.63D-04 at cycle   3 NSaved=   3.
 NSaved= 3 IEnMin= 3 EnMin= -2.34030705822289     IErMin= 3 ErrMin= 7.63D-04
 ErrMax= 7.63D-04  0.00D+00 EMaxC= 1.00D-01 BMatC= 1.83D-05 BMatP= 2.40D-04
 IDIUse=3 WtCom= 9.92D-01 WtEn= 7.63D-03
 Coeff-Com:  0.168D+00-0.729D+00 0.156D+01
 Coeff-En:   0.000D+00 0.000D+00 0.100D+01
 Coeff:      0.166D+00-0.724D+00 0.156D+01
 Gap=     0.378 Goal=   None    Shift=    0.000
 RMSDP=8.43D-04 MaxDP=5.42D-03 DE=-1.21D-03 OVMax= 7.37D-03

 Cycle   4  Pass 1  IDiag  3:
 E= -2.34045942376200     Delta-E=       -0.000152365539 Rises=F Damp=F
 DIIS: error= 2.95D-04 at cycle   4 NSaved=   4.
 NSaved= 4 IEnMin= 4 EnMin= -2.34045942376200     IErMin= 4 ErrMin= 2.95D-04
 ErrMax= 2.95D-04  0.00D+00 EMaxC= 1.00D-01 BMatC= 1.93D-06 BMatP= 1.83D-05
 IDIUse=3 WtCom= 9.97D-01 WtEn= 2.95D-03
 Coeff-Com: -0.237D-01 0.144D+00-0.609D+00 0.149D+01
 Coeff-En:   0.000D+00 0.000D+00 0.000D+00 0.100D+01
 Coeff:     -0.236D-01 0.144D+00-0.607D+00 0.149D+01
 Gap=     0.379 Goal=   None    Shift=    0.000
 RMSDP=3.34D-04 MaxDP=2.49D-03 DE=-1.52D-04 OVMax= 3.33D-03

 Cycle   5  Pass 1  IDiag  3:
 E= -2.34047902390516     Delta-E=       -0.000019600143 Rises=F Damp=F
 DIIS: error= 9.75D-05 at cycle   5 NSaved=   5.
 NSaved= 5 IEnMin= 5 EnMin= -2.34047902390516     IErMin= 5 ErrMin= 9.75D-05
 ErrMax= 9.75D-05  0.00D+00 EMaxC= 1.00D-01 BMatC= 2.44D-07 BMatP= 1.93D-06
 IDIUse=1 WtCom= 1.00D+00 WtEn= 0.00D+00
 Coeff-Com: -0.228D-02-0.455D-02 0.146D+00-0.770D+00 0.163D+01
 Coeff:     -0.228D-02-0.455D-02 0.146D+00-0.770D+00 0.163D+01
 Gap=     0.379 Goal=   None    Shift=    0.000
 RMSDP=1.37D-04 MaxDP=1.04D-03 DE=-1.96D-05 OVMax= 1.53D-03

 Cycle   6  Pass 1  IDiag  3:
 E= -2.34048164541386     Delta-E=       -0.000002621509 Rises=F Damp=F
 DIIS: error= 2.17D-05 at cycle   6 NSaved=   6.
 NSaved= 6 IEnMin= 6 EnMin= -2.34048164541386     IErMin= 6 ErrMin= 2.17D-05
 ErrMax= 2.17D-05  0.00D+00 EMaxC= 1.00D-01 BMatC= 1.89D-08 BMatP= 2.44D-07
 IDIUse=1 WtCom= 1.00D+00 WtEn= 0.00D+00
 Coeff-Com:  0.469D-02-0.176D-01 0.302D-02 0.204D+00-0.763D+00 0.157D+01
 Coeff:      0.469D-02-0.176D-01 0.302D-02 0.204D+00-0.763D+00 0.157D+01
 Gap=     0.379 Goal=   None    Shift=    0.000
 RMSDP=3.59D-05 MaxDP=2.59D-04 DE=-2.62D-06 OVMax= 3.80D-04

 Cycle   7  Pass 1  IDiag  3:
 E= -2.34048181953904     Delta-E=       -0.000000174125 Rises=F Damp=F
 DIIS: error= 4.25D-06 at cycle   7 NSaved=   7.
 NSaved= 7 IEnMin= 7 EnMin= -2.34048181953904     IErMin= 7 ErrMin= 4.25D-06
 ErrMax= 4.25D-06  0.00D+00 EMaxC= 1.00D-01 BMatC= 8.87D-10 BMatP= 1.89D-08
 IDIUse=1 WtCom= 1.00D+00 WtEn= 0.00D+00
 Coeff-Com: -0.148D-02 0.613D-02-0.584D-02-0.485D-01 0.231D+00-0.650D+00
 Coeff-Com:  0.147D+01
 Coeff:     -0.148D-02 0.613D-02-0.584D-02-0.485D-01 0.231D+00-0.650D+00
 Coeff:      0.147D+01
 Gap=     0.379 Goal=   None    Shift=    0.000
 RMSDP=6.36D-06 MaxDP=4.10D-05 DE=-1.74D-07 OVMax= 6.16D-05

 Cycle   8  Pass 1  IDiag  3:
 E= -2.34048182657250     Delta-E=       -0.000000007033 Rises=F Damp=F
 DIIS: error= 1.12D-06 at cycle   8 NSaved=   8.
 NSaved= 8 IEnMin= 8 EnMin= -2.34048182657250     IErMin= 8 ErrMin= 1.12D-06
 ErrMax= 1.12D-06  0.00D+00 EMaxC= 1.00D-01 BMatC= 6.36D-11 BMatP= 8.87D-10
 IDIUse=1 WtCom= 1.00D+00 WtEn= 0.00D+00
 Coeff-Com:  0.492D-03-0.218D-02 0.342D-02 0.102D-01-0.662D-01 0.222D+00
 Coeff-Com: -0.729D+00 0.156D+01
 Coeff:      0.492D-03-0.218D-02 0.342D-02 0.102D-01-0.662D-01 0.222D+00
 Coeff:     -0.729D+00 0.156D+01
 Gap=     0.379 Goal=   None    Shift=    0.000
 RMSDP=1.67D-06 MaxDP=1.11D-05 DE=-7.03D-09 OVMax= 1.74D-05

 Cycle   9  Pass 1  IDiag  3:
 E= -2.34048182707385     Delta-E=       -0.000000000501 Rises=F Damp=F
 DIIS: error= 2.92D-07 at cycle   9 NSaved=   9.
 NSaved= 9 IEnMin= 9 EnMin= -2.34048182707385     IErMin= 9 ErrMin= 2.92D-07
 ErrMax= 2.92D-07  0.00D+00 EMaxC= 1.00D-01 BMatC= 3.92D-12 BMatP= 6.36D-11
 IDIUse=1 WtCom= 1.00D+00 WtEn= 0.00D+00
 Coeff-Com: -0.217D-03 0.981D-03-0.172D-02-0.369D-02 0.276D-01-0.983D-01
 Coeff-Com:  0.351D+00-0.914D+00 0.164D+01
 Coeff:     -0.217D-03 0.981D-03-0.172D-02-0.369D-02 0.276D-01-0.983D-01
 Coeff:      0.351D+00-0.914D+00 0.164D+01
 Gap=     0.379 Goal=   None    Shift=    0.000
 RMSDP=4.21D-07 MaxDP=2.94D-06 DE=-5.01D-10 OVMax= 3.61D-06

 Cycle  10  Pass 1  IDiag  3:
 E= -2.34048182710531     Delta-E=       -0.000000000031 Rises=F Damp=F
 DIIS: error= 5.52D-08 at cycle  10 NSaved=  10.
 NSaved=10 IEnMin=10 EnMin= -2.34048182710531     IErMin=10 ErrMin= 5.52D-08
 ErrMax= 5.52D-08  0.00D+00 EMaxC= 1.00D-01 BMatC= 2.08D-13 BMatP= 3.92D-12
 IDIUse=1 WtCom= 1.00D+00 WtEn= 0.00D+00
 Coeff-Com:  0.719D-04-0.335D-03 0.654D-03 0.955D-03-0.889D-02 0.339D-01
 Coeff-Com: -0.129D+00 0.359D+00-0.803D+00 0.155D+01
 Coeff:      0.719D-04-0.335D-03 0.654D-03 0.955D-03-0.889D-02 0.339D-01
 Coeff:     -0.129D+00 0.359D+00-0.803D+00 0.155D+01
 Gap=     0.379 Goal=   None    Shift=    0.000
 RMSDP=9.25D-08 MaxDP=5.50D-07 DE=-3.15D-11 OVMax= 8.78D-07

 Cycle  11  Pass 1  IDiag  3:
 E= -2.34048182710689     Delta-E=       -0.000000000002 Rises=F Damp=F
 DIIS: error= 1.61D-08 at cycle  11 NSaved=  11.
 NSaved=11 IEnMin=11 EnMin= -2.34048182710689     IErMin=11 ErrMin= 1.61D-08
 ErrMax= 1.61D-08  0.00D+00 EMaxC= 1.00D-01 BMatC= 1.29D-14 BMatP= 2.08D-13
 IDIUse=1 WtCom= 1.00D+00 WtEn= 0.00D+00
 Coeff-Com: -0.319D-04 0.149D-03-0.291D-03-0.401D-03 0.385D-02-0.147D-01
 Coeff-Com:  0.559D-01-0.156D+00 0.364D+00-0.857D+00 0.160D+01
 Coeff:     -0.319D-04 0.149D-03-0.291D-03-0.401D-03 0.385D-02-0.147D-01
 Coeff:      0.559D-01-0.156D+00 0.364D+00-0.857D+00 0.160D+01
 Gap=     0.379 Goal=   None    Shift=    0.000
 RMSDP=2.31D-08 MaxDP=2.00D-07 DE=-1.58D-12 OVMax= 2.24D-07

 Cycle  12  Pass 1  IDiag  3:
 E= -2.34048182710677     Delta-E=        0.000000000000 Rises=F Damp=F
 DIIS: error= 5.34D-09 at cycle  12 NSaved=  12.
 NSaved=12 IEnMin=11 EnMin= -2.34048182710689     IErMin=12 ErrMin= 5.34D-09
 ErrMax= 5.34D-09  0.00D+00 EMaxC= 1.00D-01 BMatC= 1.04D-15 BMatP= 1.29D-14
 IDIUse=1 WtCom= 1.00D+00 WtEn= 0.00D+00
 Coeff-Com:  0.138D-04-0.652D-04 0.134D-03 0.144D-03-0.162D-02 0.639D-02
 Coeff-Com: -0.250D-01 0.713D-01-0.172D+00 0.433D+00-0.100D+01 0.169D+01
 Coeff:      0.138D-04-0.652D-04 0.134D-03 0.144D-03-0.162D-02 0.639D-02
 Coeff:     -0.250D-01 0.713D-01-0.172D+00 0.433D+00-0.100D+01 0.169D+01
 Gap=     0.379 Goal=   None    Shift=    0.000
 RMSDP=7.31D-09 MaxDP=7.00D-08 DE= 1.14D-13 OVMax= 7.17D-08

 Cycle  13  Pass 2  IDiag  1:
 SCF Done:  E(RAM1) =  -2.34048182711     A.U. after   13 cycles
            NFock= 12  Conv=0.73D-08     -V/T= 0.8793
 KE=-1.939751313308D+01 PE=-1.707325956985D+02 EE= 8.531079196887D+01
 Leave Link  502 at Mon Nov 23 02:20:18 2015, MaxMem=    33554432 cpu:         0.0
 (Enter /home/Applications/g09/g09/l701.exe)
 Compute integral first derivatives.
 ... and contract with generalized density number  0.
 Leave Link  701 at Mon Nov 23 02:20:18 2015, MaxMem=    33554432 cpu:         0.0
 (Enter /home/Applications/g09/g09/l702.exe)
 L702 exits ... SP integral derivatives will be done elsewhere.
 Leave Link  702 at Mon Nov 23 02:20:18 2015, MaxMem=    33554432 cpu:         0.0
 (Enter /home/Applications/g09/g09/l703.exe)
 Compute integral first derivatives, UseDBF=F ICtDFT=           0.
 Integral derivatives from FoFJK, PRISM(SPDF).
 Calling FoFJK, ICntrl=      2127 FMM=F ISym2X=0 I1Cent= 0 IOpClX= 0 NMat=1 NMatS=1 NMatT=0.
 FoFJK:  IHMeth= 8 ICntrl=    2127 DoSepK=F KAlg= 0 I1Cent=   0 FoldK=F
 IRaf=         0 NMat=   1 IRICut=       1 DoRegI=T DoRafI=F ISym2E= 0.
 FoFCou: FMM=F IPFlag=           0 FMFlag=      100000 FMFlg1=         800
         NFxFlg=           0 DoJE=F BraDBF=F KetDBF=F FulRan=T
         wScrn=  0.000000 ICntrl=    2127 IOpCl=  0 I1Cent=           0 NGrid=           0
         NMat0=    1 NMatS0=      1 NMatT0=    0 NMatD0=    1 NMtDS0=    0 NMtDT0=    0
 Symmetry not used in FoFCou.
 Leave Link  703 at Mon Nov 23 02:20:18 2015, MaxMem=    33554432 cpu:         0.0
 (Enter /home/Applications/g09/g09/l716.exe)
 Dipole        = 1.44650218D-02-1.59588807D-01 1.43928957D-02
 ***** Axes restored to original set *****
 -------------------------------------------------------------------
 Center     Atomic                   Forces (Hartrees/Bohr)
 Number     Number              X              Y              Z
 -------------------------------------------------------------------
      1        6           0.007224915   -0.018926659   -0.000025418
      2        6           0.009987033    0.014744938   -0.000537303
      3        8          -0.031972449   -0.007219993    0.000189935
      4        6           0.016463081    0.004415487    0.000788540
      5        6          -0.000891627    0.014593604   -0.001123168
      6        1           0.002759465   -0.000911585    0.001400900
      7        1          -0.003387937   -0.004159191   -0.000938845
      8        1          -0.006370103   -0.002921247    0.000502947
      9        1           0.006187622    0.000384645   -0.000257587
 -------------------------------------------------------------------
 Cartesian Forces:  Max     0.031972449 RMS     0.009499272
 Leave Link  716 at Mon Nov 23 02:20:18 2015, MaxMem=    33554432 cpu:         0.0
 (Enter /home/Applications/g09/g09/l103.exe)

 GradGradGradGradGradGradGradGradGradGradGradGradGradGradGradGradGradGrad
 Berny optimization.
 Using GEDIIS/GDIIS optimizer.
 FormGI is forming the generalized inverse of G from B-inverse, IUseBI=4.
 Internal  Forces:  Max     0.013278705 RMS     0.005545316
 Search for a local minimum.
 Step number   2 out of a maximum of   48
 All quantities printed in internal units (Hartrees-Bohrs-Radians)
 RMS Force = .55453D-02 SwitMx=.10000D-02 MixMth= 1
 Mixed Optimization -- RFO/linear search
 Update second derivatives using D2CorX and points    1    2
 DE= -1.25D-02 DEPred=-1.48D-02 R= 8.46D-01
 TightC=F SS=  1.41D+00  RLast= 3.03D-01 DXNew= 5.0454D-01 9.0860D-01
 Trust test= 8.46D-01 RLast= 3.03D-01 DXMaxT set to 5.05D-01
 ITU=  1  0
 Use linear search instead of GDIIS.
     Eigenvalues ---    0.01571   0.01689   0.01711   0.01835   0.02098
     Eigenvalues ---    0.02303   0.15518   0.15988   0.15999   0.16033
     Eigenvalues ---    0.22058   0.25117   0.35613   0.37395   0.37974
     Eigenvalues ---    0.40164   0.41777   0.43513   0.44326   0.50739
     Eigenvalues ---    0.56009
 RFO step:  Lambda=-3.62106648D-03 EMin= 1.57052895D-02
 Quartic linear search produced a step of -0.07062.
 Iteration  1 RMS(Cart)=  0.02095302 RMS(Int)=  0.00036292
 Iteration  2 RMS(Cart)=  0.00040517 RMS(Int)=  0.00015116
 Iteration  3 RMS(Cart)=  0.00000009 RMS(Int)=  0.00015116
 ITry= 1 IFail=0 DXMaxC= 5.49D-02 DCOld= 1.00D+10 DXMaxT= 5.05D-01 DXLimC= 3.00D+00 Rises=F
 Variable       Old X    -DE/DX   Delta X   Delta X   Delta X     New X
                                 (Linear)    (Quad)   (Total)
    R1        2.60882   0.00799   0.00867  -0.00727   0.00144   2.61026
    R2        2.67464   0.01041   0.00043   0.02132   0.02158   2.69622
    R3        2.01945   0.00462  -0.00094   0.01387   0.01293   2.03238
    R4        2.61090   0.00535   0.00101   0.00708   0.00828   2.61918
    R5        2.00890   0.00535  -0.00700   0.03152   0.02452   2.03342
    R6        2.57989   0.01328  -0.00672   0.03935   0.03271   2.61259
    R7        2.62038   0.00335   0.00443  -0.00551  -0.00122   2.61916
    R8        2.03147  -0.00245  -0.00545   0.01084   0.00539   2.03686
    R9        2.02383   0.00165   0.00166  -0.00070   0.00096   2.02479
    A1        1.87792  -0.00682  -0.00442  -0.01657  -0.02111   1.85681
    A2        2.18058   0.00757   0.00145   0.03418   0.03565   2.21624
    A3        2.22467  -0.00075   0.00297  -0.01768  -0.01468   2.20999
    A4        1.89694   0.01233   0.00257   0.04086   0.04365   1.94059
    A5        2.30688  -0.00163  -0.00227   0.00839   0.00599   2.31287
    A6        2.07914  -0.01069  -0.00028  -0.04906  -0.04947   2.02966
    A7        1.88061  -0.01326  -0.00227  -0.04420  -0.04605   1.83456
    A8        1.91637   0.00854   0.00414   0.02248   0.02664   1.94301
    A9        2.08477  -0.00914  -0.00267  -0.03748  -0.04006   2.04470
   A10        2.28185   0.00061  -0.00186   0.01538   0.01360   2.29545
   A11        1.85283  -0.00079  -0.00028  -0.00253  -0.00312   1.84971
   A12        2.22008  -0.00201   0.00058  -0.01368  -0.01299   2.20709
   A13        2.20976   0.00281  -0.00049   0.01693   0.01654   2.22630
    D1       -0.00746   0.00018  -0.00166   0.01573   0.01422   0.00676
    D2        3.11049   0.00062   0.00083   0.02484   0.02592   3.13641
    D3        3.12875  -0.00017  -0.00207   0.00403   0.00184   3.13058
    D4       -0.03649   0.00027   0.00042   0.01314   0.01354  -0.02295
    D5        0.01250  -0.00044  -0.00219  -0.00891  -0.01105   0.00145
    D6       -3.09616  -0.00074   0.00124  -0.03238  -0.03092  -3.12707
    D7       -3.12353  -0.00011  -0.00175   0.00297   0.00107  -3.12246
    D8        0.05100  -0.00041   0.00168  -0.02050  -0.01880   0.03220
    D9       -0.00064   0.00014   0.00507  -0.01652  -0.01149  -0.01214
   D10       -3.12218  -0.00032   0.00293  -0.02495  -0.02173   3.13927
   D11        0.00877  -0.00035  -0.00663   0.01109   0.00435   0.01312
   D12       -3.11382  -0.00043  -0.00065  -0.00818  -0.00864  -3.12245
   D13       -0.01316   0.00041   0.00566  -0.00154   0.00394  -0.00923
   D14        3.09575   0.00059   0.00231   0.02100   0.02336   3.11911
   D15        3.10659   0.00038  -0.00121   0.01986   0.01863   3.12521
   D16       -0.06768   0.00056  -0.00455   0.04240   0.03805  -0.02964
         Item               Value     Threshold  Converged?
 Maximum Force            0.013279     0.000450     NO 
 RMS     Force            0.005545     0.000300     NO 
 Maximum Displacement     0.054914     0.001800     NO 
 RMS     Displacement     0.021058     0.001200     NO 
 Predicted change in Energy=-1.919913D-03
 Lowest energy point so far.  Saving SCF results.
 GradGradGradGradGradGradGradGradGradGradGradGradGradGradGradGradGradGrad

 Leave Link  103 at Mon Nov 23 02:20:18 2015, MaxMem=    33554432 cpu:         0.0
 (Enter /home/Applications/g09/g09/l202.exe)
                          Input orientation:                          
 ---------------------------------------------------------------------
 Center     Atomic      Atomic             Coordinates (Angstroms)
 Number     Number       Type             X           Y           Z
 ---------------------------------------------------------------------
      1          6           0        0.965574   -0.725828    0.015920
      2          6           0       -0.362962   -1.103616    0.000867
      3          8           0       -1.198172    0.002418   -0.011212
      4          6           0       -0.350608    1.094400    0.012935
      5          6           0        0.978320    0.700881    0.022547
      6          1           0        1.845755    1.329854    0.021605
      7          1           0       -0.806724    2.070897    0.026697
      8          1           0       -0.845415   -2.065342   -0.012465
      9          1           0        1.822643   -1.375193    0.036828
 ---------------------------------------------------------------------
                    Distance matrix (angstroms):
                    1          2          3          4          5
     1  C    0.000000
     2  C    1.381289   0.000000
     3  O    2.283172   1.386013   0.000000
     4  C    2.246235   2.198083   1.382524   0.000000
     5  C    1.426781   2.248491   2.286068   1.386001   0.000000
     6  H    2.236197   3.286433   3.320943   2.208965   1.071473
     7  H    3.311016   3.205483   2.105535   1.077859   2.250187
     8  H    2.252729   1.076038   2.097635   3.198351   3.313491
     9  H    1.075491   2.202707   3.320459   3.289754   2.241243
                    6          7          8          9
     6  H    0.000000
     7  H    2.754055   0.000000
     8  H    4.332542   4.136606   0.000000
     9  H    2.705189   4.334653   2.756314   0.000000
 Stoichiometry    C4H4O
 Framework group  C1[X(C4H4O)]
 Deg. of freedom    21
 Full point group                 C1      NOp   1
 RotChk:  IX=2 Diff= 1.06D-02
 Largest Abelian subgroup         C1      NOp   1
 Largest concise Abelian subgroup C1      NOp   1
                         Standard orientation:                         
 ---------------------------------------------------------------------
 Center     Atomic      Atomic             Coordinates (Angstroms)
 Number     Number       Type             X           Y           Z
 ---------------------------------------------------------------------
      1          6           0       -0.688966    0.992755    0.000676
      2          6           0       -1.107976   -0.323444   -0.002573
      3          8           0       -0.028543   -1.192812    0.004768
      4          6           0        1.089393   -0.379469   -0.003415
      5          6           0        0.737464    0.961098    0.001394
      6          1           0        1.393104    1.808429    0.016211
      7          1           0        2.051288   -0.865603   -0.017886
      8          1           0       -2.084305   -0.775809   -0.000041
      9          1           0       -1.311231    1.869841   -0.012923
 ---------------------------------------------------------------------
 Rotational constants (GHZ):      9.4437525      8.9010161      4.5822907
 Leave Link  202 at Mon Nov 23 02:20:18 2015, MaxMem=    33554432 cpu:         0.0
 (Enter /home/Applications/g09/g09/l301.exe)

 Semi-emprical parameters in input format:
 Method=8 CoreType=1 PeptideFC=0.0125750000 RIJScale=0.5666730000
 ****
 H       
 PQN=1 NValence=1 F0ss=0.4322380000 ZetaOverlap=1.1880780000 U=-0.4188110000
 Beta=-0.2156480000 CoreKO=1.1385450000 KON=0,0,0,1.0589200000 KON=1,0,1,1.1290450000
 KON=0,1,1,1.1706660000 KON=2,1,1,1.0589200000 EISol=-0.4188110042 EHeat=0.0830298228
 Alpha=1.5252600000
 GCore=0.0084690000,1.3383940000,2.2676710000
 GCore=0.0003530000,1.3533660000,3.6667160000
 GCore=-0.0011710000,0.6115380000,4.3212930000
 ****
 C       
 PQN=2,2 NValence=4 F0ss=0.4466820000 F0sp=0.4066640000 F0pp=0.3768030000 F2pp=0.1898720000
 G1sp=0.2679030000
 ZetaOverlap=1.8086650000,1.7840750000
 U=-1.9120180000,-1.5956620000
 Beta=-0.5629500000,-0.3031680000 DDN=0,1,0.7632320000 DDN=1,1,0.7847580000
 CoreKO=1.1124280000 KON=0,0,0,1.0889370000 KON=1,0,1,0.8219700000 KON=0,1,1,0.9893020000
 KON=2,1,1,0.7783930000 EISol=-4.4398989268 EHeat=0.2723305520 Alpha=1.3702060000
 DipHyp=1.5263761812
 GCore=0.0008320000,1.4654240000,2.8806590000
 GCore=0.0027890000,1.3245690000,3.2438410000
 GCore=-0.0012930000,1.2846020000,4.0922960000
 GCore=-0.0000880000,1.4958780000,4.9512050000
 ****
 O       
 PQN=2,2 NValence=6 F0ss=0.5666750000 F0sp=0.5060470000 F0pp=0.4958710000 F2pp=0.2150590000
 G1sp=0.4181060000
 ZetaOverlap=3.3086090000,2.5960610000
 U=-3.8586440000,-2.8743270000
 Beta=-1.1627760000,-1.1056560000 DDN=0,1,0.4676820000 DDN=1,1,0.4852320000
 CoreKO=1.0326690000 KON=0,0,0,0.8822960000 KON=1,0,1,0.5019540000 KON=0,1,1,0.8822960000
 KON=2,1,1,0.5406950000 EISol=-11.6164441184 EHeat=0.0949133088 Alpha=2.2592050000
 DipHyp=0.9353101877
 GCore=0.0202690000,1.4001430000,1.6127490000
 GCore=0.0056550000,2.0844870000,2.7600040000
 ****
 
 Standard basis: VSTO-6G (5D, 7F)
 Ernie: Thresh=  0.10000D-02 Tol=  0.10000D-05 Strict=F.
  NNHCO=     0 NNPyr=     0 NCTC=     0               EPep=         0.000000000
    EC=        67.409582713  ECS=         1.864311735   EG=         0.360535530
   EHC=         0.000000000  EAt=       -31.051283842  AtH=         1.516354808
 EPDDG=         0.000000000  ECC=        69.634429977 EAtT=        32.567638650
 There are    24 symmetry adapted cartesian basis functions of A   symmetry.
 There are    24 symmetry adapted basis functions of A   symmetry.
    24 basis functions,   144 primitive gaussians,    24 cartesian basis functions
    13 alpha electrons       13 beta electrons
       nuclear repulsion energy       102.2020686275 Hartrees.
 IExCor=    0 DFT=F Ex=HF Corr=None ExCW=0 ScaHFX=  1.000000
 ScaDFX=  1.000000  1.000000  1.000000  1.000000 ScalE2=  1.000000  1.000000
 IRadAn=      0 IRanWt=     -1 IRanGd=            0 ICorTp=0 IEmpDi=  4
 Integral buffers will be    131072 words long.
 Regular integral format.
 Two-electron integral symmetry is turned off.
 Leave Link  301 at Mon Nov 23 02:20:18 2015, MaxMem=    33554432 cpu:         0.0
 (Enter /home/Applications/g09/g09/l302.exe)
 Do NDO integrals.
 NPDir=0 NMtPBC=     1 NCelOv=     1 NCel=       1 NClECP=     1 NCelD=      1
         NCelK=      1 NCelE2=     1 NClLst=     1 CellRange=     0.0.
 One-electron integrals computed using PRISM.
 NBasis=    24 RedAO= F EigKep=  0.00D+00  NBF=    24
 NBsUse=    24 1.00D-04 EigRej=  0.00D+00 NBFU=    24
 Leave Link  302 at Mon Nov 23 02:20:18 2015, MaxMem=    33554432 cpu:         0.0
 (Enter /home/Applications/g09/g09/l303.exe)
 DipDrv:  MaxL=1.
 Leave Link  303 at Mon Nov 23 02:20:18 2015, MaxMem=    33554432 cpu:         0.0
 (Enter /home/Applications/g09/g09/l401.exe)
 Initial guess from the checkpoint file:  "/home/Applications/g09/scratch/Gau-2430.chk"
 B after Tr=     0.000000    0.000000    0.000000
         Rot=    0.999993   -0.000033   -0.000009   -0.003670 Ang=  -0.42 deg.
 Guess basis will be translated and rotated to current coordinates.
 JPrj=0 DoOrth=T DoCkMO=T.
 Leave Link  401 at Mon Nov 23 02:20:18 2015, MaxMem=    33554432 cpu:         0.0
 (Enter /home/Applications/g09/g09/l502.exe)
 Closed shell SCF:
 Using DIIS extrapolation, IDIIS=  1040.
 Overlap will be assumed to be unity.
 Two-electron integral symmetry not used.
 Keep J ints in memory in canonical form, NReq=888082.
 IVT=       79475 IEndB=       79475 NGot=    33554432 MDV=    33473473
 LenX=    33473473 LenY=    33472456
 Requested convergence on RMS density matrix=1.00D-08 within 128 cycles.
 Requested convergence on MAX density matrix=1.00D-06.
 Requested convergence on             energy=1.00D-06.
 No special actions if energy rises.
 FoFCou: FMM=F IPFlag=           0 FMFlag=           0 FMFlg1=           0
         NFxFlg=           0 DoJE=F BraDBF=F KetDBF=F FulRan=T
         wScrn=  0.000000 ICntrl=     600 IOpCl=  2 I1Cent=           0 NGrid=           0
         NMat0=    1 NMatS0=     54 NMatT0=    0 NMatD0=    1 NMtDS0=    0 NMtDT0=    0
 Symmetry not used in FoFCou.

 Cycle   1  Pass 1  IDiag  1:
 E= -2.34143228172815    
 DIIS: error= 2.15D-03 at cycle   1 NSaved=   1.
 NSaved= 1 IEnMin= 1 EnMin= -2.34143228172815     IErMin= 1 ErrMin= 2.15D-03
 ErrMax= 2.15D-03  0.00D+00 EMaxC= 1.00D-01 BMatC= 2.18D-04 BMatP= 2.18D-04
 IDIUse=3 WtCom= 9.79D-01 WtEn= 2.15D-02
 Coeff-Com:  0.100D+01
 Coeff-En:   0.100D+01
 Coeff:      0.100D+01
 GapD=    2.000 DampG=2.000 DampE=1.000 DampFc=2.0000 IDamp=-1.
 RMSDP=9.98D-04 MaxDP=4.59D-03              OVMax= 0.00D+00

 Cycle   2  Pass 1  IDiag  3:
 E= -2.34205063436428     Delta-E=       -0.000618352636 Rises=F Damp=F
 DIIS: error= 5.61D-04 at cycle   2 NSaved=   2.
 NSaved= 2 IEnMin= 2 EnMin= -2.34205063436428     IErMin= 2 ErrMin= 5.61D-04
 ErrMax= 5.61D-04  0.00D+00 EMaxC= 1.00D-01 BMatC= 2.47D-05 BMatP= 2.18D-04
 IDIUse=3 WtCom= 9.94D-01 WtEn= 5.61D-03
 Coeff-Com: -0.386D+00 0.139D+01
 Coeff-En:   0.000D+00 0.100D+01
 Coeff:     -0.384D+00 0.138D+01
 Gap=     0.377 Goal=   None    Shift=    0.000
 RMSDP=6.01D-04 MaxDP=3.11D-03 DE=-6.18D-04 OVMax= 4.40D-03

 Cycle   3  Pass 1  IDiag  3:
 E= -2.34217022145801     Delta-E=       -0.000119587094 Rises=F Damp=F
 DIIS: error= 2.75D-04 at cycle   3 NSaved=   3.
 NSaved= 3 IEnMin= 3 EnMin= -2.34217022145801     IErMin= 3 ErrMin= 2.75D-04
 ErrMax= 2.75D-04  0.00D+00 EMaxC= 1.00D-01 BMatC= 1.92D-06 BMatP= 2.47D-05
 IDIUse=3 WtCom= 9.97D-01 WtEn= 2.75D-03
 Coeff-Com:  0.151D+00-0.678D+00 0.153D+01
 Coeff-En:   0.000D+00 0.000D+00 0.100D+01
 Coeff:      0.151D+00-0.677D+00 0.153D+01
 Gap=     0.377 Goal=   None    Shift=    0.000
 RMSDP=2.81D-04 MaxDP=2.01D-03 DE=-1.20D-04 OVMax= 2.98D-03

 Cycle   4  Pass 1  IDiag  3:
 E= -2.34218752303063     Delta-E=       -0.000017301573 Rises=F Damp=F
 DIIS: error= 1.23D-04 at cycle   4 NSaved=   4.
 NSaved= 4 IEnMin= 4 EnMin= -2.34218752303063     IErMin= 4 ErrMin= 1.23D-04
 ErrMax= 1.23D-04  0.00D+00 EMaxC= 1.00D-01 BMatC= 2.81D-07 BMatP= 1.92D-06
 IDIUse=3 WtCom= 9.99D-01 WtEn= 1.23D-03
 Coeff-Com: -0.155D-01 0.115D+00-0.653D+00 0.155D+01
 Coeff-En:   0.000D+00 0.000D+00 0.000D+00 0.100D+01
 Coeff:     -0.155D-01 0.115D+00-0.652D+00 0.155D+01
 Gap=     0.377 Goal=   None    Shift=    0.000
 RMSDP=1.40D-04 MaxDP=1.13D-03 DE=-1.73D-05 OVMax= 1.56D-03

 Cycle   5  Pass 1  IDiag  3:
 E= -2.34219062598373     Delta-E=       -0.000003102953 Rises=F Damp=F
 DIIS: error= 3.72D-05 at cycle   5 NSaved=   5.
 NSaved= 5 IEnMin= 5 EnMin= -2.34219062598373     IErMin= 5 ErrMin= 3.72D-05
 ErrMax= 3.72D-05  0.00D+00 EMaxC= 1.00D-01 BMatC= 3.02D-08 BMatP= 2.81D-07
 IDIUse=1 WtCom= 1.00D+00 WtEn= 0.00D+00
 Coeff-Com: -0.898D-02 0.257D-01 0.946D-01-0.675D+00 0.156D+01
 Coeff:     -0.898D-02 0.257D-01 0.946D-01-0.675D+00 0.156D+01
 Gap=     0.377 Goal=   None    Shift=    0.000
 RMSDP=5.20D-05 MaxDP=4.29D-04 DE=-3.10D-06 OVMax= 6.25D-04

 Cycle   6  Pass 1  IDiag  3:
 E= -2.34219095521935     Delta-E=       -0.000000329236 Rises=F Damp=F
 DIIS: error= 6.11D-06 at cycle   6 NSaved=   6.
 NSaved= 6 IEnMin= 6 EnMin= -2.34219095521935     IErMin= 6 ErrMin= 6.11D-06
 ErrMax= 6.11D-06  0.00D+00 EMaxC= 1.00D-01 BMatC= 1.84D-09 BMatP= 3.02D-08
 IDIUse=1 WtCom= 1.00D+00 WtEn= 0.00D+00
 Coeff-Com:  0.756D-02-0.279D-01 0.277D-02 0.261D+00-0.868D+00 0.162D+01
 Coeff:      0.756D-02-0.279D-01 0.277D-02 0.261D+00-0.868D+00 0.162D+01
 Gap=     0.377 Goal=   None    Shift=    0.000
 RMSDP=1.02D-05 MaxDP=7.58D-05 DE=-3.29D-07 OVMax= 1.06D-04

 Cycle   7  Pass 1  IDiag  3:
 E= -2.34219097020169     Delta-E=       -0.000000014982 Rises=F Damp=F
 DIIS: error= 8.28D-07 at cycle   7 NSaved=   7.
 NSaved= 7 IEnMin= 7 EnMin= -2.34219097020169     IErMin= 7 ErrMin= 8.28D-07
 ErrMax= 8.28D-07  0.00D+00 EMaxC= 1.00D-01 BMatC= 6.37D-11 BMatP= 1.84D-09
 IDIUse=1 WtCom= 1.00D+00 WtEn= 0.00D+00
 Coeff-Com: -0.277D-02 0.103D-01-0.314D-02-0.879D-01 0.309D+00-0.689D+00
 Coeff-Com:  0.146D+01
 Coeff:     -0.277D-02 0.103D-01-0.314D-02-0.879D-01 0.309D+00-0.689D+00
 Coeff:      0.146D+01
 Gap=     0.377 Goal=   None    Shift=    0.000
 RMSDP=1.57D-06 MaxDP=8.92D-06 DE=-1.50D-08 OVMax= 1.32D-05

 Cycle   8  Pass 1  IDiag  3:
 E= -2.34219097064913     Delta-E=       -0.000000000447 Rises=F Damp=F
 DIIS: error= 1.76D-07 at cycle   8 NSaved=   8.
 NSaved= 8 IEnMin= 8 EnMin= -2.34219097064913     IErMin= 8 ErrMin= 1.76D-07
 ErrMax= 1.76D-07  0.00D+00 EMaxC= 1.00D-01 BMatC= 3.06D-12 BMatP= 6.37D-11
 IDIUse=1 WtCom= 1.00D+00 WtEn= 0.00D+00
 Coeff-Com:  0.915D-03-0.345D-02 0.139D-02 0.281D-01-0.101D+00 0.237D+00
 Coeff-Com: -0.647D+00 0.148D+01
 Coeff:      0.915D-03-0.345D-02 0.139D-02 0.281D-01-0.101D+00 0.237D+00
 Coeff:     -0.647D+00 0.148D+01
 Gap=     0.377 Goal=   None    Shift=    0.000
 RMSDP=3.35D-07 MaxDP=1.93D-06 DE=-4.47D-10 OVMax= 2.42D-06

 Cycle   9  Pass 1  IDiag  3:
 E= -2.34219097067188     Delta-E=       -0.000000000023 Rises=F Damp=F
 DIIS: error= 6.50D-08 at cycle   9 NSaved=   9.
 NSaved= 9 IEnMin= 9 EnMin= -2.34219097067188     IErMin= 9 ErrMin= 6.50D-08
 ErrMax= 6.50D-08  0.00D+00 EMaxC= 1.00D-01 BMatC= 1.96D-13 BMatP= 3.06D-12
 IDIUse=1 WtCom= 1.00D+00 WtEn= 0.00D+00
 Coeff-Com: -0.343D-03 0.130D-02-0.627D-03-0.101D-01 0.372D-01-0.889D-01
 Coeff-Com:  0.258D+00-0.751D+00 0.155D+01
 Coeff:     -0.343D-03 0.130D-02-0.627D-03-0.101D-01 0.372D-01-0.889D-01
 Coeff:      0.258D+00-0.751D+00 0.155D+01
 Gap=     0.377 Goal=   None    Shift=    0.000
 RMSDP=9.32D-08 MaxDP=6.87D-07 DE=-2.28D-11 OVMax= 8.06D-07

 Cycle  10  Pass 1  IDiag  3:
 E= -2.34219097067324     Delta-E=       -0.000000000001 Rises=F Damp=F
 DIIS: error= 2.30D-08 at cycle  10 NSaved=  10.
 NSaved=10 IEnMin=10 EnMin= -2.34219097067324     IErMin=10 ErrMin= 2.30D-08
 ErrMax= 2.30D-08  0.00D+00 EMaxC= 1.00D-01 BMatC= 1.65D-14 BMatP= 1.96D-13
 IDIUse=1 WtCom= 1.00D+00 WtEn= 0.00D+00
 Coeff-Com:  0.138D-03-0.530D-03 0.345D-03 0.374D-02-0.143D-01 0.357D-01
 Coeff-Com: -0.111D+00 0.370D+00-0.990D+00 0.171D+01
 Coeff:      0.138D-03-0.530D-03 0.345D-03 0.374D-02-0.143D-01 0.357D-01
 Coeff:     -0.111D+00 0.370D+00-0.990D+00 0.171D+01
 Gap=     0.377 Goal=   None    Shift=    0.000
 RMSDP=3.10D-08 MaxDP=2.91D-07 DE=-1.36D-12 OVMax= 3.68D-07

 Cycle  11  Pass 1  IDiag  3:
 E= -2.34219097067351     Delta-E=        0.000000000000 Rises=F Damp=F
 DIIS: error= 6.15D-09 at cycle  11 NSaved=  11.
 NSaved=11 IEnMin=11 EnMin= -2.34219097067351     IErMin=11 ErrMin= 6.15D-09
 ErrMax= 6.15D-09  0.00D+00 EMaxC= 1.00D-01 BMatC= 1.39D-15 BMatP= 1.65D-14
 IDIUse=1 WtCom= 1.00D+00 WtEn= 0.00D+00
 Coeff-Com: -0.710D-04 0.272D-03-0.184D-03-0.187D-02 0.720D-02-0.179D-01
 Coeff-Com:  0.555D-01-0.185D+00 0.524D+00-0.113D+01 0.175D+01
 Coeff:     -0.710D-04 0.272D-03-0.184D-03-0.187D-02 0.720D-02-0.179D-01
 Coeff:      0.555D-01-0.185D+00 0.524D+00-0.113D+01 0.175D+01
 Gap=     0.377 Goal=   None    Shift=    0.000
 RMSDP=9.95D-09 MaxDP=9.85D-08 DE=-2.70D-13 OVMax= 1.17D-07

 Cycle  12  Pass 2  IDiag  1:
 SCF Done:  E(RAM1) =  -2.34219097067     A.U. after   12 cycles
            NFock= 11  Conv=0.10D-07     -V/T= 0.8790
 KE=-1.935782473406D+01 PE=-1.702839916849D+02 EE= 8.509755682080D+01
 Leave Link  502 at Mon Nov 23 02:20:18 2015, MaxMem=    33554432 cpu:         0.0
 (Enter /home/Applications/g09/g09/l701.exe)
 Compute integral first derivatives.
 ... and contract with generalized density number  0.
 Leave Link  701 at Mon Nov 23 02:20:18 2015, MaxMem=    33554432 cpu:         0.0
 (Enter /home/Applications/g09/g09/l702.exe)
 L702 exits ... SP integral derivatives will be done elsewhere.
 Leave Link  702 at Mon Nov 23 02:20:18 2015, MaxMem=    33554432 cpu:         0.0
 (Enter /home/Applications/g09/g09/l703.exe)
 Compute integral first derivatives, UseDBF=F ICtDFT=           0.
 Integral derivatives from FoFJK, PRISM(SPDF).
 Calling FoFJK, ICntrl=      2127 FMM=F ISym2X=0 I1Cent= 0 IOpClX= 0 NMat=1 NMatS=1 NMatT=0.
 FoFJK:  IHMeth= 8 ICntrl=    2127 DoSepK=F KAlg= 0 I1Cent=   0 FoldK=F
 IRaf=         0 NMat=   1 IRICut=       1 DoRegI=T DoRafI=F ISym2E= 0.
 FoFCou: FMM=F IPFlag=           0 FMFlag=      100000 FMFlg1=         800
         NFxFlg=           0 DoJE=F BraDBF=F KetDBF=F FulRan=T
         wScrn=  0.000000 ICntrl=    2127 IOpCl=  0 I1Cent=           0 NGrid=           0
         NMat0=    1 NMatS0=      1 NMatT0=    0 NMatD0=    1 NMtDS0=    0 NMtDT0=    0
 Symmetry not used in FoFCou.
 Leave Link  703 at Mon Nov 23 02:20:18 2015, MaxMem=    33554432 cpu:         0.0
 (Enter /home/Applications/g09/g09/l716.exe)
 Dipole        =-3.40649251D-03-1.56049379D-01-5.77035440D-03
 ***** Axes restored to original set *****
 -------------------------------------------------------------------
 Center     Atomic                   Forces (Hartrees/Bohr)
 Number     Number              X              Y              Z
 -------------------------------------------------------------------
      1        6          -0.003012006   -0.008369214    0.001401985
      2        6          -0.000636610   -0.003798119   -0.001593508
      3        8           0.007822566   -0.000295970    0.001582987
      4        6           0.004827022    0.006158001   -0.000368835
      5        6          -0.009857406    0.005950072   -0.000706448
      6        1           0.001289961   -0.000543467    0.000588219
      7        1          -0.000349399   -0.004855051   -0.000505025
      8        1           0.000158998    0.003161617    0.000197606
      9        1          -0.000243125    0.002592131   -0.000596981
 -------------------------------------------------------------------
 Cartesian Forces:  Max     0.009857406 RMS     0.003849553
 Leave Link  716 at Mon Nov 23 02:20:18 2015, MaxMem=    33554432 cpu:         0.0
 (Enter /home/Applications/g09/g09/l103.exe)

 GradGradGradGradGradGradGradGradGradGradGradGradGradGradGradGradGradGrad
 Berny optimization.
 Using GEDIIS/GDIIS optimizer.
 FormGI is forming the generalized inverse of G from B-inverse, IUseBI=4.
 Internal  Forces:  Max     0.007348643 RMS     0.002512140
 Search for a local minimum.
 Step number   3 out of a maximum of   48
 All quantities printed in internal units (Hartrees-Bohrs-Radians)
 RMS Force = .25121D-02 SwitMx=.10000D-02 MixMth= 1
 Mixed Optimization -- RFO/linear search
 Update second derivatives using D2CorX and points    1    2    3
 DE= -1.71D-03 DEPred=-1.92D-03 R= 8.90D-01
 TightC=F SS=  1.41D+00  RLast= 1.39D-01 DXNew= 8.4853D-01 4.1728D-01
 Trust test= 8.90D-01 RLast= 1.39D-01 DXMaxT set to 5.05D-01
 ITU=  1  1  0
 Use linear search instead of GDIIS.
     Eigenvalues ---    0.01558   0.01683   0.01722   0.01805   0.02091
     Eigenvalues ---    0.02328   0.11924   0.15998   0.16002   0.16040
     Eigenvalues ---    0.21872   0.28759   0.35581   0.36897   0.37527
     Eigenvalues ---    0.39319   0.42274   0.44278   0.48372   0.52606
     Eigenvalues ---    0.62077
 RFO step:  Lambda=-7.27243943D-04 EMin= 1.55759019D-02
[...]
 Coeff-Com:  0.407D+00-0.945D+00 0.165D+01
 Coeff:     -0.516D-03 0.167D-02-0.320D-02-0.216D-02 0.407D-01-0.150D+00
 Coeff:      0.407D+00-0.945D+00 0.165D+01
 Gap=     0.381 Goal=   None    Shift=    0.000
 RMSDP=1.08D-08 MaxDP=8.28D-08 DE=-3.69D-13 OVMax= 1.18D-07

 Cycle  10  Pass 1  IDiag  3:
 E= -2.34267403056350     Delta-E=        0.000000000000 Rises=F Damp=F
 DIIS: error= 1.77D-09 at cycle  10 NSaved=  10.
 NSaved=10 IEnMin= 9 EnMin= -2.34267403056383     IErMin=10 ErrMin= 1.77D-09
 ErrMax= 1.77D-09  0.00D+00 EMaxC= 1.00D-01 BMatC= 1.15D-16 BMatP= 1.56D-15
 IDIUse=1 WtCom= 1.00D+00 WtEn= 0.00D+00
 Coeff-Com:  0.234D-03-0.757D-03 0.147D-02 0.754D-03-0.176D-01 0.667D-01
 Coeff-Com: -0.187D+00 0.475D+00-0.104D+01 0.171D+01
 Coeff:      0.234D-03-0.757D-03 0.147D-02 0.754D-03-0.176D-01 0.667D-01
 Coeff:     -0.187D+00 0.475D+00-0.104D+01 0.171D+01
 Gap=     0.381 Goal=   None    Shift=    0.000
 RMSDP=2.74D-09 MaxDP=1.95D-08 DE= 3.27D-13 OVMax= 2.76D-08

 Cycle  11  Pass 2  IDiag  1:
 SCF Done:  E(RAM1) =  -2.34267403056     A.U. after   11 cycles
            NFock= 10  Conv=0.27D-08     -V/T= 0.8790
 KE=-1.936359586161D+01 PE=-1.703683260809D+02 EE= 8.513662832963D+01
 Leave Link  502 at Mon Nov 23 02:20:19 2015, MaxMem=    33554432 cpu:         0.0
 (Enter /home/Applications/g09/g09/l701.exe)
 Compute integral first derivatives.
 ... and contract with generalized density number  0.
 Leave Link  701 at Mon Nov 23 02:20:19 2015, MaxMem=    33554432 cpu:         0.0
 (Enter /home/Applications/g09/g09/l702.exe)
 L702 exits ... SP integral derivatives will be done elsewhere.
 Leave Link  702 at Mon Nov 23 02:20:19 2015, MaxMem=    33554432 cpu:         0.0
 (Enter /home/Applications/g09/g09/l703.exe)
 Compute integral first derivatives, UseDBF=F ICtDFT=           0.
 Integral derivatives from FoFJK, PRISM(SPDF).
 Calling FoFJK, ICntrl=      2127 FMM=F ISym2X=0 I1Cent= 0 IOpClX= 0 NMat=1 NMatS=1 NMatT=0.
 FoFJK:  IHMeth= 8 ICntrl=    2127 DoSepK=F KAlg= 0 I1Cent=   0 FoldK=F
 IRaf=         0 NMat=   1 IRICut=       1 DoRegI=T DoRafI=F ISym2E= 0.
 FoFCou: FMM=F IPFlag=           0 FMFlag=      100000 FMFlg1=         800
         NFxFlg=           0 DoJE=F BraDBF=F KetDBF=F FulRan=T
         wScrn=  0.000000 ICntrl=    2127 IOpCl=  0 I1Cent=           0 NGrid=           0
         NMat0=    1 NMatS0=      1 NMatT0=    0 NMatD0=    1 NMtDS0=    0 NMtDT0=    0
 Symmetry not used in FoFCou.
 Leave Link  703 at Mon Nov 23 02:20:19 2015, MaxMem=    33554432 cpu:         0.0
 (Enter /home/Applications/g09/g09/l716.exe)
 Dipole        = 4.35226772D-04-1.57776464D-01 1.10614277D-04
 ***** Axes restored to original set *****
 -------------------------------------------------------------------
 Center     Atomic                   Forces (Hartrees/Bohr)
 Number     Number              X              Y              Z
 -------------------------------------------------------------------
      1        6          -0.000103729   -0.000065485   -0.000016996
      2        6           0.000059351    0.000068423    0.000015542
      3        8           0.000034980    0.000040032   -0.000013628
      4        6          -0.000006982   -0.000170379    0.000006477
      5        6          -0.000004115    0.000134470    0.000002978
      6        1           0.000025515   -0.000011290   -0.000002208
      7        1           0.000010173    0.000016019    0.000002728
      8        1          -0.000003225   -0.000029238   -0.000000365
      9        1          -0.000011968    0.000017448    0.000005472
 -------------------------------------------------------------------
 Cartesian Forces:  Max     0.000170379 RMS     0.000053235
 Leave Link  716 at Mon Nov 23 02:20:19 2015, MaxMem=    33554432 cpu:         0.0
 (Enter /home/Applications/g09/g09/l103.exe)

 GradGradGradGradGradGradGradGradGradGradGradGradGradGradGradGradGradGrad
 Berny optimization.
 Using GEDIIS/GDIIS optimizer.
 FormGI is forming the generalized inverse of G from B-inverse, IUseBI=4.
 Internal  Forces:  Max     0.000075680 RMS     0.000026993
 Search for a local minimum.
 Step number   8 out of a maximum of   48
 All quantities printed in internal units (Hartrees-Bohrs-Radians)
 RMS Force = .26993D-04 SwitMx=.10000D-02 MixMth= 2
 Mixed Optimization -- En-DIIS/RFO-DIIS
 Swapping is turned off.
 Update second derivatives using D2CorX and points    1    2    3    4    5
                                                      6    7    8
 DE= -2.80D-06 DEPred=-2.78D-06 R= 1.01D+00
 TightC=F SS=  1.41D+00  RLast= 9.88D-03 DXNew= 8.4853D-01 2.9648D-02
 Trust test= 1.01D+00 RLast= 9.88D-03 DXMaxT set to 5.05D-01
 ITU=  1  1  1  0  1  1  1  0
     Eigenvalues ---    0.01556   0.01708   0.01781   0.02124   0.04873
     Eigenvalues ---    0.05706   0.08752   0.14004   0.16000   0.16014
     Eigenvalues ---    0.22841   0.28896   0.35583   0.37495   0.38787
     Eigenvalues ---    0.40873   0.41397   0.43664   0.44949   0.52013
     Eigenvalues ---    0.62017
 En-DIIS/RFO-DIIS IScMMF=        0 using points:     8    7    6    5    4
 RFO step:  Lambda=-5.05716569D-08.
 NNeg= 0 NP= 5 Switch=  2.50D-03 Rises=F DC=  3.70D-05 SmlDif=  1.00D-05
 RMS Error=  0.5113894697D-04 NUsed= 5 EDIIS=F
 DidBck=F Rises=F RFO-DIIS coefs:    1.00153   -0.00445    0.00104    0.00321   -0.00133
 Iteration  1 RMS(Cart)=  0.00010869 RMS(Int)=  0.00000007
 Iteration  2 RMS(Cart)=  0.00000001 RMS(Int)=  0.00000007
 ITry= 1 IFail=0 DXMaxC= 2.33D-04 DCOld= 1.00D+10 DXMaxT= 5.05D-01 DXLimC= 3.00D+00 Rises=F
 Variable       Old X    -DE/DX   Delta X   Delta X   Delta X     New X
                                 (Linear)    (Quad)   (Total)
    R1        2.60062  -0.00008   0.00000  -0.00018  -0.00018   2.60044
    R2        2.71711   0.00003   0.00002   0.00008   0.00010   2.71721
    R3        2.02709  -0.00002   0.00000  -0.00003  -0.00003   2.02706
    R4        2.61713  -0.00003   0.00000  -0.00005  -0.00006   2.61707
    R5        2.02666   0.00003   0.00000   0.00005   0.00005   2.02670
    R6        2.61733  -0.00006   0.00001  -0.00014  -0.00013   2.61719
    R7        2.60053  -0.00004  -0.00001  -0.00009  -0.00011   2.60043
    R8        2.02668   0.00001  -0.00001   0.00005   0.00004   2.02671
    R9        2.02703   0.00001   0.00000   0.00003   0.00004   2.02707
    A1        1.85462   0.00002   0.00000   0.00013   0.00012   1.85475
    A2        2.24667   0.00000   0.00002  -0.00003  -0.00001   2.24666
    A3        2.18189  -0.00002  -0.00001  -0.00010  -0.00011   2.18178
    A4        1.93461   0.00000   0.00000  -0.00001  -0.00001   1.93461
    A5        2.33267  -0.00001   0.00002  -0.00011  -0.00009   2.33258
    A6        2.01590   0.00001  -0.00002   0.00011   0.00010   2.01600
    A7        1.84621  -0.00001   0.00000  -0.00009  -0.00009   1.84612
    A8        1.93440   0.00005   0.00000   0.00022   0.00022   1.93462
    A9        2.01585  -0.00001  -0.00002   0.00002   0.00000   2.01585
   A10        2.33293  -0.00004   0.00002  -0.00024  -0.00022   2.33272
   A11        1.85493  -0.00006   0.00000  -0.00025  -0.00025   1.85468
   A12        2.18191   0.00001  -0.00001  -0.00004  -0.00005   2.18186
   A13        2.24635   0.00005   0.00001   0.00028   0.00029   2.24664
    D1       -0.00009   0.00000   0.00006   0.00004   0.00010   0.00001
    D2        3.14158   0.00000  -0.00003   0.00008   0.00005  -3.14156
    D3       -3.14149   0.00000   0.00007  -0.00015  -0.00008  -3.14157
    D4        0.00017   0.00000  -0.00002  -0.00011  -0.00014   0.00004
    D5        0.00001   0.00000  -0.00001   0.00001   0.00000   0.00001
    D6        3.14156   0.00000  -0.00001  -0.00001  -0.00002   3.14154
    D7        3.14142   0.00000  -0.00002   0.00019   0.00017  -3.14159
    D8       -0.00021   0.00000  -0.00002   0.00018   0.00016  -0.00006
    D9        0.00013  -0.00001  -0.00008  -0.00008  -0.00016  -0.00003
   D10       -3.14152   0.00000  -0.00001  -0.00011  -0.00012   3.14155
   D11       -0.00013   0.00001   0.00007   0.00009   0.00016   0.00004
   D12        3.14145   0.00000   0.00000   0.00013   0.00013   3.14158
   D13        0.00008   0.00000  -0.00004  -0.00006  -0.00010  -0.00003
   D14       -3.14147   0.00000  -0.00004  -0.00004  -0.00008  -3.14155
   D15       -3.14149   0.00000   0.00005  -0.00011  -0.00007  -3.14156
   D16        0.00014   0.00000   0.00005  -0.00009  -0.00005   0.00010
         Item               Value     Threshold  Converged?
 Maximum Force            0.000076     0.000450     YES
 RMS     Force            0.000027     0.000300     YES
 Maximum Displacement     0.000233     0.001800     YES
 RMS     Displacement     0.000109     0.001200     YES
 Predicted change in Energy=-4.968844D-08
 Optimization completed.
    -- Stationary point found.
                           ----------------------------
                           !   Optimized Parameters   !
                           ! (Angstroms and Degrees)  !
 --------------------------                            --------------------------
 ! Name  Definition              Value          Derivative Info.                !
 --------------------------------------------------------------------------------
 ! R1    R(1,2)                  1.3762         -DE/DX =   -0.0001              !
 ! R2    R(1,5)                  1.4378         -DE/DX =    0.0                 !
 ! R3    R(1,9)                  1.0727         -DE/DX =    0.0                 !
 ! R4    R(2,3)                  1.3849         -DE/DX =    0.0                 !
 ! R5    R(2,8)                  1.0725         -DE/DX =    0.0                 !
 ! R6    R(3,4)                  1.385          -DE/DX =   -0.0001              !
 ! R7    R(4,5)                  1.3761         -DE/DX =    0.0                 !
 ! R8    R(4,7)                  1.0725         -DE/DX =    0.0                 !
 ! R9    R(5,6)                  1.0727         -DE/DX =    0.0                 !
 ! A1    A(2,1,5)              106.2621         -DE/DX =    0.0                 !
 ! A2    A(2,1,9)              128.725          -DE/DX =    0.0                 !
 ! A3    A(5,1,9)              125.0129         -DE/DX =    0.0                 !
 ! A4    A(1,2,3)              110.8451         -DE/DX =    0.0                 !
 ! A5    A(1,2,8)              133.6523         -DE/DX =    0.0                 !
 ! A6    A(3,2,8)              115.5026         -DE/DX =    0.0                 !
 ! A7    A(2,3,4)              105.7803         -DE/DX =    0.0                 !
 ! A8    A(3,4,5)              110.8328         -DE/DX =    0.0                 !
 ! A9    A(3,4,7)              115.4999         -DE/DX =    0.0                 !
 ! A10   A(5,4,7)              133.6673         -DE/DX =    0.0                 !
 ! A11   A(1,5,4)              106.2797         -DE/DX =   -0.0001              !
 ! A12   A(1,5,6)              125.0141         -DE/DX =    0.0                 !
 ! A13   A(4,5,6)              128.7061         -DE/DX =    0.0001              !
 ! D1    D(5,1,2,3)             -0.005          -DE/DX =    0.0                 !
 ! D2    D(5,1,2,8)           -180.0008         -DE/DX =    0.0                 !
 ! D3    D(9,1,2,3)           -179.9944         -DE/DX =    0.0                 !
 ! D4    D(9,1,2,8)              0.0098         -DE/DX =    0.0                 !
 ! D5    D(2,1,5,4)              0.0004         -DE/DX =    0.0                 !
 ! D6    D(2,1,5,6)            179.9979         -DE/DX =    0.0                 !
 ! D7    D(9,1,5,4)           -180.0097         -DE/DX =    0.0                 !
 ! D8    D(9,1,5,6)             -0.0122         -DE/DX =    0.0                 !
 ! D9    D(1,2,3,4)              0.0076         -DE/DX =    0.0                 !
 ! D10   D(8,2,3,4)            180.0042         -DE/DX =    0.0                 !
 ! D11   D(2,3,4,5)             -0.0073         -DE/DX =    0.0                 !
 ! D12   D(2,3,4,7)            179.9916         -DE/DX =    0.0                 !
 ! D13   D(3,4,5,1)              0.0043         -DE/DX =    0.0                 !
 ! D14   D(3,4,5,6)           -179.9931         -DE/DX =    0.0                 !
 ! D15   D(7,4,5,1)           -179.9943         -DE/DX =    0.0                 !
 ! D16   D(7,4,5,6)              0.0082         -DE/DX =    0.0                 !
 --------------------------------------------------------------------------------
 Lowest energy point so far.  Saving SCF results.
 GradGradGradGradGradGradGradGradGradGradGradGradGradGradGradGradGradGrad

 Largest change from initial coordinates is atom    9       2.738 Angstoms.
 Leave Link  103 at Mon Nov 23 02:20:19 2015, MaxMem=    33554432 cpu:         0.0
 (Enter /home/Applications/g09/g09/l202.exe)
                          Input orientation:                          
 ---------------------------------------------------------------------
 Center     Atomic      Atomic             Coordinates (Angstroms)
 Number     Number       Type             X           Y           Z
 ---------------------------------------------------------------------
      1          6           0        0.962618   -0.733253    0.016691
      2          6           0       -0.361655   -1.107365    0.001123
      3          8           0       -1.187772    0.004184   -0.001852
      4          6           0       -0.342797    1.101511    0.012206
      5          6           0        0.974785    0.704513    0.023897
      6          1           0        1.858434    1.312472    0.036081
      7          1           0       -0.828038    2.057929    0.011813
      8          1           0       -0.863052   -2.055350   -0.008753
      9          1           0        1.835889   -1.356169    0.022518
 ---------------------------------------------------------------------
                    Distance matrix (angstroms):
                    1          2          3          4          5
     1  C    0.000000
     2  C    1.376191   0.000000
     3  O    2.273397   1.384925   0.000000
     4  C    2.251774   2.208984   1.385030   0.000000
     5  C    1.437835   2.251553   2.273275   1.376142   0.000000
     6  H    2.233350   3.284148   3.315483   2.211445   1.072659
     7  H    3.316198   3.199486   2.085058   1.072472   2.254341
     8  H    2.254253   1.072461   2.084987   3.199511   3.315954
     9  H    1.072688   2.211687   3.315672   3.284352   2.233363
                    6          7          8          9
     6  H    0.000000
     7  H    2.788086   0.000000
     8  H    4.330210   4.113480   0.000000
     9  H    2.668770   4.330437   2.788210   0.000000
 Stoichiometry    C4H4O
 Framework group  C1[X(C4H4O)]
 Deg. of freedom    21
 Full point group                 C1      NOp   1
 RotChk:  IX=0 Diff= 4.95D-15
 Largest Abelian subgroup         C1      NOp   1
 Largest concise Abelian subgroup C1      NOp   1
                         Standard orientation:                         
 ---------------------------------------------------------------------
 Center     Atomic      Atomic             Coordinates (Angstroms)
 Number     Number       Type             X           Y           Z
 ---------------------------------------------------------------------
      1          6           0       -0.721678    0.969642   -0.000021
      2          6           0       -1.103461   -0.352532    0.000028
      3          8           0        0.003297   -1.185061   -0.000046
      4          6           0        1.105514   -0.346357    0.000032
      5          6           0        0.716152    0.973553   -0.000012
      6          1           0        1.329228    1.853743   -0.000074
      7          1           0        2.059117   -0.837109    0.000131
      8          1           0       -2.054347   -0.848503    0.000053
      9          1           0       -1.339532    1.846521    0.000096
 ---------------------------------------------------------------------
 Rotational constants (GHZ):      9.3941042      8.9728895      4.5893335
 Leave Link  202 at Mon Nov 23 02:20:19 2015, MaxMem=    33554432 cpu:         0.0
 (Enter /home/Applications/g09/g09/l601.exe)
 Copying SCF densities to generalized density rwf, IOpCl= 0 IROHF=0.

 **********************************************************************

            Population analysis using the SCF density.

 **********************************************************************

 Orbital symmetries:
       Occupied  (A) (A) (A) (A) (A) (A) (A) (A) (A) (A) (A) (A)
                 (A)
       Virtual   (A) (A) (A) (A) (A) (A) (A) (A) (A) (A) (A)
 The electronic state is 1-A.
 Alpha  occ. eigenvalues --   -1.66294  -1.21872  -1.00354  -0.80148  -0.78854
 Alpha  occ. eigenvalues --   -0.68957  -0.59301  -0.56140  -0.55337  -0.52342
 Alpha  occ. eigenvalues --   -0.51639  -0.42274  -0.39419
 Alpha virt. eigenvalues --   -0.01338   0.01261   0.10710   0.14409   0.18128
 Alpha virt. eigenvalues --    0.18322   0.19511   0.20220   0.20830   0.21577
 Alpha virt. eigenvalues --    0.22873
          Condensed to atoms (all electrons):
               1          2          3          4          5          6
     1  C    4.471727   0.000000   0.000000   0.000000   0.000000   0.000000
     2  C    0.000000   4.352363   0.000000   0.000000   0.000000   0.000000
     3  O    0.000000   0.000000   5.883937   0.000000   0.000000   0.000000
     4  C    0.000000   0.000000   0.000000   4.352535   0.000000   0.000000
     5  C    0.000000   0.000000   0.000000   0.000000   4.471545   0.000000
     6  H    0.000000   0.000000   0.000000   0.000000   0.000000   0.619871
     7  H    0.000000   0.000000   0.000000   0.000000   0.000000   0.000000
     8  H    0.000000   0.000000   0.000000   0.000000   0.000000   0.000000
     9  H    0.000000   0.000000   0.000000   0.000000   0.000000   0.000000
               7          8          9
     1  C    0.000000   0.000000   0.000000
     2  C    0.000000   0.000000   0.000000
     3  O    0.000000   0.000000   0.000000
     4  C    0.000000   0.000000   0.000000
     5  C    0.000000   0.000000   0.000000
     6  H    0.000000   0.000000   0.000000
     7  H    0.614080   0.000000   0.000000
     8  H    0.000000   0.614099   0.000000
     9  H    0.000000   0.000000   0.619841
 Mulliken charges:
               1
     1  C   -0.471727
     2  C   -0.352363
     3  O    0.116063
     4  C   -0.352535
     5  C   -0.471545
     6  H    0.380129
     7  H    0.385920
     8  H    0.385901
     9  H    0.380159
 Sum of Mulliken charges =   0.00000
 Mulliken charges with hydrogens summed into heavy atoms:
               1
     1  C   -0.091568
     2  C    0.033538
     3  O    0.116063
     4  C    0.033384
     5  C   -0.091417
 Charge=              0.0000 electrons
 Dipole moment (field-independent basis, Debye):
    X=              0.0011    Y=             -0.4010    Z=              0.0003  Tot=              0.4010
 N-N= 1.022526195823D+02 E-N=-1.703683260690D+02  KE=-1.936359586161D+01
 Leave Link  601 at Mon Nov 23 02:20:19 2015, MaxMem=    33554432 cpu:         0.0
 (Enter /home/Applications/g09/g09/l9999.exe)
 1\1\GINC-DUSTIN-DESKTOP\FOpt\RAM1\ZDO\C4H4O1\DUSTIN\23-Nov-2015\0\\#P 
 AM1(Input,print) Opt\\AM1-Reparam Input\\0,1\C,0.9626178845,-0.7332530
 363,0.0166907201\C,-0.3616553263,-1.1073648845,0.0011231251\O,-1.18777
 23726,0.0041837064,-0.00185161\C,-0.3427970876,1.101510549,0.012205520
 9\C,0.9747852758,0.7045127013,0.0238969705\H,1.8584335894,1.3124715273
 ,0.0360807643\H,-0.8280376541,2.0579291989,0.0118130598\H,-0.863052098
 8,-2.0553499399,-0.0087529289\H,1.8358887897,-1.3561688221,0.022518378
 1\\Version=ES64L-G09RevD.01\State=1-A\HF=-2.342674\RMSD=2.739e-09\RMSF
 =5.323e-05\Dipole=-0.1577618,0.0013498,-0.0017329\PG=C01 [X(C4H4O1)]\\
 @


 BULLDOZER: SOMEONE WHO SLEEPS THROUGH SPEECHES.
 Job cpu time:       0 days  0 hours  0 minutes  1.3 seconds.
 File lengths (MBytes):  RWF=      5 Int=      0 D2E=      0 Chk=      2 Scr=      1
 Normal termination of Gaussian 09 at Mon Nov 23 02:20:19 2015.
