 Entering Gaussian System, Link 0=g09
 Input=FuranAM1Best1.com
 Output=FuranAM1Best1.log
 Initial command:
 /home/Applications/g09/g09/l1.exe "/home/Applications/g09/scratch/Gau-2425.inp" -scrdir="/home/Applications/g09/scratch/"
 Entering Link 1 = /home/Applications/g09/g09/l1.exe PID=      2427.
  
 Copyright (c) 1988,1990,1992,1993,1995,1998,2003,2009,2013,
            Gaussian, Inc.  All Rights Reserved.
  
 This is part of the Gaussian(R) 09 program.  It is based on
 the Gaussian(R) 03 system (copyright 2003, Gaussian, Inc.),
 the Gaussian(R) 98 system (copyright 1998, Gaussian, Inc.),
 the Gaussian(R) 94 system (copyright 1995, Gaussian, Inc.),
 the Gaussian 92(TM) system (copyright 1992, Gaussian, Inc.),
 the Gaussian 90(TM) system (copyright 1990, Gaussian, Inc.),
 the Gaussian 88(TM) system (copyright 1988, Gaussian, Inc.),
 the Gaussian 86(TM) system (copyright 1986, Carnegie Mellon
 University), and the Gaussian 82(TM) system (copyright 1983,
 Carnegie Mellon University). Gaussian is a federally registered
 trademark of Gaussian, Inc.
  
 This software contains proprietary and confidential information,
 including trade secrets, belonging to Gaussian, Inc.
  
 This software is provided under written license and may be
 used, copied, transmitted, or stored only in accord with that
 written license.
  
 The following legend is applicable only to US Government
 contracts under FAR:
  
                    RESTRICTED RIGHTS LEGEND
  
 Use, reproduction and disclosure by the US Government is
 subject to restrictions as set forth in subparagraphs (a)
 and (c) of the Commercial Computer Software - Restricted
 Rights clause in FAR 52.227-19.
  
 Gaussian, Inc.
 340 Quinnipiac St., Bldg. 40, Wallingford CT 06492
  
  
 ---------------------------------------------------------------
 Warning -- This program may not be used in any manner that
 competes with the business of Gaussian, Inc. or will provide
 assistance to any competitor of Gaussian, Inc.  The licensee
 of this program is prohibited from giving any competitor of
 Gaussian, Inc. access to this program.  By using this program,
 the user acknowledges that Gaussian, Inc. is engaged in the
 business of creating and licensing software in the field of
 computational chemistry and represents and warrants to the
 licensee that it is not a competitor of Gaussian, Inc. and that
 it will not use this program in any manner prohibited above.
 ---------------------------------------------------------------
  

 Cite this work as:
 Gaussian 09, Revision D.01,
 M. J. Frisch, G. W. Trucks, H. B. Schlegel, G. E. Scuseria, 
 M. A. Robb, J. R. Cheeseman, G. Scalmani, V. Barone, B. Mennucci, 
 G. A. Petersson, H. Nakatsuji, M. Caricato, X. Li, H. P. Hratchian, 
 A. F. Izmaylov, J. Bloino, G. Zheng, J. L. Sonnenberg, M. Hada, 
 M. Ehara, K. Toyota, R. Fukuda, J. Hasegawa, M. Ishida, T. Nakajima, 
 Y. Honda, O. Kitao, H. Nakai, T. Vreven, J. A. Montgomery, Jr., 
 J. E. Peralta, F. Ogliaro, M. Bearpark, J. J. Heyd, E. Brothers, 
 K. N. Kudin, V. N. Staroverov, T. Keith, R. Kobayashi, J. Normand, 
 K. Raghavachari, A. Rendell, J. C. Burant, S. S. Iyengar, J. Tomasi, 
 M. Cossi, N. Rega, J. M. Millam, M. Klene, J. E. Knox, J. B. Cross, 
 V. Bakken, C. Adamo, J. Jaramillo, R. Gomperts, R. E. Stratmann, 
 O. Yazyev, A. J. Austin, R. Cammi, C. Pomelli, J. W. Ochterski, 
 R. L. Martin, K. Morokuma, V. G. Zakrzewski, G. A. Voth, 
 P. Salvador, J. J. Dannenberg, S. Dapprich, A. D. Daniels, 
 O. Farkas, J. B. Foresman, J. V. Ortiz, J. Cioslowski, 
 and D. J. Fox, Gaussian, Inc., Wallingford CT, 2013.
 
 ******************************************
 Gaussian 09:  ES64L-G09RevD.01 24-Apr-2013
                23-Nov-2015 
 ******************************************
 -----------------------
 #P AM1(Input,print) Opt
 -----------------------
 1/14=-1,18=20,19=15,26=1,38=1/1,3;
 2/9=110,12=2,17=6,18=5,40=1/2;
 3/5=2,16=1,25=1,41=700000,71=1,135=100,136=1/1,2,3;
 4/35=1/1;
 5/5=2,35=1,38=5/2;
 6/7=2,8=2,9=2,10=2,28=1/1;
 7//1,2,3,16;
 1/14=-1,18=20,19=15,26=1/3(2);
 2/9=110/2;
 99//99;
 2/9=110/2;
 3/5=2,16=1,25=1,41=700000,71=1,135=20,136=1/1,2,3;
 4/5=5,16=3,35=1/1;
 5/5=2,35=1,38=5/2;
 7//1,2,3,16;
 1/14=-1,18=20,19=15,26=1/3(-5);
 2/9=110/2;
 6/7=2,8=2,9=2,10=2,19=2,28=1/1;
 99/9=1/99;
 Leave Link    1 at Mon Nov 23 02:20:16 2015, MaxMem=           0 cpu:         0.0
 (Enter /home/Applications/g09/g09/l101.exe)
 -----------------
 AM1-Reparam Input
 -----------------
 Symbolic Z-matrix:
 Charge =  0 Multiplicity = 1
 6                     0.96328  -0.76501  -0.01269 
 6                    -0.34944  -1.0583    0.04751 
 8                    -1.19879  -0.03443  -0.04326 
 6                    -0.38118   1.04611  -0.02452 
 6                     0.94269   0.75351  -0.00776 
 1                     1.82625   1.40478  -0.04412 
 1                    -0.87415   2.07084  -0.02093 
 1                    -0.83592  -2.01334  -0.04821 
 1                     1.84459  -1.35634  -0.03513 
 
 NAtoms=      9 NQM=        9 NQMF=       0 NMMI=      0 NMMIF=      0
                NMic=       0 NMicF=      0.
                    Isotopes and Nuclear Properties:
 (Nuclear quadrupole moments (NQMom) in fm**2, nuclear magnetic moments (NMagM)
  in nuclear magnetons)

  Atom         1           2           3           4           5           6           7           8           9
 IAtWgt=          12          12          16          12          12           1           1           1           1
 AtmWgt=  12.0000000  12.0000000  15.9949146  12.0000000  12.0000000   1.0078250   1.0078250   1.0078250   1.0078250
 NucSpn=           0           0           0           0           0           1           1           1           1
 AtZEff=   0.0000000   0.0000000   0.0000000   0.0000000   0.0000000   0.0000000   0.0000000   0.0000000   0.0000000
 NQMom=    0.0000000   0.0000000   0.0000000   0.0000000   0.0000000   0.0000000   0.0000000   0.0000000   0.0000000
 NMagM=    0.0000000   0.0000000   0.0000000   0.0000000   0.0000000   2.7928460   2.7928460   2.7928460   2.7928460
 AtZNuc=   6.0000000   6.0000000   8.0000000   6.0000000   6.0000000   1.0000000   1.0000000   1.0000000   1.0000000
 Leave Link  101 at Mon Nov 23 02:20:16 2015, MaxMem=    33554432 cpu:         0.0
 (Enter /home/Applications/g09/g09/l103.exe)

 GradGradGradGradGradGradGradGradGradGradGradGradGradGradGradGradGradGrad
 Berny optimization.
 Initialization pass.
                           ----------------------------
                           !    Initial Parameters    !
                           ! (Angstroms and Degrees)  !
 --------------------------                            --------------------------
 ! Name  Definition              Value          Derivative Info.                !
 --------------------------------------------------------------------------------
 ! R1    R(1,2)                  1.3464         estimate D2E/DX2                !
 ! R2    R(1,5)                  1.5187         estimate D2E/DX2                !
 ! R3    R(1,9)                  1.0615         estimate D2E/DX2                !
 ! R4    R(2,3)                  1.3334         estimate D2E/DX2                !
 ! R5    R(2,8)                  1.0761         estimate D2E/DX2                !
 ! R6    R(3,4)                  1.3551         estimate D2E/DX2                !
 ! R7    R(4,5)                  1.3559         estimate D2E/DX2                !
 ! R8    R(4,7)                  1.1371         estimate D2E/DX2                !
 ! R9    R(5,6)                  1.0982         estimate D2E/DX2                !
 ! A1    A(2,1,5)              101.7974         estimate D2E/DX2                !
 ! A2    A(2,1,9)              133.5532         estimate D2E/DX2                !
 ! A3    A(5,1,9)              124.6326         estimate D2E/DX2                !
 ! A4    A(1,2,3)              116.7903         estimate D2E/DX2                !
 ! A5    A(1,2,8)              129.0594         estimate D2E/DX2                !
 ! A6    A(3,2,8)              112.7971         estimate D2E/DX2                !
 ! A7    A(2,3,4)              103.1213         estimate D2E/DX2                !
 ! A8    A(3,4,5)              114.6562         estimate D2E/DX2                !
 ! A9    A(3,4,7)              117.1959         estimate D2E/DX2                !
 ! A10   A(5,4,7)              128.1475         estimate D2E/DX2                !
 ! A11   A(1,5,4)              103.2365         estimate D2E/DX2                !
 ! A12   A(1,5,6)              125.5873         estimate D2E/DX2                !
 ! A13   A(4,5,6)              131.0801         estimate D2E/DX2                !
 ! D1    D(5,1,2,3)              6.4036         estimate D2E/DX2                !
 ! D2    D(5,1,2,8)            172.0415         estimate D2E/DX2                !
 ! D3    D(9,1,2,3)           -175.0871         estimate D2E/DX2                !
 ! D4    D(9,1,2,8)             -9.4492         estimate D2E/DX2                !
 ! D5    D(2,1,5,4)             -3.4282         estimate D2E/DX2                !
 ! D6    D(2,1,5,6)            179.8102         estimate D2E/DX2                !
 ! D7    D(9,1,5,4)            177.8847         estimate D2E/DX2                !
 ! D8    D(9,1,5,6)              1.1232         estimate D2E/DX2                !
 ! D9    D(1,2,3,4)             -6.5831         estimate D2E/DX2                !
 ! D10   D(8,2,3,4)           -174.5235         estimate D2E/DX2                !
 ! D11   D(2,3,4,5)              3.778          estimate D2E/DX2                !
 ! D12   D(2,3,4,7)           -176.01           estimate D2E/DX2                !
 ! D13   D(3,4,5,1)             -0.189          estimate D2E/DX2                !
 ! D14   D(3,4,5,6)            176.3169         estimate D2E/DX2                !
 ! D15   D(7,4,5,1)            179.5713         estimate D2E/DX2                !
 ! D16   D(7,4,5,6)             -3.9229         estimate D2E/DX2                !
 --------------------------------------------------------------------------------
 Trust Radius=3.00D-01 FncErr=1.00D-07 GrdErr=1.00D-07
 Number of steps in this run=     48 maximum allowed number of steps=    100.
 GradGradGradGradGradGradGradGradGradGradGradGradGradGradGradGradGradGrad

 Leave Link  103 at Mon Nov 23 02:20:16 2015, MaxMem=    33554432 cpu:         0.0
 (Enter /home/Applications/g09/g09/l202.exe)
                          Input orientation:                          
 ---------------------------------------------------------------------
 Center     Atomic      Atomic             Coordinates (Angstroms)
 Number     Number       Type             X           Y           Z
 ---------------------------------------------------------------------
      1          6           0        0.963276   -0.765007   -0.012685
      2          6           0       -0.349435   -1.058302    0.047510
      3          8           0       -1.198789   -0.034433   -0.043262
      4          6           0       -0.381184    1.046114   -0.024521
      5          6           0        0.942693    0.753506   -0.007755
      6          1           0        1.826249    1.404780   -0.044122
      7          1           0       -0.874147    2.070841   -0.020932
      8          1           0       -0.835915   -2.013341   -0.048211
      9          1           0        1.844585   -1.356337   -0.035126
 ---------------------------------------------------------------------
                    Distance matrix (angstroms):
                    1          2          3          4          5
     1  C    0.000000
     2  C    1.346423   0.000000
     3  O    2.282367   1.333398   0.000000
     4  C    2.255631   2.105888   1.355142   0.000000
     5  C    1.518660   2.226050   2.282116   1.355932   0.000000
     6  H    2.335313   3.287669   3.349954   2.236467   1.098249
     7  H    3.379086   3.173569   2.130275   1.137142   2.244204
     8  H    2.190134   1.076069   2.011909   3.093155   3.289457
     9  H    1.061546   2.215711   3.318075   3.275047   2.294689
                    6          7          8          9
     6  H    0.000000
     7  H    2.781423   0.000000
     8  H    4.332515   4.084452   0.000000
     9  H    2.761193   4.374615   2.759874   0.000000
 Stoichiometry    C4H4O
 Framework group  C1[X(C4H4O)]
 Deg. of freedom    21
 Full point group                 C1      NOp   1
 Largest Abelian subgroup         C1      NOp   1
 Largest concise Abelian subgroup C1      NOp   1
                         Standard orientation:                         
 ---------------------------------------------------------------------
 Center     Atomic      Atomic             Coordinates (Angstroms)
 Number     Number       Type             X           Y           Z
 ---------------------------------------------------------------------
      1          6           0        1.043316    0.665164   -0.013213
      2          6           0        0.875340   -0.669245    0.049970
      3          8           0       -0.376790   -1.121557   -0.024414
      4          6           0       -1.116153    0.013782    0.003148
      5          6           0       -0.392193    1.160249    0.009891
      6          1           0       -0.706069    2.212174   -0.023085
      7          1           0       -2.247149   -0.102866    0.021368
      8          1           0        1.607803   -1.450567   -0.054708
      9          1           0        1.897886    1.294009   -0.047043
 ---------------------------------------------------------------------
 Rotational constants (GHZ):      9.5848661      8.9969674      4.6449149
 Leave Link  202 at Mon Nov 23 02:20:16 2015, MaxMem=    33554432 cpu:         0.0
 (Enter /home/Applications/g09/g09/l301.exe)

 Semi-emprical parameters in input format:
 Method=8 CoreType=1 PeptideFC=0.0125750000 RIJScale=0.5666730000
 ****
 H       
 PQN=1 NValence=1 F0ss=0.4322380000 ZetaOverlap=1.1880780000 U=-0.4188110000
 Beta=-0.2156480000 CoreKO=1.1385450000 KON=0,0,0,1.0589200000 KON=1,0,1,1.1290450000
 KON=0,1,1,1.1706660000 KON=2,1,1,1.0589200000 EISol=-0.4188110042 EHeat=0.0830298228
 Alpha=1.5252600000
 GCore=0.0084690000,1.3383940000,2.2676710000
 GCore=0.0003530000,1.3533660000,3.6667160000
 GCore=-0.0011710000,0.6115380000,4.3212930000
 ****
 C       
 PQN=2,2 NValence=4 F0ss=0.4466820000 F0sp=0.4066640000 F0pp=0.3768030000 F2pp=0.1898720000
 G1sp=0.2679030000
 ZetaOverlap=1.8086650000,1.7840750000
 U=-1.9120180000,-1.5956620000
 Beta=-0.5629500000,-0.3031680000 DDN=0,1,0.7632320000 DDN=1,1,0.7847580000
 CoreKO=1.1124280000 KON=0,0,0,1.0889370000 KON=1,0,1,0.8219700000 KON=0,1,1,0.9893020000
 KON=2,1,1,0.7783930000 EISol=-4.4398989268 EHeat=0.2723305520 Alpha=1.3702060000
 DipHyp=1.5263761812
 GCore=0.0008320000,1.4654240000,2.8806590000
 GCore=0.0027890000,1.3245690000,3.2438410000
 GCore=-0.0012930000,1.2846020000,4.0922960000
 GCore=-0.0000880000,1.4958780000,4.9512050000
 ****
 O       
 PQN=2,2 NValence=6 F0ss=0.5666750000 F0sp=0.5060470000 F0pp=0.4958710000 F2pp=0.2150590000
 G1sp=0.4181060000
 ZetaOverlap=3.3086090000,2.5960610000
 U=-3.8586440000,-2.8743270000
 Beta=-1.1627760000,-1.1056560000 DDN=0,1,0.4676820000 DDN=1,1,0.4852320000
 CoreKO=1.0326690000 KON=0,0,0,0.8822960000 KON=1,0,1,0.5019540000 KON=0,1,1,0.8822960000
 KON=2,1,1,0.5406950000 EISol=-11.6164441184 EHeat=0.0949133088 Alpha=2.2592050000
 DipHyp=0.9353101877
 GCore=0.0202690000,1.4001430000,1.6127490000
 GCore=0.0056550000,2.0844870000,2.7600040000
 ****
 
 Standard basis: VSTO-6G (5D, 7F)
 Ernie: Thresh=  0.10000D-02 Tol=  0.10000D-05 Strict=F.
  NNHCO=     0 NNPyr=     0 NCTC=     0               EPep=         0.000000000
    EC=        67.717426133  ECS=         1.900508797   EG=         0.383247600
   EHC=         0.000000000  EAt=       -31.051283842  AtH=         1.516354808
 EPDDG=         0.000000000  ECC=        70.001182531 EAtT=        32.567638650
 There are    24 symmetry adapted cartesian basis functions of A   symmetry.
 There are    24 symmetry adapted basis functions of A   symmetry.
    24 basis functions,   144 primitive gaussians,    24 cartesian basis functions
    13 alpha electrons       13 beta electrons
       nuclear repulsion energy       102.5688211809 Hartrees.
 IExCor=    0 DFT=F Ex=HF Corr=None ExCW=0 ScaHFX=  1.000000
 ScaDFX=  1.000000  1.000000  1.000000  1.000000 ScalE2=  1.000000  1.000000
 IRadAn=      0 IRanWt=     -1 IRanGd=            0 ICorTp=0 IEmpDi=  4
 Integral buffers will be    131072 words long.
 Regular integral format.
 Two-electron integral symmetry is turned off.
 Leave Link  301 at Mon Nov 23 02:20:16 2015, MaxMem=    33554432 cpu:         0.0
 (Enter /home/Applications/g09/g09/l302.exe)
 Do NDO integrals.
 NPDir=0 NMtPBC=     1 NCelOv=     1 NCel=       1 NClECP=     1 NCelD=      1
         NCelK=      1 NCelE2=     1 NClLst=     1 CellRange=     0.0.
 One-electron integrals computed using PRISM.
 NBasis=    24 RedAO= F EigKep=  0.00D+00  NBF=    24
 NBsUse=    24 1.00D-04 EigRej=  0.00D+00 NBFU=    24
 Leave Link  302 at Mon Nov 23 02:20:16 2015, MaxMem=    33554432 cpu:         0.0
 (Enter /home/Applications/g09/g09/l303.exe)
 DipDrv:  MaxL=1.
 Leave Link  303 at Mon Nov 23 02:20:16 2015, MaxMem=    33554432 cpu:         0.0
 (Enter /home/Applications/g09/g09/l401.exe)
 Simple Huckel Guess.
 JPrj=0 DoOrth=F DoCkMO=F.
 Leave Link  401 at Mon Nov 23 02:20:17 2015, MaxMem=    33554432 cpu:         0.0
 (Enter /home/Applications/g09/g09/l502.exe)
 Closed shell SCF:
 Using DIIS extrapolation, IDIIS=  1040.
 Overlap will be assumed to be unity.
 Two-electron integral symmetry not used.
 Keep J ints in memory in canonical form, NReq=888082.
 IVT=       79475 IEndB=       79475 NGot=    33554432 MDV=    33473473
 LenX=    33473473 LenY=    33472456
 Requested convergence on RMS density matrix=1.00D-08 within 128 cycles.
 Requested convergence on MAX density matrix=1.00D-06.
 Requested convergence on             energy=1.00D-06.
 No special actions if energy rises.
 FoFCou: FMM=F IPFlag=           0 FMFlag=           0 FMFlg1=           0
         NFxFlg=           0 DoJE=F BraDBF=F KetDBF=F FulRan=T
         wScrn=  0.000000 ICntrl=     600 IOpCl=  2 I1Cent=           0 NGrid=           0
         NMat0=    1 NMatS0=     54 NMatT0=    0 NMatD0=    1 NMtDS0=    0 NMtDT0=    0
 Symmetry not used in FoFCou.

 Cycle   1  Pass 1  IDiag  1:
 E= -1.75542627305840    
 DIIS: error= 1.06D-01 at cycle   1 NSaved=   1.
 NSaved= 1 IEnMin= 1 EnMin= -1.75542627305840     IErMin= 1 ErrMin= 1.06D-01
 ErrMax= 1.06D-01  0.00D+00 EMaxC= 1.00D-01 BMatC= 2.23D-01 BMatP= 2.23D-01
 IDIUse=3 WtCom= 0.00D+00 WtEn= 1.00D+00
 Coeff-Com:  0.100D+01
 Coeff-En:   0.100D+01
 Coeff:      0.100D+01
 GapD=    2.000 DampG=2.000 DampE=0.250 DampFc=0.5000 IDamp=-1.
 Damping current iteration by 5.00D-01
 RMSDP=2.61D-02 MaxDP=2.16D-01              OVMax= 0.00D+00

 Cycle   2  Pass 1  IDiag  1:
 E= -1.98421894243769     Delta-E=       -0.228792669379 Rises=F Damp=T
 DIIS: error= 6.29D-02 at cycle   2 NSaved=   2.
 NSaved= 2 IEnMin= 2 EnMin= -1.98421894243769     IErMin= 2 ErrMin= 6.29D-02
 ErrMax= 6.29D-02  0.00D+00 EMaxC= 1.00D-01 BMatC= 8.75D-02 BMatP= 2.23D-01
 IDIUse=3 WtCom= 3.71D-01 WtEn= 6.29D-01
 Coeff-Com: -0.160D+01 0.260D+01
 Coeff-En:   0.000D+00 0.100D+01
 Coeff:     -0.591D+00 0.159D+01
 RMSDP=1.91D-02 MaxDP=1.33D-01 DE=-2.29D-01 OVMax= 0.00D+00

 Cycle   3  Pass 1  IDiag  1:
 E= -2.31079567480192     Delta-E=       -0.326576732364 Rises=F Damp=F
 DIIS: error= 9.69D-03 at cycle   3 NSaved=   3.
 NSaved= 3 IEnMin= 3 EnMin= -2.31079567480192     IErMin= 3 ErrMin= 9.69D-03
 ErrMax= 9.69D-03  0.00D+00 EMaxC= 1.00D-01 BMatC= 3.28D-03 BMatP= 8.75D-02
 IDIUse=3 WtCom= 9.03D-01 WtEn= 9.69D-02
 Coeff-Com:  0.145D+01-0.266D+01 0.220D+01
 Coeff-En:   0.000D+00 0.000D+00 0.100D+01
 Coeff:      0.131D+01-0.240D+01 0.209D+01
 RMSDP=6.15D-03 MaxDP=5.05D-02 DE=-3.27D-01 OVMax= 0.00D+00

 Cycle   4  Pass 1  IDiag  3:
 E= -2.32378284920438     Delta-E=       -0.012987174402 Rises=F Damp=F
 DIIS: error= 1.44D-03 at cycle   4 NSaved=   4.
 NSaved= 4 IEnMin= 4 EnMin= -2.32378284920438     IErMin= 4 ErrMin= 1.44D-03
 ErrMax= 1.44D-03  0.00D+00 EMaxC= 1.00D-01 BMatC= 6.94D-05 BMatP= 3.28D-03
 IDIUse=3 WtCom= 9.86D-01 WtEn= 1.44D-02
 Coeff-Com: -0.167D+00 0.323D+00-0.479D+00 0.132D+01
 Coeff-En:   0.000D+00 0.000D+00 0.000D+00 0.100D+01
 Coeff:     -0.165D+00 0.319D+00-0.473D+00 0.132D+01
 Gap=     0.401 Goal=   None    Shift=    0.000
 RMSDP=1.15D-03 MaxDP=9.67D-03 DE=-1.30D-02 OVMax= 9.44D-03

 Cycle   5  Pass 1  IDiag  3:
 E= -2.32412079132740     Delta-E=       -0.000337942123 Rises=F Damp=F
 DIIS: error= 1.72D-04 at cycle   5 NSaved=   5.
 NSaved= 5 IEnMin= 5 EnMin= -2.32412079132740     IErMin= 5 ErrMin= 1.72D-04
 ErrMax= 1.72D-04  0.00D+00 EMaxC= 1.00D-01 BMatC= 1.40D-06 BMatP= 6.94D-05
 IDIUse=3 WtCom= 9.98D-01 WtEn= 1.72D-03
 Coeff-Com: -0.408D-02 0.335D-02 0.552D-01-0.350D+00 0.130D+01
 Coeff-En:   0.000D+00 0.000D+00 0.000D+00 0.000D+00 0.100D+01
 Coeff:     -0.407D-02 0.335D-02 0.551D-01-0.349D+00 0.129D+01
 Gap=     0.401 Goal=   None    Shift=    0.000
 RMSDP=1.47D-04 MaxDP=1.10D-03 DE=-3.38D-04 OVMax= 1.42D-03

 Cycle   6  Pass 1  IDiag  3:
 E= -2.32412788423193     Delta-E=       -0.000007092905 Rises=F Damp=F
 DIIS: error= 6.38D-05 at cycle   6 NSaved=   6.
 NSaved= 6 IEnMin= 6 EnMin= -2.32412788423193     IErMin= 6 ErrMin= 6.38D-05
 ErrMax= 6.38D-05  0.00D+00 EMaxC= 1.00D-01 BMatC= 1.34D-07 BMatP= 1.40D-06
 IDIUse=1 WtCom= 1.00D+00 WtEn= 0.00D+00
 Coeff-Com:  0.111D-01-0.201D-01 0.139D-01 0.159D-01-0.427D+00 0.141D+01
 Coeff:      0.111D-01-0.201D-01 0.139D-01 0.159D-01-0.427D+00 0.141D+01
 Gap=     0.401 Goal=   None    Shift=    0.000
 RMSDP=5.98D-05 MaxDP=4.30D-04 DE=-7.09D-06 OVMax= 6.71D-04

 Cycle   7  Pass 1  IDiag  3:
 E= -2.32412874725698     Delta-E=       -0.000000863025 Rises=F Damp=F
 DIIS: error= 2.10D-05 at cycle   7 NSaved=   7.
 NSaved= 7 IEnMin= 7 EnMin= -2.32412874725698     IErMin= 7 ErrMin= 2.10D-05
 ErrMax= 2.10D-05  0.00D+00 EMaxC= 1.00D-01 BMatC= 1.18D-08 BMatP= 1.34D-07
 IDIUse=1 WtCom= 1.00D+00 WtEn= 0.00D+00
 Coeff-Com: -0.700D-03 0.147D-02-0.284D-02 0.372D-02 0.153D+00-0.745D+00
 Coeff-Com:  0.159D+01
 Coeff:     -0.700D-03 0.147D-02-0.284D-02 0.372D-02 0.153D+00-0.745D+00
 Coeff:      0.159D+01
 Gap=     0.401 Goal=   None    Shift=    0.000
 RMSDP=2.22D-05 MaxDP=1.79D-04 DE=-8.63D-07 OVMax= 2.60D-04

 Cycle   8  Pass 1  IDiag  3:
 E= -2.32412884155973     Delta-E=       -0.000000094303 Rises=F Damp=F
 DIIS: error= 7.38D-06 at cycle   8 NSaved=   8.
 NSaved= 8 IEnMin= 8 EnMin= -2.32412884155973     IErMin= 8 ErrMin= 7.38D-06
 ErrMax= 7.38D-06  0.00D+00 EMaxC= 1.00D-01 BMatC= 8.32D-10 BMatP= 1.18D-08
 IDIUse=1 WtCom= 1.00D+00 WtEn= 0.00D+00
 Coeff-Com:  0.101D-02-0.199D-02 0.308D-02-0.569D-02-0.800D-01 0.415D+00
 Coeff-Com: -0.102D+01 0.169D+01
 Coeff:      0.101D-02-0.199D-02 0.308D-02-0.569D-02-0.800D-01 0.415D+00
 Coeff:     -0.102D+01 0.169D+01
 Gap=     0.401 Goal=   None    Shift=    0.000
 RMSDP=7.44D-06 MaxDP=6.95D-05 DE=-9.43D-08 OVMax= 8.58D-05

 Cycle   9  Pass 1  IDiag  3:
 E= -2.32412885037655     Delta-E=       -0.000000008817 Rises=F Damp=F
 DIIS: error= 1.98D-06 at cycle   9 NSaved=   9.
 NSaved= 9 IEnMin= 9 EnMin= -2.32412885037655     IErMin= 9 ErrMin= 1.98D-06
 ErrMax= 1.98D-06  0.00D+00 EMaxC= 1.00D-01 BMatC= 7.78D-11 BMatP= 8.32D-10
 IDIUse=1 WtCom= 1.00D+00 WtEn= 0.00D+00
 Coeff-Com: -0.460D-03 0.904D-03-0.141D-02 0.283D-02 0.292D-01-0.153D+00
 Coeff-Com:  0.390D+00-0.929D+00 0.166D+01
 Coeff:     -0.460D-03 0.904D-03-0.141D-02 0.283D-02 0.292D-01-0.153D+00
 Coeff:      0.390D+00-0.929D+00 0.166D+01
 Gap=     0.401 Goal=   None    Shift=    0.000
 RMSDP=2.62D-06 MaxDP=2.41D-05 DE=-8.82D-09 OVMax= 3.02D-05

 Cycle  10  Pass 1  IDiag  3:
 E= -2.32412885118355     Delta-E=       -0.000000000807 Rises=F Damp=F
 DIIS: error= 3.22D-07 at cycle  10 NSaved=  10.
 NSaved=10 IEnMin=10 EnMin= -2.32412885118355     IErMin=10 ErrMin= 3.22D-07
 ErrMax= 3.22D-07  0.00D+00 EMaxC= 1.00D-01 BMatC= 4.16D-12 BMatP= 7.78D-11
 IDIUse=1 WtCom= 1.00D+00 WtEn= 0.00D+00
 Coeff-Com:  0.572D-04-0.120D-03 0.269D-03-0.771D-03-0.250D-02 0.155D-01
 Coeff-Com: -0.459D-01 0.205D+00-0.611D+00 0.144D+01
 Coeff:      0.572D-04-0.120D-03 0.269D-03-0.771D-03-0.250D-02 0.155D-01
 Coeff:     -0.459D-01 0.205D+00-0.611D+00 0.144D+01
 Gap=     0.401 Goal=   None    Shift=    0.000
 RMSDP=3.60D-07 MaxDP=2.41D-06 DE=-8.07D-10 OVMax= 3.10D-06

 Cycle  11  Pass 1  IDiag  3:
 E= -2.32412885120846     Delta-E=       -0.000000000025 Rises=F Damp=F
 DIIS: error= 4.93D-08 at cycle  11 NSaved=  11.
 NSaved=11 IEnMin=11 EnMin= -2.32412885120846     IErMin=11 ErrMin= 4.93D-08
 ErrMax= 4.93D-08  0.00D+00 EMaxC= 1.00D-01 BMatC= 1.61D-13 BMatP= 4.16D-12
 IDIUse=1 WtCom= 1.00D+00 WtEn= 0.00D+00
 Coeff-Com: -0.122D-04 0.251D-04-0.496D-04 0.139D-03-0.459D-04 0.595D-04
 Coeff-Com:  0.728D-03-0.324D-01 0.128D+00-0.444D+00 0.135D+01
 Coeff:     -0.122D-04 0.251D-04-0.496D-04 0.139D-03-0.459D-04 0.595D-04
 Coeff:      0.728D-03-0.324D-01 0.128D+00-0.444D+00 0.135D+01
 Gap=     0.401 Goal=   None    Shift=    0.000
 RMSDP=6.56D-08 MaxDP=4.19D-07 DE=-2.49D-11 OVMax= 7.00D-07

 Cycle  12  Pass 1  IDiag  3:
 E= -2.32412885120932     Delta-E=       -0.000000000001 Rises=F Damp=F
 DIIS: error= 1.34D-08 at cycle  12 NSaved=  12.
 NSaved=12 IEnMin=12 EnMin= -2.32412885120932     IErMin=12 ErrMin= 1.34D-08
 ErrMax= 1.34D-08  0.00D+00 EMaxC= 1.00D-01 BMatC= 1.04D-14 BMatP= 1.61D-13
 IDIUse=1 WtCom= 1.00D+00 WtEn= 0.00D+00
 Coeff-Com:  0.574D-05-0.113D-04 0.180D-04-0.495D-04 0.204D-03-0.939D-03
 Coeff-Com:  0.214D-02 0.610D-02-0.327D-01 0.137D+00-0.625D+00 0.151D+01
 Coeff:      0.574D-05-0.113D-04 0.180D-04-0.495D-04 0.204D-03-0.939D-03
 Coeff:      0.214D-02 0.610D-02-0.327D-01 0.137D+00-0.625D+00 0.151D+01
 Gap=     0.401 Goal=   None    Shift=    0.000
 RMSDP=1.64D-08 MaxDP=8.38D-08 DE=-8.67D-13 OVMax= 9.97D-08

 Cycle  13  Pass 1  IDiag  3:
 E= -2.32412885120922     Delta-E=        0.000000000000 Rises=F Damp=F
 DIIS: error= 2.48D-09 at cycle  13 NSaved=  13.
 NSaved=13 IEnMin=12 EnMin= -2.32412885120932     IErMin=13 ErrMin= 2.48D-09
 ErrMax= 2.48D-09  0.00D+00 EMaxC= 1.00D-01 BMatC= 4.73D-16 BMatP= 1.04D-14
 IDIUse=1 WtCom= 1.00D+00 WtEn= 0.00D+00
 Coeff-Com: -0.100D-06 0.219D-06-0.603D-06 0.540D-05-0.159D-03 0.799D-03
 Coeff-Com: -0.198D-02 0.141D-02 0.274D-02-0.275D-01 0.190D+00-0.625D+00
 Coeff-Com:  0.146D+01
 Coeff:     -0.100D-06 0.219D-06-0.603D-06 0.540D-05-0.159D-03 0.799D-03
 Coeff:     -0.198D-02 0.141D-02 0.274D-02-0.275D-01 0.190D+00-0.625D+00
 Coeff:      0.146D+01
 Gap=     0.401 Goal=   None    Shift=    0.000
 RMSDP=3.40D-09 MaxDP=1.70D-08 DE= 9.95D-14 OVMax= 2.65D-08

 Cycle  14  Pass 2  IDiag  1:
 SCF Done:  E(RAM1) =  -2.32412885121     A.U. after   14 cycles
            NFock= 13  Conv=0.34D-08     -V/T= 0.8802
 KE=-1.939973697764D+01 PE=-1.709054029820D+02 EE= 8.541218992753D+01
 Leave Link  502 at Mon Nov 23 02:20:17 2015, MaxMem=    33554432 cpu:         0.0
 (Enter /home/Applications/g09/g09/l601.exe)
 Copying SCF densities to generalized density rwf, IOpCl= 0 IROHF=0.

 **********************************************************************

            Population analysis using the SCF density.

 **********************************************************************

 Orbital symmetries:
       Occupied  (A) (A) (A) (A) (A) (A) (A) (A) (A) (A) (A) (A)
                 (A)
       Virtual   (A) (A) (A) (A) (A) (A) (A) (A) (A) (A) (A)
 The electronic state is 1-A.
 Alpha  occ. eigenvalues --   -1.69151  -1.21282  -1.00739  -0.80306  -0.77975
 Alpha  occ. eigenvalues --   -0.69311  -0.60673  -0.56178  -0.55115  -0.51759
 Alpha  occ. eigenvalues --   -0.50269  -0.41307  -0.39972
 Alpha virt. eigenvalues --    0.00123   0.01116   0.12437   0.12856   0.16998
 Alpha virt. eigenvalues --    0.18430   0.20031   0.20342   0.21236   0.22619
 Alpha virt. eigenvalues --    0.23001
          Condensed to atoms (all electrons):
               1          2          3          4          5          6
     1  C    4.514253   0.000000   0.000000   0.000000   0.000000   0.000000
     2  C    0.000000   4.306702   0.000000   0.000000   0.000000   0.000000
     3  O    0.000000   0.000000   5.878777   0.000000   0.000000   0.000000
     4  C    0.000000   0.000000   0.000000   4.341839   0.000000   0.000000
     5  C    0.000000   0.000000   0.000000   0.000000   4.496720   0.000000
     6  H    0.000000   0.000000   0.000000   0.000000   0.000000   0.613562
     7  H    0.000000   0.000000   0.000000   0.000000   0.000000   0.000000
     8  H    0.000000   0.000000   0.000000   0.000000   0.000000   0.000000
     9  H    0.000000   0.000000   0.000000   0.000000   0.000000   0.000000
               7          8          9
     1  C    0.000000   0.000000   0.000000
     2  C    0.000000   0.000000   0.000000
     3  O    0.000000   0.000000   0.000000
     4  C    0.000000   0.000000   0.000000
     5  C    0.000000   0.000000   0.000000
     6  H    0.000000   0.000000   0.000000
     7  H    0.609524   0.000000   0.000000
     8  H    0.000000   0.622588   0.000000
     9  H    0.000000   0.000000   0.616034
 Mulliken charges:
               1
     1  C   -0.514253
     2  C   -0.306702
     3  O    0.121223
     4  C   -0.341839
     5  C   -0.496720
     6  H    0.386438
     7  H    0.390476
     8  H    0.377412
     9  H    0.383966
 Sum of Mulliken charges =   0.00000
 Mulliken charges with hydrogens summed into heavy atoms:
               1
     1  C   -0.130287
     2  C    0.070710
     3  O    0.121223
     4  C    0.048637
     5  C   -0.110283
 Charge=              0.0000 electrons
 Dipole moment (field-independent basis, Debye):
    X=             -0.4548    Y=             -0.5389    Z=             -0.2683  Tot=              0.7545
 N-N= 1.025688211809D+02 E-N=-1.709054029852D+02  KE=-1.939973697764D+01
 Leave Link  601 at Mon Nov 23 02:20:17 2015, MaxMem=    33554432 cpu:         0.0
 (Enter /home/Applications/g09/g09/l701.exe)
 Compute integral first derivatives.
 ... and contract with generalized density number  0.
 Leave Link  701 at Mon Nov 23 02:20:17 2015, MaxMem=    33554432 cpu:         0.0
 (Enter /home/Applications/g09/g09/l702.exe)
 L702 exits ... SP integral derivatives will be done elsewhere.
 Leave Link  702 at Mon Nov 23 02:20:17 2015, MaxMem=    33554432 cpu:         0.0
 (Enter /home/Applications/g09/g09/l703.exe)
 Compute integral first derivatives, UseDBF=F ICtDFT=           0.
 Integral derivatives from FoFJK, PRISM(SPDF).
 Calling FoFJK, ICntrl=      2127 FMM=F ISym2X=0 I1Cent= 0 IOpClX= 0 NMat=1 NMatS=1 NMatT=0.
 FoFJK:  IHMeth= 8 ICntrl=    2127 DoSepK=F KAlg= 0 I1Cent=   0 FoldK=F
 IRaf=         0 NMat=   1 IRICut=       1 DoRegI=T DoRafI=F ISym2E= 0.
 FoFCou: FMM=F IPFlag=           0 FMFlag=      100000 FMFlg1=         800
         NFxFlg=           0 DoJE=F BraDBF=F KetDBF=F FulRan=T
         wScrn=  0.000000 ICntrl=    2127 IOpCl=  0 I1Cent=           0 NGrid=           0
         NMat0=    1 NMatS0=      1 NMatT0=    0 NMatD0=    1 NMtDS0=    0 NMtDT0=    0
 Symmetry not used in FoFCou.
 Leave Link  703 at Mon Nov 23 02:20:17 2015, MaxMem=    33554432 cpu:         0.0
 (Enter /home/Applications/g09/g09/l716.exe)
 Dipole        =-1.78939623D-01-2.12029129D-01-1.05559953D-01
 ***** Axes restored to original set *****
 -------------------------------------------------------------------
 Center     Atomic                   Forces (Hartrees/Bohr)
 Number     Number              X              Y              Z
 -------------------------------------------------------------------
      1        6           0.020525033    0.065979262    0.010165519
      2        6          -0.002744871   -0.096123691   -0.018223815
      3        8          -0.034144864    0.026251574    0.008273105
      4        6          -0.012191000    0.100028319   -0.001445752
      5        6           0.029852072   -0.036628624   -0.006835339
      6        1          -0.016224791   -0.014643524    0.002358702
      7        1           0.012746632   -0.035964704   -0.000903220
      8        1          -0.001280774   -0.006829965    0.006005704
      9        1           0.003462564   -0.002068646    0.000605095
 -------------------------------------------------------------------
 Cartesian Forces:  Max     0.100028319 RMS     0.033806436
 Leave Link  716 at Mon Nov 23 02:20:17 2015, MaxMem=    33554432 cpu:         0.0
 (Enter /home/Applications/g09/g09/l103.exe)

 GradGradGradGradGradGradGradGradGradGradGradGradGradGradGradGradGradGrad
 Berny optimization.
 FormGI is forming the generalized inverse of G from B-inverse, IUseBI=4.
 Internal  Forces:  Max     0.061731065 RMS     0.018590028
 Search for a local minimum.
 Step number   1 out of a maximum of   48
 All quantities printed in internal units (Hartrees-Bohrs-Radians)
 RMS Force = .18590D-01 SwitMx=.10000D-02 MixMth= 1
 Mixed Optimization -- RFO/linear search
 Second derivative matrix not updated -- first step.
 ITU=  0
     Eigenvalues ---    0.01383   0.01904   0.01983   0.02549   0.02615
     Eigenvalues ---    0.02833   0.15696   0.15947   0.15992   0.16000
     Eigenvalues ---    0.21984   0.22842   0.29819   0.29887   0.33876
     Eigenvalues ---    0.36473   0.38319   0.46674   0.51749   0.54999
     Eigenvalues ---    0.56935
 RFO step:  Lambda=-3.52858237D-02 EMin= 1.38296444D-02
 Linear search not attempted -- first point.
 Maximum step size (   0.300) exceeded in Quadratic search.
    -- Step size scaled by   0.990
 Iteration  1 RMS(Cart)=  0.05348771 RMS(Int)=  0.00343533
 Iteration  2 RMS(Cart)=  0.00268317 RMS(Int)=  0.00190728
 Iteration  3 RMS(Cart)=  0.00000689 RMS(Int)=  0.00190726
 Iteration  4 RMS(Cart)=  0.00000002 RMS(Int)=  0.00190726
 ITry= 1 IFail=0 DXMaxC= 1.49D-01 DCOld= 1.00D+10 DXMaxT= 3.00D-01 DXLimC= 3.00D+00 Rises=F
 Variable       Old X    -DE/DX   Delta X   Delta X   Delta X     New X
                                 (Linear)    (Quad)   (Total)
    R1        2.54437   0.03212   0.00000   0.05524   0.05583   2.60020
    R2        2.86985  -0.02482   0.00000  -0.08492  -0.08508   2.78477
    R3        2.00603   0.00401   0.00000   0.00950   0.00950   2.01553
    R4        2.51976   0.06173   0.00000   0.10556   0.10608   2.62584
    R5        2.03348   0.00611   0.00000   0.01512   0.01512   2.04860
    R6        2.56085   0.03817   0.00000   0.06966   0.06938   2.63023
    R7        2.56234   0.01848   0.00000   0.02699   0.02633   2.58867
    R8        2.14889  -0.03794   0.00000  -0.11245  -0.11245   2.03644
    R9        2.07539  -0.02181   0.00000  -0.05776  -0.05776   2.01763
    A1        1.77670   0.02241   0.00000   0.07379   0.07339   1.85009
    A2        2.33094  -0.01101   0.00000  -0.03546  -0.03562   2.29532
    A3        2.17525  -0.01135   0.00000  -0.03748  -0.03755   2.13770
    A4        2.03837  -0.03373   0.00000  -0.10873  -0.11101   1.92737
    A5        2.25251   0.01604   0.00000   0.06056   0.05782   2.31033
    A6        1.96868   0.01915   0.00000   0.07553   0.07263   2.04131
    A7        1.79981   0.00907   0.00000   0.06569   0.06517   1.86497
    A8        2.00113  -0.01744   0.00000  -0.06989  -0.07134   1.92979
    A9        2.04545   0.00430   0.00000   0.01250   0.01318   2.05863
   A10        2.23660   0.01314   0.00000   0.05733   0.05796   2.29455
   A11        1.80182   0.02043   0.00000   0.05236   0.05064   1.85246
   A12        2.19191  -0.01245   0.00000  -0.03683  -0.03646   2.15545
   A13        2.28778  -0.00786   0.00000  -0.01305  -0.01259   2.27519
    D1        0.11176  -0.00727   0.00000  -0.11474  -0.11132   0.00044
    D2        3.00269   0.00204   0.00000   0.03532   0.03571   3.03840
    D3       -3.05585  -0.00531   0.00000  -0.07655  -0.07272  -3.12857
    D4       -0.16492   0.00401   0.00000   0.07352   0.07431  -0.09061
    D5       -0.05983   0.00236   0.00000   0.06347   0.06753   0.00769
    D6        3.13828   0.00036   0.00000   0.02168   0.02408  -3.12082
    D7        3.10467   0.00069   0.00000   0.03001   0.03344   3.13811
    D8        0.01960  -0.00131   0.00000  -0.01178  -0.01000   0.00960
    D9       -0.11490   0.00752   0.00000   0.10973   0.10659  -0.00831
   D10       -3.04601  -0.00131   0.00000  -0.01920  -0.01805  -3.06406
   D11        0.06594  -0.00230   0.00000  -0.04867  -0.05240   0.01354
   D12       -3.07195  -0.00181   0.00000  -0.03449  -0.03635  -3.10830
   D13       -0.00330  -0.00063   0.00000  -0.01068  -0.00982  -0.01312
   D14        3.07731   0.00141   0.00000   0.03349   0.03685   3.11416
   D15        3.13411  -0.00122   0.00000  -0.02688  -0.02893   3.10518
   D16       -0.06847   0.00081   0.00000   0.01729   0.01774  -0.05072
         Item               Value     Threshold  Converged?
 Maximum Force            0.061731     0.000450     NO 
 RMS     Force            0.018590     0.000300     NO 
 Maximum Displacement     0.149138     0.001800     NO 
 RMS     Displacement     0.053664     0.001200     NO 
 Predicted change in Energy=-2.003072D-02
 Lowest energy point so far.  Saving SCF results.
 GradGradGradGradGradGradGradGradGradGradGradGradGradGradGradGradGradGrad

 Leave Link  103 at Mon Nov 23 02:20:17 2015, MaxMem=    33554432 cpu:         0.0
 (Enter /home/Applications/g09/g09/l202.exe)
                          Input orientation:                          
 ---------------------------------------------------------------------
 Center     Atomic      Atomic             Coordinates (Angstroms)
 Number     Number       Type             X           Y           Z
 ---------------------------------------------------------------------
      1          6           0        0.953273   -0.727307   -0.001825
      2          6           0       -0.365686   -1.119175    0.006675
      3          8           0       -1.201553   -0.009343   -0.013411
      4          6           0       -0.380241    1.114313   -0.024130
      5          6           0        0.939175    0.746015   -0.028819
      6          1           0        1.823628    1.343315   -0.059145
      7          1           0       -0.850460    2.083823   -0.008487
      8          1           0       -0.839173   -2.092261   -0.057526
      9          1           0        1.858370   -1.291558   -0.002436
 ---------------------------------------------------------------------
                    Distance matrix (angstroms):
                    1          2          3          4          5
     1  C    0.000000
     2  C    1.375967   0.000000
     3  O    2.271317   1.389535   0.000000
     4  C    2.273835   2.233749   1.391859   0.000000
     5  C    1.473637   2.276589   2.270137   1.369863   0.000000
     6  H    2.246838   3.295647   3.314136   2.216012   1.067682
     7  H    3.340052   3.239511   2.122412   1.077636   2.234488
     8  H    2.253678   1.084070   2.114667   3.239422   3.349501
     9  H    1.066574   2.230745   3.317729   3.286345   2.235468
                    6          7          8          9
     6  H    0.000000
     7  H    2.775188   0.000000
     8  H    4.346688   4.176387   0.000000
     9  H    2.635711   4.327931   2.814410   0.000000
 Stoichiometry    C4H4O
 Framework group  C1[X(C4H4O)]
 Deg. of freedom    21
 Full point group                 C1      NOp   1
 RotChk:  IX=2 Diff= 5.61D-01
 Largest Abelian subgroup         C1      NOp   1
 Largest concise Abelian subgroup C1      NOp   1
                         Standard orientation:                         
 ---------------------------------------------------------------------
 Center     Atomic      Atomic             Coordinates (Angstroms)
 Number     Number       Type             X           Y           Z
 ---------------------------------------------------------------------
      1          6           0        0.675525    1.011541    0.008380
      2          6           0        1.137658   -0.284497    0.010510
      3          8           0        0.074136   -1.178691   -0.001554
      4          6           0       -1.092019   -0.418855   -0.000497
      5          6           0       -0.795101    0.918433   -0.005564
      6          1           0       -1.439245    1.769603   -0.028648
      7          1           0       -2.034723   -0.940458    0.022722
      8          1           0        2.134131   -0.704963   -0.063365
      9          1           0        1.190371    1.945618    0.004744
 ---------------------------------------------------------------------
 Rotational constants (GHZ):      9.1489543      9.0170665      4.5418869
 Leave Link  202 at Mon Nov 23 02:20:17 2015, MaxMem=    33554432 cpu:         0.0
 (Enter /home/Applications/g09/g09/l301.exe)

 Semi-emprical parameters in input format:
 Method=8 CoreType=1 PeptideFC=0.0125750000 RIJScale=0.5666730000
 ****
 H       
 PQN=1 NValence=1 F0ss=0.4322380000 ZetaOverlap=1.1880780000 U=-0.4188110000
 Beta=-0.2156480000 CoreKO=1.1385450000 KON=0,0,0,1.0589200000 KON=1,0,1,1.1290450000
 KON=0,1,1,1.1706660000 KON=2,1,1,1.0589200000 EISol=-0.4188110042 EHeat=0.0830298228
 Alpha=1.5252600000
 GCore=0.0084690000,1.3383940000,2.2676710000
 GCore=0.0003530000,1.3533660000,3.6667160000
 GCore=-0.0011710000,0.6115380000,4.3212930000
 ****
 C       
 PQN=2,2 NValence=4 F0ss=0.4466820000 F0sp=0.4066640000 F0pp=0.3768030000 F2pp=0.1898720000
 G1sp=0.2679030000
 ZetaOverlap=1.8086650000,1.7840750000
 U=-1.9120180000,-1.5956620000
 Beta=-0.5629500000,-0.3031680000 DDN=0,1,0.7632320000 DDN=1,1,0.7847580000
 CoreKO=1.1124280000 KON=0,0,0,1.0889370000 KON=1,0,1,0.8219700000 KON=0,1,1,0.9893020000
 KON=2,1,1,0.7783930000 EISol=-4.4398989268 EHeat=0.2723305520 Alpha=1.3702060000
 DipHyp=1.5263761812
 GCore=0.0008320000,1.4654240000,2.8806590000
 GCore=0.0027890000,1.3245690000,3.2438410000
 GCore=-0.0012930000,1.2846020000,4.0922960000
 GCore=-0.0000880000,1.4958780000,4.9512050000
 ****
 O       
 PQN=2,2 NValence=6 F0ss=0.5666750000 F0sp=0.5060470000 F0pp=0.4958710000 F2pp=0.2150590000
 G1sp=0.4181060000
 ZetaOverlap=3.3086090000,2.5960610000
 U=-3.8586440000,-2.8743270000
 Beta=-1.1627760000,-1.1056560000 DDN=0,1,0.4676820000 DDN=1,1,0.4852320000
 CoreKO=1.0326690000 KON=0,0,0,0.8822960000 KON=1,0,1,0.5019540000 KON=0,1,1,0.8822960000
 KON=2,1,1,0.5406950000 EISol=-11.6164441184 EHeat=0.0949133088 Alpha=2.2592050000
 DipHyp=0.9353101877
 GCore=0.0202690000,1.4001430000,1.6127490000
 GCore=0.0056550000,2.0844870000,2.7600040000
 ****
 
 Standard basis: VSTO-6G (5D, 7F)
 Ernie: Thresh=  0.10000D-02 Tol=  0.10000D-05 Strict=F.
  NNHCO=     0 NNPyr=     0 NCTC=     0               EPep=         0.000000000
    EC=        67.221768390  ECS=         1.839989842   EG=         0.356159741
   EHC=         0.000000000  EAt=       -31.051283842  AtH=         1.516354808
 EPDDG=         0.000000000  ECC=        69.417917972 EAtT=        32.567638650
 There are    24 symmetry adapted cartesian basis functions of A   symmetry.
 There are    24 symmetry adapted basis functions of A   symmetry.
    24 basis functions,   144 primitive gaussians,    24 cartesian basis functions
    13 alpha electrons       13 beta electrons
       nuclear repulsion energy       101.9855566228 Hartrees.
 IExCor=    0 DFT=F Ex=HF Corr=None ExCW=0 ScaHFX=  1.000000
 ScaDFX=  1.000000  1.000000  1.000000  1.000000 ScalE2=  1.000000  1.000000
 IRadAn=      0 IRanWt=     -1 IRanGd=            0 ICorTp=0 IEmpDi=  4
 Integral buffers will be    131072 words long.
 Regular integral format.
 Two-electron integral symmetry is turned off.
 Leave Link  301 at Mon Nov 23 02:20:17 2015, MaxMem=    33554432 cpu:         0.0
 (Enter /home/Applications/g09/g09/l302.exe)
 Do NDO integrals.
 NPDir=0 NMtPBC=     1 NCelOv=     1 NCel=       1 NClECP=     1 NCelD=      1
         NCelK=      1 NCelE2=     1 NClLst=     1 CellRange=     0.0.
 One-electron integrals computed using PRISM.
 NBasis=    24 RedAO= F EigKep=  0.00D+00  NBF=    24
 NBsUse=    24 1.00D-04 EigRej=  0.00D+00 NBFU=    24
 Leave Link  302 at Mon Nov 23 02:20:17 2015, MaxMem=    33554432 cpu:         0.0
 (Enter /home/Applications/g09/g09/l303.exe)
 DipDrv:  MaxL=1.
 Leave Link  303 at Mon Nov 23 02:20:17 2015, MaxMem=    33554432 cpu:         0.0
 (Enter /home/Applications/g09/g09/l401.exe)
 Initial guess from the checkpoint file:  "/home/Applications/g09/scratch/Gau-2427.chk"
 B after Tr=     0.000000    0.000000    0.000000
         Rot=    0.980435   -0.000103   -0.000244   -0.196845 Ang= -22.71 deg.
 Guess basis will be translated and rotated to current coordinates.
 JPrj=0 DoOrth=T DoCkMO=T.
 Leave Link  401 at Mon Nov 23 02:20:17 2015, MaxMem=    33554432 cpu:         0.0
 (Enter /home/Applications/g09/g09/l502.exe)
 Closed shell SCF:
 Using DIIS extrapolation, IDIIS=  1040.
 Overlap will be assumed to be unity.
 Two-electron integral symmetry not used.
 Keep J ints in memory in canonical form, NReq=888082.
 IVT=       79475 IEndB=       79475 NGot=    33554432 MDV=    33473473
 LenX=    33473473 LenY=    33472456
 Requested convergence on RMS density matrix=1.00D-08 within 128 cycles.
 Requested convergence on MAX density matrix=1.00D-06.
 Requested convergence on             energy=1.00D-06.
 No special actions if energy rises.
 FoFCou: FMM=F IPFlag=           0 FMFlag=           0 FMFlg1=           0
         NFxFlg=           0 DoJE=F BraDBF=F KetDBF=F FulRan=T
         wScrn=  0.000000 ICntrl=     600 IOpCl=  2 I1Cent=           0 NGrid=           0
         NMat0=    1 NMatS0=     54 NMatT0=    0 NMatD0=    1 NMtDS0=    0 NMtDT0=    0
 Symmetry not used in FoFCou.

 Cycle   1  Pass 1  IDiag  1:
 E= -2.33086118902195    
 DIIS: error= 6.58D-03 at cycle   1 NSaved=   1.
 NSaved= 1 IEnMin= 1 EnMin= -2.33086118902195     IErMin= 1 ErrMin= 6.58D-03
 ErrMax= 6.58D-03  0.00D+00 EMaxC= 1.00D-01 BMatC= 3.02D-03 BMatP= 3.02D-03
 IDIUse=3 WtCom= 9.34D-01 WtEn= 6.58D-02
 Coeff-Com:  0.100D+01
 Coeff-En:   0.100D+01
 Coeff:      0.100D+01
 GapD=    2.000 DampG=2.000 DampE=1.000 DampFc=2.0000 IDamp=-1.
 RMSDP=3.56D-03 MaxDP=1.30D-02              OVMax= 0.00D+00

 Cycle   2  Pass 1  IDiag  3:
 E= -2.33920521812743     Delta-E=       -0.008344029105 Rises=F Damp=F
 DIIS: error= 2.42D-03 at cycle   2 NSaved=   2.
 NSaved= 2 IEnMin= 2 EnMin= -2.33920521812743     IErMin= 2 ErrMin= 2.42D-03
 ErrMax= 2.42D-03  0.00D+00 EMaxC= 1.00D-01 BMatC= 3.29D-04 BMatP= 3.02D-03
 IDIUse=3 WtCom= 9.76D-01 WtEn= 2.42D-02
 Coeff-Com: -0.394D+00 0.139D+01
 Coeff-En:   0.000D+00 0.100D+01
 Coeff:     -0.385D+00 0.138D+01
 Gap=     0.386 Goal=   None    Shift=    0.000
 RMSDP=1.94D-03 MaxDP=8.50D-03 DE=-8.34D-03 OVMax= 9.31D-03

 Cycle   3  Pass 1  IDiag  3:
 E= -2.34058441603509     Delta-E=       -0.001379197908 Rises=F Damp=F
 DIIS: error= 7.37D-04 at cycle   3 NSaved=   3.
 NSaved= 3 IEnMin= 3 EnMin= -2.34058441603509     IErMin= 3 ErrMin= 7.37D-04
 ErrMax= 7.37D-04  0.00D+00 EMaxC= 1.00D-01 BMatC= 1.67D-05 BMatP= 3.29D-04
 IDIUse=3 WtCom= 9.93D-01 WtEn= 7.37D-03
 Coeff-Com:  0.127D+00-0.571D+00 0.144D+01
 Coeff-En:   0.000D+00 0.000D+00 0.100D+01
 Coeff:      0.126D+00-0.567D+00 0.144D+01
 Gap=     0.385 Goal=   None    Shift=    0.000
 RMSDP=6.22D-04 MaxDP=2.93D-03 DE=-1.38D-03 OVMax= 4.65D-03

 Cycle   4  Pass 1  IDiag  3:
 E= -2.34068767385558     Delta-E=       -0.000103257820 Rises=F Damp=F
 DIIS: error= 1.98D-04 at cycle   4 NSaved=   4.
 NSaved= 4 IEnMin= 4 EnMin= -2.34068767385558     IErMin= 4 ErrMin= 1.98D-04
 ErrMax= 1.98D-04  0.00D+00 EMaxC= 1.00D-01 BMatC= 1.13D-06 BMatP= 1.67D-05
 IDIUse=3 WtCom= 9.98D-01 WtEn= 1.98D-03
 Coeff-Com: -0.280D-02 0.367D-01-0.345D+00 0.131D+01
 Coeff-En:   0.000D+00 0.000D+00 0.000D+00 0.100D+01
 Coeff:     -0.280D-02 0.367D-01-0.344D+00 0.131D+01
 Gap=     0.385 Goal=   None    Shift=    0.000
 RMSDP=1.87D-04 MaxDP=1.13D-03 DE=-1.03D-04 OVMax= 1.80D-03

 Cycle   5  Pass 1  IDiag  3:
 E= -2.34069584962708     Delta-E=       -0.000008175771 Rises=F Damp=F
 DIIS: error= 4.74D-05 at cycle   5 NSaved=   5.
 NSaved= 5 IEnMin= 5 EnMin= -2.34069584962708     IErMin= 5 ErrMin= 4.74D-05
 ErrMax= 4.74D-05  0.00D+00 EMaxC= 1.00D-01 BMatC= 1.11D-07 BMatP= 1.13D-06
 IDIUse=1 WtCom= 1.00D+00 WtEn= 0.00D+00
 Coeff-Com: -0.919D-02 0.322D-01 0.233D-01-0.550D+00 0.150D+01
 Coeff:     -0.919D-02 0.322D-01 0.233D-01-0.550D+00 0.150D+01
 Gap=     0.385 Goal=   None    Shift=    0.000
 RMSDP=6.91D-05 MaxDP=4.57D-04 DE=-8.18D-06 OVMax= 6.95D-04

 Cycle   6  Pass 1  IDiag  3:
 E= -2.34069676658972     Delta-E=       -0.000000916963 Rises=F Damp=F
 DIIS: error= 1.37D-05 at cycle   6 NSaved=   6.
 NSaved= 6 IEnMin= 6 EnMin= -2.34069676658972     IErMin= 6 ErrMin= 1.37D-05
 ErrMax= 1.37D-05  0.00D+00 EMaxC= 1.00D-01 BMatC= 9.52D-09 BMatP= 1.11D-07
 IDIUse=1 WtCom= 1.00D+00 WtEn= 0.00D+00
 Coeff-Com:  0.543D-02-0.199D-01-0.527D-02 0.311D+00-0.106D+01 0.177D+01
 Coeff:      0.543D-02-0.199D-01-0.527D-02 0.311D+00-0.106D+01 0.177D+01
 Gap=     0.385 Goal=   None    Shift=    0.000
 RMSDP=2.36D-05 MaxDP=1.42D-04 DE=-9.17D-07 OVMax= 2.15D-04

 Cycle   7  Pass 1  IDiag  3:
 E= -2.34069685270895     Delta-E=       -0.000000086119 Rises=F Damp=F
 DIIS: error= 3.68D-06 at cycle   7 NSaved=   7.
 NSaved= 7 IEnMin= 7 EnMin= -2.34069685270895     IErMin= 7 ErrMin= 3.68D-06
 ErrMax= 3.68D-06  0.00D+00 EMaxC= 1.00D-01 BMatC= 5.17D-10 BMatP= 9.52D-09
 IDIUse=1 WtCom= 1.00D+00 WtEn= 0.00D+00
 Coeff-Com: -0.312D-02 0.116D-01-0.731D-03-0.158D+00 0.567D+00-0.109D+01
 Coeff-Com:  0.167D+01
 Coeff:     -0.312D-02 0.116D-01-0.731D-03-0.158D+00 0.567D+00-0.109D+01
 Coeff:      0.167D+01
 Gap=     0.385 Goal=   None    Shift=    0.000
 RMSDP=5.40D-06 MaxDP=3.74D-05 DE=-8.61D-08 OVMax= 6.10D-05

 Cycle   8  Pass 1  IDiag  3:
 E= -2.34069685736895     Delta-E=       -0.000000004660 Rises=F Damp=F
 DIIS: error= 1.00D-06 at cycle   8 NSaved=   8.
 NSaved= 8 IEnMin= 8 EnMin= -2.34069685736895     IErMin= 8 ErrMin= 1.00D-06
 ErrMax= 1.00D-06  0.00D+00 EMaxC= 1.00D-01 BMatC= 3.61D-11 BMatP= 5.17D-10
 IDIUse=1 WtCom= 1.00D+00 WtEn= 0.00D+00
 Coeff-Com:  0.135D-02-0.503D-02-0.205D-03 0.717D-01-0.256D+00 0.501D+00
 Coeff-Com: -0.940D+00 0.163D+01
 Coeff:      0.135D-02-0.503D-02-0.205D-03 0.717D-01-0.256D+00 0.501D+00
 Coeff:     -0.940D+00 0.163D+01
 Gap=     0.385 Goal=   None    Shift=    0.000
 RMSDP=1.45D-06 MaxDP=1.05D-05 DE=-4.66D-09 OVMax= 1.59D-05

 Cycle   9  Pass 1  IDiag  3:
 E= -2.34069685770621     Delta-E=       -0.000000000337 Rises=F Damp=F
 DIIS: error= 2.58D-07 at cycle   9 NSaved=   9.
 NSaved= 9 IEnMin= 9 EnMin= -2.34069685770621     IErMin= 9 ErrMin= 2.58D-07
 ErrMax= 2.58D-07  0.00D+00 EMaxC= 1.00D-01 BMatC= 2.81D-12 BMatP= 3.61D-11
 IDIUse=1 WtCom= 1.00D+00 WtEn= 0.00D+00
 Coeff-Com: -0.527D-03 0.196D-02 0.151D-03-0.284D-01 0.101D+00-0.201D+00
 Coeff-Com:  0.401D+00-0.922D+00 0.165D+01
 Coeff:     -0.527D-03 0.196D-02 0.151D-03-0.284D-01 0.101D+00-0.201D+00
 Coeff:      0.401D+00-0.922D+00 0.165D+01
 Gap=     0.385 Goal=   None    Shift=    0.000
 RMSDP=4.27D-07 MaxDP=3.12D-06 DE=-3.37D-10 OVMax= 4.46D-06

 Cycle  10  Pass 1  IDiag  3:
 E= -2.34069685773309     Delta-E=       -0.000000000027 Rises=F Damp=F
 DIIS: error= 6.26D-08 at cycle  10 NSaved=  10.
 NSaved=10 IEnMin=10 EnMin= -2.34069685773309     IErMin=10 ErrMin= 6.26D-08
 ErrMax= 6.26D-08  0.00D+00 EMaxC= 1.00D-01 BMatC= 1.71D-13 BMatP= 2.81D-12
 IDIUse=1 WtCom= 1.00D+00 WtEn= 0.00D+00
 Coeff-Com:  0.132D-03-0.487D-03-0.101D-03 0.747D-02-0.264D-01 0.526D-01
 Coeff-Com: -0.110D+00 0.294D+00-0.722D+00 0.151D+01
 Coeff:      0.132D-03-0.487D-03-0.101D-03 0.747D-02-0.264D-01 0.526D-01
 Coeff:     -0.110D+00 0.294D+00-0.722D+00 0.151D+01
 Gap=     0.385 Goal=   None    Shift=    0.000
 RMSDP=9.16D-08 MaxDP=6.49D-07 DE=-2.69D-11 OVMax= 8.50D-07

 Cycle  11  Pass 1  IDiag  3:
 E= -2.34069685773444     Delta-E=       -0.000000000001 Rises=F Damp=F
 DIIS: error= 1.49D-08 at cycle  11 NSaved=  11.
 NSaved=11 IEnMin=11 EnMin= -2.34069685773444     IErMin=11 ErrMin= 1.49D-08
 ErrMax= 1.49D-08  0.00D+00 EMaxC= 1.00D-01 BMatC= 1.25D-14 BMatP= 1.71D-13
 IDIUse=1 WtCom= 1.00D+00 WtEn= 0.00D+00
 Coeff-Com: -0.209D-04 0.765D-04 0.300D-04-0.125D-02 0.439D-02-0.878D-02
 Coeff-Com:  0.193D-01-0.597D-01 0.183D+00-0.631D+00 0.149D+01
 Coeff:     -0.209D-04 0.765D-04 0.300D-04-0.125D-02 0.439D-02-0.878D-02
 Coeff:      0.193D-01-0.597D-01 0.183D+00-0.631D+00 0.149D+01
 Gap=     0.385 Goal=   None    Shift=    0.000
 RMSDP=2.48D-08 MaxDP=1.51D-07 DE=-1.35D-12 OVMax= 2.16D-07

 Cycle  12  Pass 1  IDiag  3:
 E= -2.34069685773444     Delta-E=        0.000000000000 Rises=F Damp=F
 DIIS: error= 3.27D-09 at cycle  12 NSaved=  12.
 NSaved=12 IEnMin=11 EnMin= -2.34069685773444     IErMin=12 ErrMin= 3.27D-09
 ErrMax= 3.27D-09  0.00D+00 EMaxC= 1.00D-01 BMatC= 6.76D-16 BMatP= 1.25D-14
 IDIUse=1 WtCom= 1.00D+00 WtEn= 0.00D+00
 Coeff-Com:  0.177D-05-0.611D-05-0.987D-05 0.146D-03-0.481D-03 0.947D-03
 Coeff-Com: -0.231D-02 0.920D-02-0.362D-01 0.170D+00-0.600D+00 0.146D+01
 Coeff:      0.177D-05-0.611D-05-0.987D-05 0.146D-03-0.481D-03 0.947D-03
 Coeff:     -0.231D-02 0.920D-02-0.362D-01 0.170D+00-0.600D+00 0.146D+01
 Gap=     0.385 Goal=   None    Shift=    0.000
 RMSDP=5.47D-09 MaxDP=2.93D-08 DE= 0.00D+00 OVMax= 4.18D-08

 Cycle  13  Pass 2  IDiag  1:
 SCF Done:  E(RAM1) =  -2.34069685773     A.U. after   13 cycles
            NFock= 12  Conv=0.55D-08     -V/T= 0.8789
 KE=-1.932611350136D+01 PE=-1.699223007866D+02 EE= 8.492216080742D+01
 Leave Link  502 at Mon Nov 23 02:20:17 2015, MaxMem=    33554432 cpu:         0.0
 (Enter /home/Applications/g09/g09/l701.exe)
 Compute integral first derivatives.
 ... and contract with generalized density number  0.
 Leave Link  701 at Mon Nov 23 02:20:17 2015, MaxMem=    33554432 cpu:         0.0
 (Enter /home/Applications/g09/g09/l702.exe)
 L702 exits ... SP integral derivatives will be done elsewhere.
 Leave Link  702 at Mon Nov 23 02:20:17 2015, MaxMem=    33554432 cpu:         0.0
 (Enter /home/Applications/g09/g09/l703.exe)
 Compute integral first derivatives, UseDBF=F ICtDFT=           0.
 Integral derivatives from FoFJK, PRISM(SPDF).
 Calling FoFJK, ICntrl=      2127 FMM=F ISym2X=0 I1Cent= 0 IOpClX= 0 NMat=1 NMatS=1 NMatT=0.
 FoFJK:  IHMeth= 8 ICntrl=    2127 DoSepK=F KAlg= 0 I1Cent=   0 FoldK=F
 IRaf=         0 NMat=   1 IRICut=       1 DoRegI=T DoRafI=F ISym2E= 0.
 FoFCou: FMM=F IPFlag=           0 FMFlag=      100000 FMFlg1=         800
         NFxFlg=           0 DoJE=F BraDBF=F KetDBF=F FulRan=T
         wScrn=  0.000000 ICntrl=    2127 IOpCl=  0 I1Cent=           0 NGrid=           0
         NMat0=    1 NMatS0=      1 NMatT0=    0 NMatD0=    1 NMtDS0=    0 NMtDT0=    0
 Symmetry not used in FoFCou.
 Leave Link  703 at Mon Nov 23 02:20:17 2015, MaxMem=    33554432 cpu:         0.0
 (Enter /home/Applications/g09/g09/l716.exe)
 Dipole        =-1.76628377D-03-1.27729229D-01-5.36786638D-02
 ***** Axes restored to original set *****
 -------------------------------------------------------------------
 Center     Atomic                   Forces (Hartrees/Bohr)
 Number     Number              X              Y              Z
 -------------------------------------------------------------------
      1        6          -0.007909778    0.025822508   -0.000488269
      2        6           0.008256291    0.006526554   -0.006465969
      3        8          -0.004244478    0.001406884    0.001686010
      4        6           0.003282556   -0.008275567    0.000964157
      5        6          -0.001523442   -0.026912894    0.000738443
      6        1           0.001726257    0.001958824    0.000616283
      7        1          -0.002170841   -0.005746983   -0.000908664
      8        1           0.001379875    0.008950357    0.003462864
      9        1           0.001203560   -0.003729683    0.000395143
 -------------------------------------------------------------------
 Cartesian Forces:  Max     0.026912894 RMS     0.008316997
 Leave Link  716 at Mon Nov 23 02:20:17 2015, MaxMem=    33554432 cpu:         0.0
 (Enter /home/Applications/g09/g09/l103.exe)

 GradGradGradGradGradGradGradGradGradGradGradGradGradGradGradGradGradGrad
 Berny optimization.
 Using GEDIIS/GDIIS optimizer.
 FormGI is forming the generalized inverse of G from B-inverse, IUseBI=4.
 Internal  Forces:  Max     0.026226721 RMS     0.005875498
 Search for a local minimum.
 Step number   2 out of a maximum of   48
 All quantities printed in internal units (Hartrees-Bohrs-Radians)
 RMS Force = .58755D-02 SwitMx=.10000D-02 MixMth= 1
 Mixed Optimization -- RFO/linear search
 Update second derivatives using D2CorX and points    1    2
 DE= -1.66D-02 DEPred=-2.00D-02 R= 8.27D-01
 TightC=F SS=  1.41D+00  RLast= 3.72D-01 DXNew= 5.0454D-01 1.1166D+00
 Trust test= 8.27D-01 RLast= 3.72D-01 DXMaxT set to 5.05D-01
 ITU=  1  0
 Use linear search instead of GDIIS.
     Eigenvalues ---    0.01362   0.01888   0.01969   0.02560   0.02659
     Eigenvalues ---    0.02770   0.15643   0.15956   0.15998   0.16027
     Eigenvalues ---    0.21936   0.23806   0.26779   0.31077   0.34429
     Eigenvalues ---    0.37093   0.38288   0.47320   0.52632   0.56283
     Eigenvalues ---    0.63567
 RFO step:  Lambda=-4.29377153D-03 EMin= 1.36178345D-02
 Quartic linear search produced a step of -0.03698.
 Iteration  1 RMS(Cart)=  0.02456350 RMS(Int)=  0.00065964
 Iteration  2 RMS(Cart)=  0.00051256 RMS(Int)=  0.00039069
 Iteration  3 RMS(Cart)=  0.00000027 RMS(Int)=  0.00039069
 ITry= 1 IFail=0 DXMaxC= 6.63D-02 DCOld= 1.00D+10 DXMaxT= 5.05D-01 DXLimC= 3.00D+00 Rises=F
 Variable       Old X    -DE/DX   Delta X   Delta X   Delta X     New X
                                 (Linear)    (Quad)   (Total)
    R1        2.60020  -0.00760  -0.00206  -0.00552  -0.00741   2.59279
    R2        2.78477  -0.02623   0.00315  -0.09308  -0.08999   2.69478
    R3        2.01553   0.00299  -0.00035   0.00880   0.00844   2.02398
    R4        2.62584  -0.00733  -0.00392   0.00276  -0.00101   2.62483
    R5        2.04860  -0.00884  -0.00056  -0.02079  -0.02135   2.02724
    R6        2.63023  -0.00954  -0.00257  -0.00662  -0.00927   2.62096
    R7        2.58867  -0.00015  -0.00097   0.00440   0.00322   2.59189
    R8        2.03644  -0.00424   0.00416  -0.02979  -0.02563   2.01081
    R9        2.01763   0.00251   0.00214  -0.00139   0.00075   2.01837
    A1        1.85009  -0.00004  -0.00271   0.00877   0.00624   1.85633
    A2        2.29532  -0.00254   0.00132  -0.01904  -0.01794   2.27739
    A3        2.13770   0.00258   0.00139   0.01053   0.01170   2.14940
    A4        1.92737   0.00699   0.00411   0.01042   0.01388   1.94125
    A5        2.31033  -0.00054  -0.00214   0.01440   0.01096   2.32130
    A6        2.04131  -0.00623  -0.00269  -0.01671  -0.02071   2.02061
    A7        1.86497  -0.01088  -0.00241  -0.03511  -0.03719   1.82779
    A8        1.92979   0.00479   0.00264   0.01091   0.01344   1.94323
    A9        2.05863  -0.00693  -0.00049  -0.03534  -0.03578   2.02285
   A10        2.29455   0.00215  -0.00214   0.02430   0.02221   2.31677
   A11        1.85246  -0.00085  -0.00187   0.00536   0.00339   1.85585
   A12        2.15545   0.00107   0.00135  -0.00056   0.00083   2.15628
   A13        2.27519  -0.00022   0.00047  -0.00464  -0.00414   2.27105
    D1        0.00044  -0.00038   0.00412  -0.02812  -0.02443  -0.02399
    D2        3.03840   0.00208  -0.00132   0.07136   0.07021   3.10861
    D3       -3.12857  -0.00112   0.00269  -0.05201  -0.04947   3.10515
    D4       -0.09061   0.00134  -0.00275   0.04747   0.04517  -0.04544
    D5        0.00769  -0.00010  -0.00250   0.00850   0.00584   0.01353
    D6       -3.12082  -0.00027  -0.00089  -0.00287  -0.00384  -3.12466
    D7        3.13811   0.00051  -0.00124   0.02944   0.02832  -3.11675
    D8        0.00960   0.00034   0.00037   0.01807   0.01865   0.02825
    D9       -0.00831   0.00071  -0.00394   0.03697   0.03276   0.02445
   D10       -3.06406  -0.00155   0.00067  -0.04721  -0.04579  -3.10984
   D11        0.01354  -0.00079   0.00194  -0.03138  -0.02896  -0.01543
   D12       -3.10830  -0.00074   0.00134  -0.02583  -0.02417  -3.13247
   D13       -0.01312   0.00046   0.00036   0.01391   0.01450   0.00138
   D14        3.11416   0.00066  -0.00136   0.02640   0.02511   3.13927
   D15        3.10518   0.00027   0.00107   0.00643   0.00771   3.11290
   D16       -0.05072   0.00047  -0.00066   0.01893   0.01832  -0.03240
         Item               Value     Threshold  Converged?
 Maximum Force            0.026227     0.000450     NO 
 RMS     Force            0.005875     0.000300     NO 
 Maximum Displacement     0.066302     0.001800     NO 
 RMS     Displacement     0.024771     0.001200     NO 
 Predicted change in Energy=-2.255865D-03
 Lowest energy point so far.  Saving SCF results.
 GradGradGradGradGradGradGradGradGradGradGradGradGradGradGradGradGradGrad

 Leave Link  103 at Mon Nov 23 02:20:17 2015, MaxMem=    33554432 cpu:         0.0
 (Enter /home/Applications/g09/g09/l202.exe)
                          Input orientation:                          
 ---------------------------------------------------------------------
 Center     Atomic      Atomic             Coordinates (Angstroms)
 Number     Number       Type             X           Y           Z
 ---------------------------------------------------------------------
      1          6           0        0.953840   -0.701638   -0.016704
      2          6           0       -0.359525   -1.098594   -0.019722
      3          8           0       -1.215498   -0.004784   -0.004877
      4          6           0       -0.376681    1.099579   -0.025166
      5          6           0        0.942520    0.724255   -0.031789
      6          1           0        1.827930    1.321387   -0.048298
      7          1           0       -0.857396    2.048737   -0.008974
      8          1           0       -0.832896   -2.061102   -0.038050
      9          1           0        1.855039   -1.280019    0.004477
 ---------------------------------------------------------------------
                    Distance matrix (angstroms):
                    1          2          3          4          5
     1  C    0.000000
     2  C    1.372047   0.000000
     3  O    2.278546   1.389003   0.000000
     4  C    2.239362   2.198246   1.386955   0.000000
     5  C    1.426018   2.240144   2.277996   1.371570   0.000000
     6  H    2.204011   3.262221   3.320101   2.215862   1.068078
     7  H    3.293206   3.186485   2.084516   1.064073   2.234832
     8  H    2.245222   1.072771   2.091872   3.193462   3.303083
     9  H    1.071042   2.222115   3.324832   3.262505   2.202526
                    6          7          8          9
     6  H    0.000000
     7  H    2.782366   0.000000
     8  H    4.303642   4.110015   0.000000
     9  H    2.602083   4.293961   2.799445   0.000000
 Stoichiometry    C4H4O
 Framework group  C1[X(C4H4O)]
 Deg. of freedom    21
 Full point group                 C1      NOp   1
 RotChk:  IX=2 Diff= 1.10D+00
 Largest Abelian subgroup         C1      NOp   1
 Largest concise Abelian subgroup C1      NOp   1
                         Standard orientation:                         
 ---------------------------------------------------------------------
 Center     Atomic      Atomic             Coordinates (Angstroms)
 Number     Number       Type             X           Y           Z
 ---------------------------------------------------------------------
      1          6           0       -0.268370    1.173249    0.005591
      2          6           0        0.980859    0.605975   -0.006226
      3          8           0        0.903565   -0.780808    0.007495
      4          6           0       -0.455301   -1.058275   -0.004272
      5          6           0       -1.199898    0.093584   -0.004697
      6          1           0       -2.259410    0.228245   -0.014150
      7          1           0       -0.719405   -2.088917    0.012430
      8          1           0        1.971168    1.017722   -0.030519
      9          1           0       -0.564617    2.202218    0.029908
 ---------------------------------------------------------------------
 Rotational constants (GHZ):      9.5137725      8.9345564      4.6079028
 Leave Link  202 at Mon Nov 23 02:20:17 2015, MaxMem=    33554432 cpu:         0.0
 (Enter /home/Applications/g09/g09/l301.exe)

 Semi-emprical parameters in input format:
 Method=8 CoreType=1 PeptideFC=0.0125750000 RIJScale=0.5666730000
 ****
 H       
 PQN=1 NValence=1 F0ss=0.4322380000 ZetaOverlap=1.1880780000 U=-0.4188110000
 Beta=-0.2156480000 CoreKO=1.1385450000 KON=0,0,0,1.0589200000 KON=1,0,1,1.1290450000
 KON=0,1,1,1.1706660000 KON=2,1,1,1.0589200000 EISol=-0.4188110042 EHeat=0.0830298228
 Alpha=1.5252600000
 GCore=0.0084690000,1.3383940000,2.2676710000
 GCore=0.0003530000,1.3533660000,3.6667160000
 GCore=-0.0011710000,0.6115380000,4.3212930000
 ****
 C       
 PQN=2,2 NValence=4 F0ss=0.4466820000 F0sp=0.4066640000 F0pp=0.3768030000 F2pp=0.1898720000
 G1sp=0.2679030000
 ZetaOverlap=1.8086650000,1.7840750000
 U=-1.9120180000,-1.5956620000
 Beta=-0.5629500000,-0.3031680000 DDN=0,1,0.7632320000 DDN=1,1,0.7847580000
 CoreKO=1.1124280000 KON=0,0,0,1.0889370000 KON=1,0,1,0.8219700000 KON=0,1,1,0.9893020000
 KON=2,1,1,0.7783930000 EISol=-4.4398989268 EHeat=0.2723305520 Alpha=1.3702060000
 DipHyp=1.5263761812
 GCore=0.0008320000,1.4654240000,2.8806590000
 GCore=0.0027890000,1.3245690000,3.2438410000
 GCore=-0.0012930000,1.2846020000,4.0922960000
 GCore=-0.0000880000,1.4958780000,4.9512050000
 ****
 O       
 PQN=2,2 NValence=6 F0ss=0.5666750000 F0sp=0.5060470000 F0pp=0.4958710000 F2pp=0.2150590000
 G1sp=0.4181060000
 ZetaOverlap=3.3086090000,2.5960610000
 U=-3.8586440000,-2.8743270000
 Beta=-1.1627760000,-1.1056560000 DDN=0,1,0.4676820000 DDN=1,1,0.4852320000
 CoreKO=1.0326690000 KON=0,0,0,0.8822960000 KON=1,0,1,0.5019540000 KON=0,1,1,0.8822960000
 KON=2,1,1,0.5406950000 EISol=-11.6164441184 EHeat=0.0949133088 Alpha=2.2592050000
 DipHyp=0.9353101877
 GCore=0.0202690000,1.4001430000,1.6127490000
 GCore=0.0056550000,2.0844870000,2.7600040000
 ****
 
 Standard basis: VSTO-6G (5D, 7F)
 Ernie: Thresh=  0.10000D-02 Tol=  0.10000D-05 Strict=F.
  NNHCO=     0 NNPyr=     0 NCTC=     0               EPep=         0.000000000
    EC=        67.541741649  ECS=         1.892279052   EG=         0.358450590
   EHC=         0.000000000  EAt=       -31.051283842  AtH=         1.516354808
 EPDDG=         0.000000000  ECC=        69.792471291 EAtT=        32.567638650
 There are    24 symmetry adapted cartesian basis functions of A   symmetry.
 There are    24 symmetry adapted basis functions of A   symmetry.
    24 basis functions,   144 primitive gaussians,    24 cartesian basis functions
    13 alpha electrons       13 beta electrons
       nuclear repulsion energy       102.3601099414 Hartrees.
 IExCor=    0 DFT=F Ex=HF Corr=None ExCW=0 ScaHFX=  1.000000
 ScaDFX=  1.000000  1.000000  1.000000  1.000000 ScalE2=  1.000000  1.000000
 IRadAn=      0 IRanWt=     -1 IRanGd=            0 ICorTp=0 IEmpDi=  4
 Integral buffers will be    131072 words long.
 Regular integral format.
 Two-electron integral symmetry is turned off.
 Leave Link  301 at Mon Nov 23 02:20:17 2015, MaxMem=    33554432 cpu:         0.0
 (Enter /home/Applications/g09/g09/l302.exe)
 Do NDO integrals.
 NPDir=0 NMtPBC=     1 NCelOv=     1 NCel=       1 NClECP=     1 NCelD=      1
         NCelK=      1 NCelE2=     1 NClLst=     1 CellRange=     0.0.
 One-electron integrals computed using PRISM.
 NBasis=    24 RedAO= F EigKep=  0.00D+00  NBF=    24
 NBsUse=    24 1.00D-04 EigRej=  0.00D+00 NBFU=    24
 Leave Link  302 at Mon Nov 23 02:20:17 2015, MaxMem=    33554432 cpu:         0.0
 (Enter /home/Applications/g09/g09/l303.exe)
 DipDrv:  MaxL=1.
 Leave Link  303 at Mon Nov 23 02:20:17 2015, MaxMem=    33554432 cpu:         0.0
 (Enter /home/Applications/g09/g09/l401.exe)
 Initial guess from the checkpoint file:  "/home/Applications/g09/scratch/Gau-2427.chk"
 B after Tr=     0.000000    0.000000    0.000000
         Rot=    0.921645   -0.000039    0.000013   -0.388033 Ang= -45.66 deg.
 Guess basis will be translated and rotated to current coordinates.
 JPrj=0 DoOrth=T DoCkMO=T.
 Leave Link  401 at Mon Nov 23 02:20:17 2015, MaxMem=    33554432 cpu:         0.0
 (Enter /home/Applications/g09/g09/l502.exe)
 Closed shell SCF:
 Using DIIS extrapolation, IDIIS=  1040.
 Overlap will be assumed to be unity.
 Two-electron integral symmetry not used.
 Keep J ints in memory in canonical form, NReq=888082.
 IVT=       79475 IEndB=       79475 NGot=    33554432 MDV=    33473473
 LenX=    33473473 LenY=    33472456
 Requested convergence on RMS density matrix=1.00D-08 within 128 cycles.
 Requested convergence on MAX density matrix=1.00D-06.
 Requested convergence on             energy=1.00D-06.
 No special actions if energy rises.
 FoFCou: FMM=F IPFlag=           0 FMFlag=           0 FMFlg1=           0
         NFxFlg=           0 DoJE=F BraDBF=F KetDBF=F FulRan=T
         wScrn=  0.000000 ICntrl=     600 IOpCl=  2 I1Cent=           0 NGrid=           0
         NMat0=    1 NMatS0=     54 NMatT0=    0 NMatD0=    1 NMtDS0=    0 NMtDT0=    0
 Symmetry not used in FoFCou.

 Cycle   1  Pass 1  IDiag  1:
 E= -2.34051313107435    
 DIIS: error= 2.90D-03 at cycle   1 NSaved=   1.
 NSaved= 1 IEnMin= 1 EnMin= -2.34051313107435     IErMin= 1 ErrMin= 2.90D-03
 ErrMax= 2.90D-03  0.00D+00 EMaxC= 1.00D-01 BMatC= 3.65D-04 BMatP= 3.65D-04
 IDIUse=3 WtCom= 9.71D-01 WtEn= 2.90D-02
 Coeff-Com:  0.100D+01
 Coeff-En:   0.100D+01
 Coeff:      0.100D+01
 GapD=    2.000 DampG=2.000 DampE=1.000 DampFc=2.0000 IDamp=-1.
 RMSDP=1.40D-03 MaxDP=5.66D-03              OVMax= 0.00D+00

 Cycle   2  Pass 1  IDiag  3:
 E= -2.34169206661447     Delta-E=       -0.001178935540 Rises=F Damp=F
 DIIS: error= 1.10D-03 at cycle   2 NSaved=   2.
 NSaved= 2 IEnMin= 2 EnMin= -2.34169206661447     IErMin= 2 ErrMin= 1.10D-03
 ErrMax= 1.10D-03  0.00D+00 EMaxC= 1.00D-01 BMatC= 4.84D-05 BMatP= 3.65D-04
 IDIUse=3 WtCom= 9.89D-01 WtEn= 1.10D-02
 Coeff-Com: -0.478D+00 0.148D+01
 Coeff-En:   0.000D+00 0.100D+01
 Coeff:     -0.473D+00 0.147D+01
 Gap=     0.381 Goal=   None    Shift=    0.000
 RMSDP=9.06D-04 MaxDP=4.88D-03 DE=-1.18D-03 OVMax= 6.02D-03

 Cycle   3  Pass 1  IDiag  3:
 E= -2.34193664637834     Delta-E=       -0.000244579764 Rises=F Damp=F
 DIIS: error= 3.21D-04 at cycle   3 NSaved=   3.
 NSaved= 3 IEnMin= 3 EnMin= -2.34193664637834     IErMin= 3 ErrMin= 3.21D-04
 ErrMax= 3.21D-04  0.00D+00 EMaxC= 1.00D-01 BMatC= 2.72D-06 BMatP= 4.84D-05
 IDIUse=3 WtCom= 9.97D-01 WtEn= 3.21D-03
 Coeff-Com:  0.245D+00-0.865D+00 0.162D+01
 Coeff-En:   0.000D+00 0.000D+00 0.100D+01
 Coeff:      0.244D+00-0.862D+00 0.162D+01
 Gap=     0.380 Goal=   None    Shift=    0.000
 RMSDP=3.32D-04 MaxDP=2.46D-03 DE=-2.45D-04 OVMax= 3.04D-03

 Cycle   4  Pass 1  IDiag  3:
 E= -2.34195935658072     Delta-E=       -0.000022710202 Rises=F Damp=F
 DIIS: error= 1.04D-04 at cycle   4 NSaved=   4.
 NSaved= 4 IEnMin= 4 EnMin= -2.34195935658072     IErMin= 4 ErrMin= 1.04D-04
 ErrMax= 1.04D-04  0.00D+00 EMaxC= 1.00D-01 BMatC= 2.55D-07 BMatP= 2.72D-06
 IDIUse=3 WtCom= 9.99D-01 WtEn= 1.04D-03
 Coeff-Com: -0.726D-01 0.274D+00-0.734D+00 0.153D+01
 Coeff-En:   0.000D+00 0.000D+00 0.000D+00 0.100D+01
 Coeff:     -0.725D-01 0.274D+00-0.734D+00 0.153D+01
 Gap=     0.380 Goal=   None    Shift=    0.000
 RMSDP=1.21D-04 MaxDP=9.65D-04 DE=-2.27D-05 OVMax= 1.34D-03

 Cycle   5  Pass 1  IDiag  3:
 E= -2.34196192681011     Delta-E=       -0.000002570229 Rises=F Damp=F
 DIIS: error= 3.26D-05 at cycle   5 NSaved=   5.
 NSaved= 5 IEnMin= 5 EnMin= -2.34196192681011     IErMin= 5 ErrMin= 3.26D-05
 ErrMax= 3.26D-05  0.00D+00 EMaxC= 1.00D-01 BMatC= 2.96D-08 BMatP= 2.55D-07
 IDIUse=1 WtCom= 1.00D+00 WtEn= 0.00D+00
 Coeff-Com: -0.128D-01 0.399D-01-0.463D-02-0.467D+00 0.144D+01
 Coeff:     -0.128D-01 0.399D-01-0.463D-02-0.467D+00 0.144D+01
 Gap=     0.380 Goal=   None    Shift=    0.000
 RMSDP=4.58D-05 MaxDP=3.68D-04 DE=-2.57D-06 OVMax= 5.10D-04

 Cycle   6  Pass 1  IDiag  3:
 E= -2.34196222873820     Delta-E=       -0.000000301928 Rises=F Damp=F
 DIIS: error= 7.14D-06 at cycle   6 NSaved=   6.
 NSaved= 6 IEnMin= 6 EnMin= -2.34196222873820     IErMin= 6 ErrMin= 7.14D-06
 ErrMax= 7.14D-06  0.00D+00 EMaxC= 1.00D-01 BMatC= 2.52D-09 BMatP= 2.96D-08
 IDIUse=1 WtCom= 1.00D+00 WtEn= 0.00D+00
 Coeff-Com:  0.963D-02-0.326D-01 0.389D-01 0.172D+00-0.847D+00 0.166D+01
 Coeff:      0.963D-02-0.326D-01 0.389D-01 0.172D+00-0.847D+00 0.166D+01
 Gap=     0.380 Goal=   None    Shift=    0.000
 RMSDP=1.25D-05 MaxDP=9.91D-05 DE=-3.02D-07 OVMax= 1.49D-04

 Cycle   7  Pass 1  IDiag  3:
 E= -2.34196225155041     Delta-E=       -0.000000022812 Rises=F Damp=F
 DIIS: error= 2.24D-06 at cycle   7 NSaved=   7.
 NSaved= 7 IEnMin= 7 EnMin= -2.34196225155041     IErMin= 7 ErrMin= 2.24D-06
 ErrMax= 2.24D-06  0.00D+00 EMaxC= 1.00D-01 BMatC= 1.56D-10 BMatP= 2.52D-09
 IDIUse=1 WtCom= 1.00D+00 WtEn= 0.00D+00
 Coeff-Com: -0.579D-02 0.199D-01-0.285D-01-0.682D-01 0.422D+00-0.101D+01
 Coeff-Com:  0.167D+01
 Coeff:     -0.579D-02 0.199D-01-0.285D-01-0.682D-01 0.422D+00-0.101D+01
 Coeff:      0.167D+01
 Gap=     0.380 Goal=   None    Shift=    0.000
 RMSDP=2.83D-06 MaxDP=1.81D-05 DE=-2.28D-08 OVMax= 3.02D-05

 Cycle   8  Pass 1  IDiag  3:
 E= -2.34196225284340     Delta-E=       -0.000000001293 Rises=F Damp=F
 DIIS: error= 4.62D-07 at cycle   8 NSaved=   8.
 NSaved= 8 IEnMin= 8 EnMin= -2.34196225284340     IErMin= 8 ErrMin= 4.62D-07
 ErrMax= 4.62D-07  0.00D+00 EMaxC= 1.00D-01 BMatC= 8.29D-12 BMatP= 1.56D-10
 IDIUse=1 WtCom= 1.00D+00 WtEn= 0.00D+00
 Coeff-Com:  0.252D-02-0.865D-02 0.124D-01 0.306D-01-0.190D+00 0.465D+00
 Coeff-Com: -0.904D+00 0.159D+01
 Coeff:      0.252D-02-0.865D-02 0.124D-01 0.306D-01-0.190D+00 0.465D+00
 Coeff:     -0.904D+00 0.159D+01
 Gap=     0.380 Goal=   None    Shift=    0.000
 RMSDP=6.15D-07 MaxDP=3.80D-06 DE=-1.29D-09 OVMax= 4.91D-06

 Cycle   9  Pass 1  IDiag  3:
 E= -2.34196225290872     Delta-E=       -0.000000000065 Rises=F Damp=F
 DIIS: error= 1.00D-07 at cycle   9 NSaved=   9.
 NSaved= 9 IEnMin= 9 EnMin= -2.34196225290872     IErMin= 9 ErrMin= 1.00D-07
 ErrMax= 1.00D-07  0.00D+00 EMaxC= 1.00D-01 BMatC= 4.13D-13 BMatP= 8.29D-12
 IDIUse=1 WtCom= 1.00D+00 WtEn= 0.00D+00
 Coeff-Com: -0.100D-02 0.345D-02-0.482D-02-0.136D-01 0.805D-01-0.195D+00
 Coeff-Com:  0.379D+00-0.799D+00 0.155D+01
 Coeff:     -0.100D-02 0.345D-02-0.482D-02-0.136D-01 0.805D-01-0.195D+00
 Coeff:      0.379D+00-0.799D+00 0.155D+01
 Gap=     0.380 Goal=   None    Shift=    0.000
 RMSDP=1.34D-07 MaxDP=7.70D-07 DE=-6.53D-11 OVMax= 1.02D-06

 Cycle  10  Pass 1  IDiag  3:
 E= -2.34196225291197     Delta-E=       -0.000000000003 Rises=F Damp=F
 DIIS: error= 2.03D-08 at cycle  10 NSaved=  10.
 NSaved=10 IEnMin=10 EnMin= -2.34196225291197     IErMin=10 ErrMin= 2.03D-08
 ErrMax= 2.03D-08  0.00D+00 EMaxC= 1.00D-01 BMatC= 1.72D-14 BMatP= 4.13D-13
 IDIUse=1 WtCom= 1.00D+00 WtEn= 0.00D+00
 Coeff-Com:  0.361D-03-0.124D-02 0.171D-02 0.519D-02-0.301D-01 0.721D-01
 Coeff-Com: -0.139D+00 0.301D+00-0.716D+00 0.151D+01
 Coeff:      0.361D-03-0.124D-02 0.171D-02 0.519D-02-0.301D-01 0.721D-01
 Coeff:     -0.139D+00 0.301D+00-0.716D+00 0.151D+01
 Gap=     0.380 Goal=   None    Shift=    0.000
 RMSDP=2.52D-08 MaxDP=1.44D-07 DE=-3.25D-12 OVMax= 2.03D-07

 Cycle  11  Pass 1  IDiag  3:
 E= -2.34196225291211     Delta-E=        0.000000000000 Rises=F Damp=F
 DIIS: error= 3.39D-09 at cycle  11 NSaved=  11.
 NSaved=11 IEnMin=11 EnMin= -2.34196225291211     IErMin=11 ErrMin= 3.39D-09
 ErrMax= 3.39D-09  0.00D+00 EMaxC= 1.00D-01 BMatC= 8.06D-16 BMatP= 1.72D-14
 IDIUse=1 WtCom= 1.00D+00 WtEn= 0.00D+00
 Coeff-Com: -0.758D-04 0.261D-03-0.347D-03-0.123D-02 0.686D-02-0.161D-01
 Coeff-Com:  0.301D-01-0.657D-01 0.179D+00-0.551D+00 0.142D+01
 Coeff:     -0.758D-04 0.261D-03-0.347D-03-0.123D-02 0.686D-02-0.161D-01
 Coeff:      0.301D-01-0.657D-01 0.179D+00-0.551D+00 0.142D+01
 Gap=     0.380 Goal=   None    Shift=    0.000
 RMSDP=4.84D-09 MaxDP=2.54D-08 DE=-1.42D-13 OVMax= 3.79D-08

 Cycle  12  Pass 2  IDiag  1:
 SCF Done:  E(RAM1) =  -2.34196225291     A.U. after   12 cycles
            NFock= 11  Conv=0.48D-08     -V/T= 0.8791
 KE=-1.937892695791D+01 PE=-1.705389706000D+02 EE= 8.521582536360D+01
 Leave Link  502 at Mon Nov 23 02:20:17 2015, MaxMem=    33554432 cpu:         0.0
 (Enter /home/Applications/g09/g09/l701.exe)
 Compute integral first derivatives.
 ... and contract with generalized density number  0.
 Leave Link  701 at Mon Nov 23 02:20:17 2015, MaxMem=    33554432 cpu:         0.0
 (Enter /home/Applications/g09/g09/l702.exe)
 L702 exits ... SP integral derivatives will be done elsewhere.
 Leave Link  702 at Mon Nov 23 02:20:17 2015, MaxMem=    33554432 cpu:         0.0
 (Enter /home/Applications/g09/g09/l703.exe)
 Compute integral first derivatives, UseDBF=F ICtDFT=           0.
 Integral derivatives from FoFJK, PRISM(SPDF).
 Calling FoFJK, ICntrl=      2127 FMM=F ISym2X=0 I1Cent= 0 IOpClX= 0 NMat=1 NMatS=1 NMatT=0.
 FoFJK:  IHMeth= 8 ICntrl=    2127 DoSepK=F KAlg= 0 I1Cent=   0 FoldK=F
 IRaf=         0 NMat=   1 IRICut=       1 DoRegI=T DoRafI=F ISym2E= 0.
 FoFCou: FMM=F IPFlag=           0 FMFlag=      100000 FMFlg1=         800
         NFxFlg=           0 DoJE=F BraDBF=F KetDBF=F FulRan=T
         wScrn=  0.000000 ICntrl=    2127 IOpCl=  0 I1Cent=           0 NGrid=           0
         NMat0=    1 NMatS0=      1 NMatT0=    0 NMatD0=    1 NMtDS0=    0 NMtDT0=    0
 Symmetry not used in FoFCou.
 Leave Link  703 at Mon Nov 23 02:20:17 2015, MaxMem=    33554432 cpu:         0.0
 (Enter /home/Applications/g09/g09/l716.exe)
 Dipole        = 9.19404848D-02-7.26747619D-02 7.26213938D-03
 ***** Axes restored to original set *****
 -------------------------------------------------------------------
 Center     Atomic                   Forces (Hartrees/Bohr)
 Number     Number              X              Y              Z
 -------------------------------------------------------------------
      1        6           0.003749381   -0.008319705   -0.000623050
      2        6          -0.007628317   -0.006279308    0.001497606
      3        8           0.009264314   -0.001443570   -0.002577777
      4        6          -0.005363922    0.002378390    0.002199827
      5        6           0.002611958    0.006982566    0.000044884
      6        1           0.001994154    0.004582435    0.000136992
      7        1          -0.003864701    0.005574124   -0.000625884
      8        1          -0.000677107    0.000368748    0.000686539
      9        1          -0.000085761   -0.003843680   -0.000739138
 -------------------------------------------------------------------
 Cartesian Forces:  Max     0.009264314 RMS     0.004130814
 Leave Link  716 at Mon Nov 23 02:20:17 2015, MaxMem=    33554432 cpu:         0.0
 (Enter /home/Applications/g09/g09/l103.exe)

 GradGradGradGradGradGradGradGradGradGradGradGradGradGradGradGradGradGrad
 Berny optimization.
 Using GEDIIS/GDIIS optimizer.
 FormGI is forming the generalized inverse of G from B-inverse, IUseBI=4.
 Internal  Forces:  Max     0.016147641 RMS     0.003837545
 Search for a local minimum.
 Step number   3 out of a maximum of   48
 All quantities printed in internal units (Hartrees-Bohrs-Radians)
 RMS Force = .38375D-02 SwitMx=.10000D-02 MixMth= 1
 Mixed Optimization -- RFO/linear search
 Update second derivatives using D2CorX and points    1    2    3
 DE= -1.27D-03 DEPred=-2.26D-03 R= 5.61D-01
 TightC=F SS=  1.41D+00  RLast= 1.76D-01 DXNew= 8.4853D-01 5.2890D-01
 Trust test= 5.61D-01 RLast= 1.76D-01 DXMaxT set to 5.29D-01
 ITU=  1  1  0
 Use linear search instead of GDIIS.
     Eigenvalues ---    0.01360   0.01890   0.01946   0.02534   0.02630
     Eigenvalues ---    0.02845   0.13726   0.15999   0.16016   0.16177
     Eigenvalues ---    0.22019   0.24277   0.30357   0.34359   0.36685
     Eigenvalues ---    0.37749   0.43053   0.47249   0.53271   0.57146
[...]
 Coeff-Com:  0.318D+00-0.659D+00 0.145D+01
 Coeff:     -0.531D-03 0.160D-02-0.328D-02 0.218D-02 0.274D-01-0.132D+00
 Coeff:      0.318D+00-0.659D+00 0.145D+01
 Gap=     0.381 Goal=   None    Shift=    0.000
 RMSDP=1.88D-08 MaxDP=1.38D-07 DE=-1.61D-12 OVMax= 1.94D-07

 Cycle  10  Pass 1  IDiag  3:
 E= -2.34267355988894     Delta-E=        0.000000000000 Rises=F Damp=F
 DIIS: error= 4.11D-09 at cycle  10 NSaved=  10.
 NSaved=10 IEnMin=10 EnMin= -2.34267355988894     IErMin=10 ErrMin= 4.11D-09
 ErrMax= 4.11D-09  0.00D+00 EMaxC= 1.00D-01 BMatC= 4.49D-16 BMatP= 6.65D-15
 IDIUse=1 WtCom= 1.00D+00 WtEn= 0.00D+00
 Coeff-Com:  0.254D-03-0.768D-03 0.157D-02-0.995D-03-0.133D-01 0.634D-01
 Coeff-Com: -0.153D+00 0.329D+00-0.876D+00 0.165D+01
 Coeff:      0.254D-03-0.768D-03 0.157D-02-0.995D-03-0.133D-01 0.634D-01
 Coeff:     -0.153D+00 0.329D+00-0.876D+00 0.165D+01
 Gap=     0.381 Goal=   None    Shift=    0.000
 RMSDP=4.24D-09 MaxDP=2.58D-08 DE=-1.28D-13 OVMax= 3.00D-08

 Cycle  11  Pass 2  IDiag  1:
 SCF Done:  E(RAM1) =  -2.34267355989     A.U. after   11 cycles
            NFock= 10  Conv=0.42D-08     -V/T= 0.8790
 KE=-1.936338328035D+01 PE=-1.703674517366D+02 EE= 8.513630170071D+01
 Leave Link  502 at Mon Nov 23 02:20:17 2015, MaxMem=    33554432 cpu:         0.0
 (Enter /home/Applications/g09/g09/l701.exe)
 Compute integral first derivatives.
 ... and contract with generalized density number  0.
 Leave Link  701 at Mon Nov 23 02:20:17 2015, MaxMem=    33554432 cpu:         0.0
 (Enter /home/Applications/g09/g09/l702.exe)
 L702 exits ... SP integral derivatives will be done elsewhere.
 Leave Link  702 at Mon Nov 23 02:20:18 2015, MaxMem=    33554432 cpu:         0.0
 (Enter /home/Applications/g09/g09/l703.exe)
 Compute integral first derivatives, UseDBF=F ICtDFT=           0.
 Integral derivatives from FoFJK, PRISM(SPDF).
 Calling FoFJK, ICntrl=      2127 FMM=F ISym2X=0 I1Cent= 0 IOpClX= 0 NMat=1 NMatS=1 NMatT=0.
 FoFJK:  IHMeth= 8 ICntrl=    2127 DoSepK=F KAlg= 0 I1Cent=   0 FoldK=F
 IRaf=         0 NMat=   1 IRICut=       1 DoRegI=T DoRafI=F ISym2E= 0.
 FoFCou: FMM=F IPFlag=           0 FMFlag=      100000 FMFlg1=         800
         NFxFlg=           0 DoJE=F BraDBF=F KetDBF=F FulRan=T
         wScrn=  0.000000 ICntrl=    2127 IOpCl=  0 I1Cent=           0 NGrid=           0
         NMat0=    1 NMatS0=      1 NMatT0=    0 NMatD0=    1 NMtDS0=    0 NMtDT0=    0
 Symmetry not used in FoFCou.
 Leave Link  703 at Mon Nov 23 02:20:18 2015, MaxMem=    33554432 cpu:         0.0
 (Enter /home/Applications/g09/g09/l716.exe)
 Dipole        =-9.88329566D-04-1.58697096D-01 4.08595148D-04
 ***** Axes restored to original set *****
 -------------------------------------------------------------------
 Center     Atomic                   Forces (Hartrees/Bohr)
 Number     Number              X              Y              Z
 -------------------------------------------------------------------
      1        6           0.000017927    0.000162214   -0.000098645
      2        6          -0.000205987    0.000118755    0.000121001
      3        8           0.000063861   -0.000172907   -0.000103529
      4        6          -0.000101490    0.000131954    0.000068042
      5        6           0.000037102   -0.000157838    0.000044091
      6        1          -0.000040011   -0.000014262   -0.000025793
      7        1           0.000158359   -0.000040917   -0.000007577
      8        1           0.000095668   -0.000057515   -0.000012385
      9        1          -0.000025429    0.000030515    0.000014797
 -------------------------------------------------------------------
 Cartesian Forces:  Max     0.000205987 RMS     0.000097468
 Leave Link  716 at Mon Nov 23 02:20:18 2015, MaxMem=    33554432 cpu:         0.0
 (Enter /home/Applications/g09/g09/l103.exe)

 GradGradGradGradGradGradGradGradGradGradGradGradGradGradGradGradGradGrad
 Berny optimization.
 Using GEDIIS/GDIIS optimizer.
 FormGI is forming the generalized inverse of G from B-inverse, IUseBI=4.
 Internal  Forces:  Max     0.000199718 RMS     0.000062716
 Search for a local minimum.
 Step number   7 out of a maximum of   48
 All quantities printed in internal units (Hartrees-Bohrs-Radians)
 RMS Force = .62716D-04 SwitMx=.10000D-02 MixMth= 2
 Mixed Optimization -- En-DIIS/RFO-DIIS
 Swapping is turned off.
 Update second derivatives using D2CorX and points    1    2    3    4    5
                                                      6    7
 DE= -2.02D-05 DEPred=-2.01D-05 R= 1.00D+00
 TightC=F SS=  1.41D+00  RLast= 3.01D-02 DXNew= 4.4475D-01 9.0410D-02
 Trust test= 1.00D+00 RLast= 3.01D-02 DXMaxT set to 2.64D-01
 ITU=  1 -1  1  1  1  1  0
     Eigenvalues ---    0.01258   0.01937   0.02260   0.02597   0.03313
     Eigenvalues ---    0.05703   0.10643   0.14470   0.16001   0.16011
     Eigenvalues ---    0.22159   0.25403   0.30156   0.34366   0.37253
     Eigenvalues ---    0.37793   0.42438   0.48547   0.52664   0.55526
     Eigenvalues ---    0.69633
 En-DIIS/RFO-DIIS IScMMF=        0 using points:     7    6    5    4
 RFO step:  Lambda=-3.38812904D-07.
 NNeg= 0 NP= 4 Switch=  2.50D-03 Rises=F DC=  6.01D-05 SmlDif=  1.00D-05
 RMS Error=  0.1590985242D-03 NUsed= 4 EDIIS=F
 DidBck=F Rises=F RFO-DIIS coefs:    0.88431    0.04379    0.05345    0.01845
 Iteration  1 RMS(Cart)=  0.00050466 RMS(Int)=  0.00000195
 Iteration  2 RMS(Cart)=  0.00000032 RMS(Int)=  0.00000193
 ITry= 1 IFail=0 DXMaxC= 1.55D-03 DCOld= 1.00D+10 DXMaxT= 2.64D-01 DXLimC= 3.00D+00 Rises=F
 Variable       Old X    -DE/DX   Delta X   Delta X   Delta X     New X
                                 (Linear)    (Quad)   (Total)
    R1        2.60020   0.00002  -0.00007   0.00010   0.00002   2.60023
    R2        2.71791  -0.00020   0.00009  -0.00063  -0.00054   2.71737
    R3        2.02712  -0.00004   0.00009  -0.00020  -0.00012   2.02700
    R4        2.61758  -0.00010   0.00010  -0.00020  -0.00010   2.61747
    R5        2.02673   0.00001  -0.00008   0.00012   0.00004   2.02677
    R6        2.61694   0.00011   0.00000   0.00027   0.00027   2.61722
    R7        2.60031  -0.00004  -0.00002  -0.00002  -0.00004   2.60027
    R8        2.02708  -0.00011   0.00000  -0.00041  -0.00041   2.02667
    R9        2.02711  -0.00004   0.00002  -0.00015  -0.00013   2.02699
    A1        1.85466   0.00005   0.00007   0.00007   0.00015   1.85481
    A2        2.24688  -0.00001   0.00032  -0.00026   0.00007   2.24695
    A3        2.18164  -0.00004  -0.00040   0.00018  -0.00022   2.18143
    A4        1.93458  -0.00001  -0.00009   0.00002  -0.00007   1.93450
    A5        2.33398  -0.00011   0.00006  -0.00078  -0.00071   2.33327
    A6        2.01463   0.00012   0.00003   0.00076   0.00079   2.01541
    A7        1.84617  -0.00003   0.00007  -0.00012  -0.00005   1.84612
    A8        1.93472  -0.00003  -0.00003  -0.00009  -0.00012   1.93460
    A9        2.01466   0.00014  -0.00002   0.00092   0.00090   2.01555
   A10        2.33381  -0.00011   0.00005  -0.00083  -0.00078   2.33303
   A11        1.85464   0.00002  -0.00003   0.00012   0.00009   1.85474
   A12        2.18142   0.00000  -0.00031   0.00029  -0.00003   2.18139
   A13        2.24712  -0.00002   0.00034  -0.00040  -0.00007   2.24705
    D1       -0.00075   0.00004   0.00017   0.00094   0.00111   0.00036
    D2       -3.14143   0.00000  -0.00029   0.00020  -0.00009  -3.14152
    D3        3.14155   0.00002  -0.00024   0.00030   0.00007  -3.14157
    D4        0.00086  -0.00002  -0.00069  -0.00045  -0.00113  -0.00027
    D5        0.00026  -0.00002  -0.00005  -0.00018  -0.00023   0.00003
    D6        3.14120   0.00000   0.00027  -0.00014   0.00013   3.14133
    D7        3.14118   0.00000   0.00033   0.00044   0.00077  -3.14124
    D8       -0.00107   0.00002   0.00064   0.00048   0.00113   0.00006
    D9        0.00094  -0.00005  -0.00022  -0.00132  -0.00154  -0.00060
   D10       -3.14138  -0.00001   0.00015  -0.00073  -0.00058   3.14122
   D11       -0.00077   0.00004   0.00019   0.00120   0.00139   0.00062
   D12        3.14130   0.00001   0.00008   0.00043   0.00051  -3.14138
   D13        0.00032  -0.00001  -0.00009  -0.00064  -0.00073  -0.00041
   D14       -3.14059  -0.00003  -0.00042  -0.00069  -0.00111   3.14149
   D15        3.14133   0.00002   0.00005   0.00032   0.00036  -3.14150
   D16        0.00042   0.00000  -0.00028   0.00027  -0.00001   0.00041
         Item               Value     Threshold  Converged?
 Maximum Force            0.000200     0.000450     YES
 RMS     Force            0.000063     0.000300     YES
 Maximum Displacement     0.001548     0.001800     YES
 RMS     Displacement     0.000505     0.001200     YES
 Predicted change in Energy=-4.777271D-07
 Optimization completed.
    -- Stationary point found.
                           ----------------------------
                           !   Optimized Parameters   !
                           ! (Angstroms and Degrees)  !
 --------------------------                            --------------------------
 ! Name  Definition              Value          Derivative Info.                !
 --------------------------------------------------------------------------------
 ! R1    R(1,2)                  1.376          -DE/DX =    0.0                 !
 ! R2    R(1,5)                  1.4383         -DE/DX =   -0.0002              !
 ! R3    R(1,9)                  1.0727         -DE/DX =    0.0                 !
 ! R4    R(2,3)                  1.3852         -DE/DX =   -0.0001              !
 ! R5    R(2,8)                  1.0725         -DE/DX =    0.0                 !
 ! R6    R(3,4)                  1.3848         -DE/DX =    0.0001              !
 ! R7    R(4,5)                  1.376          -DE/DX =    0.0                 !
 ! R8    R(4,7)                  1.0727         -DE/DX =   -0.0001              !
 ! R9    R(5,6)                  1.0727         -DE/DX =    0.0                 !
 ! A1    A(2,1,5)              106.2643         -DE/DX =    0.0                 !
 ! A2    A(2,1,9)              128.7367         -DE/DX =    0.0                 !
 ! A3    A(5,1,9)              124.9989         -DE/DX =    0.0                 !
 ! A4    A(1,2,3)              110.843          -DE/DX =    0.0                 !
 ! A5    A(1,2,8)              133.7273         -DE/DX =   -0.0001              !
 ! A6    A(3,2,8)              115.4297         -DE/DX =    0.0001              !
 ! A7    A(2,3,4)              105.778          -DE/DX =    0.0                 !
 ! A8    A(3,4,5)              110.8514         -DE/DX =    0.0                 !
 ! A9    A(3,4,7)              115.4313         -DE/DX =    0.0001              !
 ! A10   A(5,4,7)              133.7173         -DE/DX =   -0.0001              !
 ! A11   A(1,5,4)              106.2632         -DE/DX =    0.0                 !
 ! A12   A(1,5,6)              124.9862         -DE/DX =    0.0                 !
 ! A13   A(4,5,6)              128.7506         -DE/DX =    0.0                 !
 ! D1    D(5,1,2,3)             -0.0431         -DE/DX =    0.0                 !
 ! D2    D(5,1,2,8)           -179.991          -DE/DX =    0.0                 !
 ! D3    D(9,1,2,3)           -180.0026         -DE/DX =    0.0                 !
 ! D4    D(9,1,2,8)              0.0495         -DE/DX =    0.0                 !
 ! D5    D(2,1,5,4)              0.0148         -DE/DX =    0.0                 !
 ! D6    D(2,1,5,6)            179.9774         -DE/DX =    0.0                 !
 ! D7    D(9,1,5,4)           -180.0237         -DE/DX =    0.0                 !
 ! D8    D(9,1,5,6)             -0.0612         -DE/DX =    0.0                 !
 ! D9    D(1,2,3,4)              0.0538         -DE/DX =    0.0                 !
 ! D10   D(8,2,3,4)            180.0121         -DE/DX =    0.0                 !
 ! D11   D(2,3,4,5)             -0.0439         -DE/DX =    0.0                 !
 ! D12   D(2,3,4,7)           -180.017          -DE/DX =    0.0                 !
 ! D13   D(3,4,5,1)              0.0184         -DE/DX =    0.0                 !
 ! D14   D(3,4,5,6)            180.0577         -DE/DX =    0.0                 !
 ! D15   D(7,4,5,1)           -180.0153         -DE/DX =    0.0                 !
 ! D16   D(7,4,5,6)              0.024          -DE/DX =    0.0                 !
 --------------------------------------------------------------------------------
 Lowest energy point so far.  Saving SCF results.
 GradGradGradGradGradGradGradGradGradGradGradGradGradGradGradGradGradGrad

 Largest change from initial coordinates is atom    9       0.783 Angstoms.
 Leave Link  103 at Mon Nov 23 02:20:18 2015, MaxMem=    33554432 cpu:         0.0
 (Enter /home/Applications/g09/g09/l202.exe)
                          Input orientation:                          
 ---------------------------------------------------------------------
 Center     Atomic      Atomic             Coordinates (Angstroms)
 Number     Number       Type             X           Y           Z
 ---------------------------------------------------------------------
      1          6           0        0.962419   -0.707770   -0.021162
      2          6           0       -0.355294   -1.103889   -0.017965
      3          8           0       -1.199954   -0.006062   -0.017638
      4          6           0       -0.373368    1.105012   -0.021995
      5          6           0        0.950691    0.730434   -0.024009
      6          1           0        1.824500    1.352641   -0.026499
      7          1           0       -0.875661    2.052828   -0.022633
      8          1           0       -0.842126   -2.059524   -0.015048
      9          1           0        1.846126   -1.315850   -0.022155
 ---------------------------------------------------------------------
                    Distance matrix (angstroms):
                    1          2          3          4          5
     1  C    0.000000
     2  C    1.375968   0.000000
     3  O    2.273381   1.385162   0.000000
     4  C    2.251778   2.208978   1.384828   0.000000
     5  C    1.438255   2.251749   2.273267   1.376025   0.000000
     6  H    2.233496   3.284222   3.315641   2.211779   1.072702
     7  H    3.316541   3.199323   2.084280   1.072686   2.254837
     8  H    2.254698   1.072499   2.084408   3.199073   3.316345
     9  H    1.072707   2.211604   3.315745   3.284315   2.233626
                    6          7          8          9
     6  H    0.000000
     7  H    2.789471   0.000000
     8  H    4.330578   4.112497   0.000000
     9  H    2.668582   4.330833   2.789229   0.000000
 Stoichiometry    C4H4O
 Framework group  C1[X(C4H4O)]
 Deg. of freedom    21
 Full point group                 C1      NOp   1
 RotChk:  IX=2 Diff= 4.48D-14
 Largest Abelian subgroup         C1      NOp   1
 Largest concise Abelian subgroup C1      NOp   1
                         Standard orientation:                         
 ---------------------------------------------------------------------
 Center     Atomic      Atomic             Coordinates (Angstroms)
 Number     Number       Type             X           Y           Z
 ---------------------------------------------------------------------
      1          6           0        0.723473    0.968390    0.000146
      2          6           0        1.102972   -0.354209   -0.000252
      3          8           0       -0.005402   -1.184980    0.000278
      4          6           0       -1.105985   -0.344466   -0.000223
      5          6           0       -0.714768    0.974775   -0.000058
      6          1           0       -1.325925    1.856351    0.000503
      7          1           0       -2.060051   -0.834784   -0.000192
      8          1           0        2.052405   -0.853038   -0.000164
      9          1           0        1.342630    1.844372   -0.000056
 ---------------------------------------------------------------------
 Rotational constants (GHZ):      9.3936671      8.9727789      4.5892005
 Leave Link  202 at Mon Nov 23 02:20:18 2015, MaxMem=    33554432 cpu:         0.0
 (Enter /home/Applications/g09/g09/l601.exe)
 Copying SCF densities to generalized density rwf, IOpCl= 0 IROHF=0.

 **********************************************************************

            Population analysis using the SCF density.

 **********************************************************************

 Orbital symmetries:
       Occupied  (A) (A) (A) (A) (A) (A) (A) (A) (A) (A) (A) (A)
                 (A)
       Virtual   (A) (A) (A) (A) (A) (A) (A) (A) (A) (A) (A)
 The electronic state is 1-A.
 Alpha  occ. eigenvalues --   -1.66293  -1.21865  -1.00357  -0.80140  -0.78858
 Alpha  occ. eigenvalues --   -0.68952  -0.59300  -0.56131  -0.55342  -0.52349
 Alpha  occ. eigenvalues --   -0.51631  -0.42270  -0.39424
 Alpha virt. eigenvalues --   -0.01334   0.01260   0.10717   0.14402   0.18126
 Alpha virt. eigenvalues --    0.18316   0.19514   0.20222   0.20829   0.21579
 Alpha virt. eigenvalues --    0.22871
          Condensed to atoms (all electrons):
               1          2          3          4          5          6
     1  C    4.471512   0.000000   0.000000   0.000000   0.000000   0.000000
     2  C    0.000000   4.352372   0.000000   0.000000   0.000000   0.000000
     3  O    0.000000   0.000000   5.884315   0.000000   0.000000   0.000000
     4  C    0.000000   0.000000   0.000000   4.352067   0.000000   0.000000
     5  C    0.000000   0.000000   0.000000   0.000000   4.471874   0.000000
     6  H    0.000000   0.000000   0.000000   0.000000   0.000000   0.619826
     7  H    0.000000   0.000000   0.000000   0.000000   0.000000   0.000000
     8  H    0.000000   0.000000   0.000000   0.000000   0.000000   0.000000
     9  H    0.000000   0.000000   0.000000   0.000000   0.000000   0.000000
               7          8          9
     1  C    0.000000   0.000000   0.000000
     2  C    0.000000   0.000000   0.000000
     3  O    0.000000   0.000000   0.000000
     4  C    0.000000   0.000000   0.000000
     5  C    0.000000   0.000000   0.000000
     6  H    0.000000   0.000000   0.000000
     7  H    0.614089   0.000000   0.000000
     8  H    0.000000   0.614105   0.000000
     9  H    0.000000   0.000000   0.619841
 Mulliken charges:
               1
     1  C   -0.471512
     2  C   -0.352372
     3  O    0.115685
     4  C   -0.352067
     5  C   -0.471874
     6  H    0.380174
     7  H    0.385911
     8  H    0.385895
     9  H    0.380159
 Sum of Mulliken charges =   0.00000
 Mulliken charges with hydrogens summed into heavy atoms:
               1
     1  C   -0.091353
     2  C    0.033524
     3  O    0.115685
     4  C    0.033844
     5  C   -0.091700
 Charge=              0.0000 electrons
 Dipole moment (field-independent basis, Debye):
    X=             -0.0025    Y=             -0.4034    Z=              0.0010  Tot=              0.4034
 N-N= 1.022518597563D+02 E-N=-1.703674517407D+02  KE=-1.936338328035D+01
 Leave Link  601 at Mon Nov 23 02:20:18 2015, MaxMem=    33554432 cpu:         0.0
 (Enter /home/Applications/g09/g09/l9999.exe)
 1\1\GINC-DUSTIN-DESKTOP\FOpt\RAM1\ZDO\C4H4O1\DUSTIN\23-Nov-2015\0\\#P 
 AM1(Input,print) Opt\\AM1-Reparam Input\\0,1\C,0.9624192763,-0.7077696
 018,-0.0211619946\C,-0.3552940535,-1.1038887727,-0.0179652\O,-1.199953
 7173,-0.0060621919,-0.0176384453\C,-0.3733683767,1.1050116516,-0.02199
 52172\C,0.9506910468,0.7304343701,-0.0240088916\H,1.8245004922,1.35264
 12474,-0.0264990539\H,-0.8756613141,2.0528284426,-0.022632845\H,-0.842
 1261136,-2.0595244839,-0.0150478342\H,1.8461257599,-1.3158496614,-0.02
 21545182\\Version=ES64L-G09RevD.01\State=1-A\HF=-2.3426736\RMSD=4.242e
 -09\RMSF=9.747e-05\Dipole=-0.1586957,-0.0010088,0.0007549\PG=C01 [X(C4
 H4O1)]\\@


 In the beginning there was nothing, which exploded.
 Job cpu time:       0 days  0 hours  0 minutes  1.2 seconds.
 File lengths (MBytes):  RWF=      5 Int=      0 D2E=      0 Chk=      2 Scr=      1
 Normal termination of Gaussian 09 at Mon Nov 23 02:20:18 2015.
