 Entering Gaussian System, Link 0=g09
 Input=FuranAM1Best4.com
 Output=FuranAM1Best4.log
 Initial command:
 /home/Applications/g09/g09/l1.exe "/home/Applications/g09/scratch/Gau-2435.inp" -scrdir="/home/Applications/g09/scratch/"
 Entering Link 1 = /home/Applications/g09/g09/l1.exe PID=      2437.
  
 Copyright (c) 1988,1990,1992,1993,1995,1998,2003,2009,2013,
            Gaussian, Inc.  All Rights Reserved.
  
 This is part of the Gaussian(R) 09 program.  It is based on
 the Gaussian(R) 03 system (copyright 2003, Gaussian, Inc.),
 the Gaussian(R) 98 system (copyright 1998, Gaussian, Inc.),
 the Gaussian(R) 94 system (copyright 1995, Gaussian, Inc.),
 the Gaussian 92(TM) system (copyright 1992, Gaussian, Inc.),
 the Gaussian 90(TM) system (copyright 1990, Gaussian, Inc.),
 the Gaussian 88(TM) system (copyright 1988, Gaussian, Inc.),
 the Gaussian 86(TM) system (copyright 1986, Carnegie Mellon
 University), and the Gaussian 82(TM) system (copyright 1983,
 Carnegie Mellon University). Gaussian is a federally registered
 trademark of Gaussian, Inc.
  
 This software contains proprietary and confidential information,
 including trade secrets, belonging to Gaussian, Inc.
  
 This software is provided under written license and may be
 used, copied, transmitted, or stored only in accord with that
 written license.
  
 The following legend is applicable only to US Government
 contracts under FAR:
  
                    RESTRICTED RIGHTS LEGEND
  
 Use, reproduction and disclosure by the US Government is
 subject to restrictions as set forth in subparagraphs (a)
 and (c) of the Commercial Computer Software - Restricted
 Rights clause in FAR 52.227-19.
  
 Gaussian, Inc.
 340 Quinnipiac St., Bldg. 40, Wallingford CT 06492
  
  
 ---------------------------------------------------------------
 Warning -- This program may not be used in any manner that
 competes with the business of Gaussian, Inc. or will provide
 assistance to any competitor of Gaussian, Inc.  The licensee
 of this program is prohibited from giving any competitor of
 Gaussian, Inc. access to this program.  By using this program,
 the user acknowledges that Gaussian, Inc. is engaged in the
 business of creating and licensing software in the field of
 computational chemistry and represents and warrants to the
 licensee that it is not a competitor of Gaussian, Inc. and that
 it will not use this program in any manner prohibited above.
 ---------------------------------------------------------------
  

 Cite this work as:
 Gaussian 09, Revision D.01,
 M. J. Frisch, G. W. Trucks, H. B. Schlegel, G. E. Scuseria, 
 M. A. Robb, J. R. Cheeseman, G. Scalmani, V. Barone, B. Mennucci, 
 G. A. Petersson, H. Nakatsuji, M. Caricato, X. Li, H. P. Hratchian, 
 A. F. Izmaylov, J. Bloino, G. Zheng, J. L. Sonnenberg, M. Hada, 
 M. Ehara, K. Toyota, R. Fukuda, J. Hasegawa, M. Ishida, T. Nakajima, 
 Y. Honda, O. Kitao, H. Nakai, T. Vreven, J. A. Montgomery, Jr., 
 J. E. Peralta, F. Ogliaro, M. Bearpark, J. J. Heyd, E. Brothers, 
 K. N. Kudin, V. N. Staroverov, T. Keith, R. Kobayashi, J. Normand, 
 K. Raghavachari, A. Rendell, J. C. Burant, S. S. Iyengar, J. Tomasi, 
 M. Cossi, N. Rega, J. M. Millam, M. Klene, J. E. Knox, J. B. Cross, 
 V. Bakken, C. Adamo, J. Jaramillo, R. Gomperts, R. E. Stratmann, 
 O. Yazyev, A. J. Austin, R. Cammi, C. Pomelli, J. W. Ochterski, 
 R. L. Martin, K. Morokuma, V. G. Zakrzewski, G. A. Voth, 
 P. Salvador, J. J. Dannenberg, S. Dapprich, A. D. Daniels, 
 O. Farkas, J. B. Foresman, J. V. Ortiz, J. Cioslowski, 
 and D. J. Fox, Gaussian, Inc., Wallingford CT, 2013.
 
 ******************************************
 Gaussian 09:  ES64L-G09RevD.01 24-Apr-2013
                23-Nov-2015 
 ******************************************
 -----------------------
 #P AM1(Input,print) Opt
 -----------------------
 1/14=-1,18=20,19=15,26=1,38=1/1,3;
 2/9=110,12=2,17=6,18=5,40=1/2;
 3/5=2,16=1,25=1,41=700000,71=1,135=100,136=1/1,2,3;
 4/35=1/1;
 5/5=2,35=1,38=5/2;
 6/7=2,8=2,9=2,10=2,28=1/1;
 7//1,2,3,16;
 1/14=-1,18=20,19=15,26=1/3(2);
 2/9=110/2;
 99//99;
 2/9=110/2;
 3/5=2,16=1,25=1,41=700000,71=1,135=20,136=1/1,2,3;
 4/5=5,16=3,35=1/1;
 5/5=2,35=1,38=5/2;
 7//1,2,3,16;
 1/14=-1,18=20,19=15,26=1/3(-5);
 2/9=110/2;
 6/7=2,8=2,9=2,10=2,19=2,28=1/1;
 99/9=1/99;
 Leave Link    1 at Mon Nov 23 02:20:20 2015, MaxMem=           0 cpu:         0.0
 (Enter /home/Applications/g09/g09/l101.exe)
 -----------------
 AM1-Reparam Input
 -----------------
 Symbolic Z-matrix:
 Charge =  0 Multiplicity = 1
 6                     0.94361  -0.76038  -0.03266 
 6                    -0.37771  -1.1207    0.03946 
 8                    -1.19704   0.04183   0.0232 
 6                    -0.3862    1.09753   0.0102 
 6                     0.97597   0.7426   -0.00256 
 1                     1.83981   1.35704  -0.04941 
 1                    -0.8745    2.00251   0.02938 
 1                    -0.88914  -2.02616  -0.00016 
 1                     1.7831   -1.40793   0.00096 
 
 NAtoms=      9 NQM=        9 NQMF=       0 NMMI=      0 NMMIF=      0
                NMic=       0 NMicF=      0.
                    Isotopes and Nuclear Properties:
 (Nuclear quadrupole moments (NQMom) in fm**2, nuclear magnetic moments (NMagM)
  in nuclear magnetons)

  Atom         1           2           3           4           5           6           7           8           9
 IAtWgt=          12          12          16          12          12           1           1           1           1
 AtmWgt=  12.0000000  12.0000000  15.9949146  12.0000000  12.0000000   1.0078250   1.0078250   1.0078250   1.0078250
 NucSpn=           0           0           0           0           0           1           1           1           1
 AtZEff=   0.0000000   0.0000000   0.0000000   0.0000000   0.0000000   0.0000000   0.0000000   0.0000000   0.0000000
 NQMom=    0.0000000   0.0000000   0.0000000   0.0000000   0.0000000   0.0000000   0.0000000   0.0000000   0.0000000
 NMagM=    0.0000000   0.0000000   0.0000000   0.0000000   0.0000000   2.7928460   2.7928460   2.7928460   2.7928460
 AtZNuc=   6.0000000   6.0000000   8.0000000   6.0000000   6.0000000   1.0000000   1.0000000   1.0000000   1.0000000
 Leave Link  101 at Mon Nov 23 02:20:20 2015, MaxMem=    33554432 cpu:         0.0
 (Enter /home/Applications/g09/g09/l103.exe)

 GradGradGradGradGradGradGradGradGradGradGradGradGradGradGradGradGradGrad
 Berny optimization.
 Initialization pass.
                           ----------------------------
                           !    Initial Parameters    !
                           ! (Angstroms and Degrees)  !
 --------------------------                            --------------------------
 ! Name  Definition              Value          Derivative Info.                !
 --------------------------------------------------------------------------------
 ! R1    R(1,2)                  1.3715         estimate D2E/DX2                !
 ! R2    R(1,5)                  1.5036         estimate D2E/DX2                !
 ! R3    R(1,9)                  1.0608         estimate D2E/DX2                !
 ! R4    R(2,3)                  1.4223         estimate D2E/DX2                !
 ! R5    R(2,8)                  1.0407         estimate D2E/DX2                !
 ! R6    R(3,4)                  1.3312         estimate D2E/DX2                !
 ! R7    R(4,5)                  1.4077         estimate D2E/DX2                !
 ! R8    R(4,7)                  1.0285         estimate D2E/DX2                !
 ! R9    R(5,6)                  1.0611         estimate D2E/DX2                !
 ! A1    A(2,1,5)              106.3972         estimate D2E/DX2                !
 ! A2    A(2,1,9)              126.9005         estimate D2E/DX2                !
 ! A3    A(5,1,9)              126.3365         estimate D2E/DX2                !
 ! A4    A(1,2,3)              109.8552         estimate D2E/DX2                !
 ! A5    A(1,2,8)              134.4321         estimate D2E/DX2                !
 ! A6    A(3,2,8)              115.3165         estimate D2E/DX2                !
 ! A7    A(2,3,4)              107.3027         estimate D2E/DX2                !
 ! A8    A(3,4,5)              112.9253         estimate D2E/DX2                !
 ! A9    A(3,4,7)              114.1063         estimate D2E/DX2                !
 ! A10   A(5,4,7)              132.9564         estimate D2E/DX2                !
 ! A11   A(1,5,4)              103.3785         estimate D2E/DX2                !
 ! A12   A(1,5,6)              126.5442         estimate D2E/DX2                !
 ! A13   A(4,5,6)              129.9526         estimate D2E/DX2                !
 ! D1    D(5,1,2,3)              3.8729         estimate D2E/DX2                !
 ! D2    D(5,1,2,8)            176.0573         estimate D2E/DX2                !
 ! D3    D(9,1,2,3)            177.243          estimate D2E/DX2                !
 ! D4    D(9,1,2,8)            -10.5725         estimate D2E/DX2                !
 ! D5    D(2,1,5,4)             -3.22           estimate D2E/DX2                !
 ! D6    D(2,1,5,6)           -179.4782         estimate D2E/DX2                !
 ! D7    D(9,1,5,4)           -176.6387         estimate D2E/DX2                !
 ! D8    D(9,1,5,6)              7.1031         estimate D2E/DX2                !
 ! D9    D(1,2,3,4)             -3.0604         estimate D2E/DX2                !
 ! D10   D(8,2,3,4)           -176.8937         estimate D2E/DX2                !
 ! D11   D(2,3,4,5)              0.8393         estimate D2E/DX2                !
 ! D12   D(2,3,4,7)           -178.0673         estimate D2E/DX2                !
 ! D13   D(3,4,5,1)              1.4433         estimate D2E/DX2                !
 ! D14   D(3,4,5,6)            177.5215         estimate D2E/DX2                !
 ! D15   D(7,4,5,1)           -179.9205         estimate D2E/DX2                !
 ! D16   D(7,4,5,6)             -3.8423         estimate D2E/DX2                !
 --------------------------------------------------------------------------------
 Trust Radius=3.00D-01 FncErr=1.00D-07 GrdErr=1.00D-07
 Number of steps in this run=     48 maximum allowed number of steps=    100.
 GradGradGradGradGradGradGradGradGradGradGradGradGradGradGradGradGradGrad

 Leave Link  103 at Mon Nov 23 02:20:20 2015, MaxMem=    33554432 cpu:         0.0
 (Enter /home/Applications/g09/g09/l202.exe)
                          Input orientation:                          
 ---------------------------------------------------------------------
 Center     Atomic      Atomic             Coordinates (Angstroms)
 Number     Number       Type             X           Y           Z
 ---------------------------------------------------------------------
      1          6           0        0.943607   -0.760379   -0.032658
      2          6           0       -0.377711   -1.120698    0.039463
      3          8           0       -1.197039    0.041831    0.023201
      4          6           0       -0.386196    1.097530    0.010204
      5          6           0        0.975968    0.742597   -0.002557
      6          1           0        1.839810    1.357041   -0.049407
      7          1           0       -0.874496    2.002507    0.029379
      8          1           0       -0.889139   -2.026157   -0.000160
      9          1           0        1.783103   -1.407925    0.000963
 ---------------------------------------------------------------------
                    Distance matrix (angstroms):
                    1          2          3          4          5
     1  C    0.000000
     2  C    1.371464   0.000000
     3  O    2.286706   1.422335   0.000000
     4  C    2.285178   2.218437   1.331216   0.000000
     5  C    1.503626   2.303493   2.283352   1.407704   0.000000
     6  H    2.299332   3.326332   3.310212   2.241875   1.061112
     7  H    3.308003   3.162484   1.987039   1.028488   2.238886
     8  H    2.227601   1.040665   2.090914   3.163934   3.338357
     9  H    1.060754   2.180160   3.314141   3.314098   2.297003
                    6          7          8          9
     6  H    0.000000
     7  H    2.791109   0.000000
     8  H    4.346909   4.028799   0.000000
     9  H    2.766006   4.323735   2.742825   0.000000
 Stoichiometry    C4H4O
 Framework group  C1[X(C4H4O)]
 Deg. of freedom    21
 Full point group                 C1      NOp   1
 Largest Abelian subgroup         C1      NOp   1
 Largest concise Abelian subgroup C1      NOp   1
                         Standard orientation:                         
 ---------------------------------------------------------------------
 Center     Atomic      Atomic             Coordinates (Angstroms)
 Number     Number       Type             X           Y           Z
 ---------------------------------------------------------------------
      1          6           0        0.986124    0.734406   -0.022003
      2          6           0        0.989543   -0.636314    0.023037
      3          8           0       -0.346233   -1.123989   -0.007166
      4          6           0       -1.154193   -0.066016   -0.001842
      5          6           0       -0.456612    1.156614    0.011815
      6          1           0       -0.824640    2.151456   -0.016555
      7          1           0       -2.155188   -0.301962    0.009453
      8          1           0        1.730623   -1.365091   -0.028623
      9          1           0        1.829900    1.375372    0.027012
 ---------------------------------------------------------------------
 Rotational constants (GHZ):      9.2070914      8.8884265      4.5238218
 Leave Link  202 at Mon Nov 23 02:20:20 2015, MaxMem=    33554432 cpu:         0.0
 (Enter /home/Applications/g09/g09/l301.exe)

 Semi-emprical parameters in input format:
 Method=8 CoreType=1 PeptideFC=0.0125750000 RIJScale=0.5666730000
 ****
 H       
 PQN=1 NValence=1 F0ss=0.4322380000 ZetaOverlap=1.1880780000 U=-0.4188110000
 Beta=-0.2156480000 CoreKO=1.1385450000 KON=0,0,0,1.0589200000 KON=1,0,1,1.1290450000
 KON=0,1,1,1.1706660000 KON=2,1,1,1.0589200000 EISol=-0.4188110042 EHeat=0.0830298228
 Alpha=1.5252600000
 GCore=0.0084690000,1.3383940000,2.2676710000
 GCore=0.0003530000,1.3533660000,3.6667160000
 GCore=-0.0011710000,0.6115380000,4.3212930000
 ****
 C       
 PQN=2,2 NValence=4 F0ss=0.4466820000 F0sp=0.4066640000 F0pp=0.3768030000 F2pp=0.1898720000
 G1sp=0.2679030000
 ZetaOverlap=1.8086650000,1.7840750000
 U=-1.9120180000,-1.5956620000
 Beta=-0.5629500000,-0.3031680000 DDN=0,1,0.7632320000 DDN=1,1,0.7847580000
 CoreKO=1.1124280000 KON=0,0,0,1.0889370000 KON=1,0,1,0.8219700000 KON=0,1,1,0.9893020000
 KON=2,1,1,0.7783930000 EISol=-4.4398989268 EHeat=0.2723305520 Alpha=1.3702060000
 DipHyp=1.5263761812
 GCore=0.0008320000,1.4654240000,2.8806590000
 GCore=0.0027890000,1.3245690000,3.2438410000
 GCore=-0.0012930000,1.2846020000,4.0922960000
 GCore=-0.0000880000,1.4958780000,4.9512050000
 ****
 O       
 PQN=2,2 NValence=6 F0ss=0.5666750000 F0sp=0.5060470000 F0pp=0.4958710000 F2pp=0.2150590000
 G1sp=0.4181060000
 ZetaOverlap=3.3086090000,2.5960610000
 U=-3.8586440000,-2.8743270000
 Beta=-1.1627760000,-1.1056560000 DDN=0,1,0.4676820000 DDN=1,1,0.4852320000
 CoreKO=1.0326690000 KON=0,0,0,0.8822960000 KON=1,0,1,0.5019540000 KON=0,1,1,0.8822960000
 KON=2,1,1,0.5406950000 EISol=-11.6164441184 EHeat=0.0949133088 Alpha=2.2592050000
 DipHyp=0.9353101877
 GCore=0.0202690000,1.4001430000,1.6127490000
 GCore=0.0056550000,2.0844870000,2.7600040000
 ****
 
 Standard basis: VSTO-6G (5D, 7F)
 Ernie: Thresh=  0.10000D-02 Tol=  0.10000D-05 Strict=F.
  NNHCO=     0 NNPyr=     0 NCTC=     0               EPep=         0.000000000
    EC=        67.258658594  ECS=         1.869639229   EG=         0.365123905
   EHC=         0.000000000  EAt=       -31.051283842  AtH=         1.516354808
 EPDDG=         0.000000000  ECC=        69.493421728 EAtT=        32.567638650
 There are    24 symmetry adapted cartesian basis functions of A   symmetry.
 There are    24 symmetry adapted basis functions of A   symmetry.
    24 basis functions,   144 primitive gaussians,    24 cartesian basis functions
    13 alpha electrons       13 beta electrons
       nuclear repulsion energy       102.0610603780 Hartrees.
 IExCor=    0 DFT=F Ex=HF Corr=None ExCW=0 ScaHFX=  1.000000
 ScaDFX=  1.000000  1.000000  1.000000  1.000000 ScalE2=  1.000000  1.000000
 IRadAn=      0 IRanWt=     -1 IRanGd=            0 ICorTp=0 IEmpDi=  4
 Integral buffers will be    131072 words long.
 Regular integral format.
 Two-electron integral symmetry is turned off.
 Leave Link  301 at Mon Nov 23 02:20:20 2015, MaxMem=    33554432 cpu:         0.0
 (Enter /home/Applications/g09/g09/l302.exe)
 Do NDO integrals.
 NPDir=0 NMtPBC=     1 NCelOv=     1 NCel=       1 NClECP=     1 NCelD=      1
         NCelK=      1 NCelE2=     1 NClLst=     1 CellRange=     0.0.
 One-electron integrals computed using PRISM.
 NBasis=    24 RedAO= F EigKep=  0.00D+00  NBF=    24
 NBsUse=    24 1.00D-04 EigRej=  0.00D+00 NBFU=    24
 Leave Link  302 at Mon Nov 23 02:20:20 2015, MaxMem=    33554432 cpu:         0.0
 (Enter /home/Applications/g09/g09/l303.exe)
 DipDrv:  MaxL=1.
 Leave Link  303 at Mon Nov 23 02:20:20 2015, MaxMem=    33554432 cpu:         0.0
 (Enter /home/Applications/g09/g09/l401.exe)
 Simple Huckel Guess.
 JPrj=0 DoOrth=F DoCkMO=F.
 Leave Link  401 at Mon Nov 23 02:20:20 2015, MaxMem=    33554432 cpu:         0.0
 (Enter /home/Applications/g09/g09/l502.exe)
 Closed shell SCF:
 Using DIIS extrapolation, IDIIS=  1040.
 Overlap will be assumed to be unity.
 Two-electron integral symmetry not used.
 Keep J ints in memory in canonical form, NReq=888082.
 IVT=       79475 IEndB=       79475 NGot=    33554432 MDV=    33473473
 LenX=    33473473 LenY=    33472456
 Requested convergence on RMS density matrix=1.00D-08 within 128 cycles.
 Requested convergence on MAX density matrix=1.00D-06.
 Requested convergence on             energy=1.00D-06.
 No special actions if energy rises.
 FoFCou: FMM=F IPFlag=           0 FMFlag=           0 FMFlg1=           0
         NFxFlg=           0 DoJE=F BraDBF=F KetDBF=F FulRan=T
         wScrn=  0.000000 ICntrl=     600 IOpCl=  2 I1Cent=           0 NGrid=           0
         NMat0=    1 NMatS0=     54 NMatT0=    0 NMatD0=    1 NMtDS0=    0 NMtDT0=    0
 Symmetry not used in FoFCou.

 Cycle   1  Pass 1  IDiag  1:
 E= -1.78142877333274    
 DIIS: error= 9.92D-02 at cycle   1 NSaved=   1.
 NSaved= 1 IEnMin= 1 EnMin= -1.78142877333274     IErMin= 1 ErrMin= 9.92D-02
 ErrMax= 9.92D-02  0.00D+00 EMaxC= 1.00D-01 BMatC= 2.16D-01 BMatP= 2.16D-01
 IDIUse=3 WtCom= 7.64D-03 WtEn= 9.92D-01
 Coeff-Com:  0.100D+01
 Coeff-En:   0.100D+01
 Coeff:      0.100D+01
 GapD=    2.000 DampG=2.000 DampE=0.500 DampFc=1.0000 IDamp=-1.
 RMSDP=2.54D-02 MaxDP=2.11D-01              OVMax= 0.00D+00

 Cycle   2  Pass 1  IDiag  1:
 E= -2.27815690674683     Delta-E=       -0.496728133414 Rises=F Damp=F
 DIIS: error= 2.54D-02 at cycle   2 NSaved=   2.
 NSaved= 2 IEnMin= 2 EnMin= -2.27815690674683     IErMin= 2 ErrMin= 2.54D-02
 ErrMax= 2.54D-02  0.00D+00 EMaxC= 1.00D-01 BMatC= 1.57D-02 BMatP= 2.16D-01
 IDIUse=3 WtCom= 7.46D-01 WtEn= 2.54D-01
 Coeff-Com: -0.294D+00 0.129D+01
 Coeff-En:   0.000D+00 0.100D+01
 Coeff:     -0.219D+00 0.122D+01
 RMSDP=9.71D-03 MaxDP=7.86D-02 DE=-4.97D-01 OVMax= 0.00D+00

 Cycle   3  Pass 1  IDiag  1:
 E= -2.32647697747461     Delta-E=       -0.048320070728 Rises=F Damp=F
 DIIS: error= 5.12D-03 at cycle   3 NSaved=   3.
 NSaved= 3 IEnMin= 3 EnMin= -2.32647697747461     IErMin= 3 ErrMin= 5.12D-03
 ErrMax= 5.12D-03  0.00D+00 EMaxC= 1.00D-01 BMatC= 9.66D-04 BMatP= 1.57D-02
 IDIUse=3 WtCom= 9.49D-01 WtEn= 5.12D-02
 Coeff-Com:  0.155D+00-0.790D+00 0.163D+01
 Coeff-En:   0.000D+00 0.000D+00 0.100D+01
 Coeff:      0.147D+00-0.750D+00 0.160D+01
 RMSDP=3.91D-03 MaxDP=3.36D-02 DE=-4.83D-02 OVMax= 0.00D+00

 Cycle   4  Pass 1  IDiag  3:
 E= -2.33113242867370     Delta-E=       -0.004655451199 Rises=F Damp=F
 DIIS: error= 9.90D-04 at cycle   4 NSaved=   4.
 NSaved= 4 IEnMin= 4 EnMin= -2.33113242867370     IErMin= 4 ErrMin= 9.90D-04
 ErrMax= 9.90D-04  0.00D+00 EMaxC= 1.00D-01 BMatC= 3.33D-05 BMatP= 9.66D-04
 IDIUse=3 WtCom= 9.90D-01 WtEn= 9.90D-03
 Coeff-Com: -0.194D-03-0.959D-02-0.128D+00 0.114D+01
 Coeff-En:   0.000D+00 0.000D+00 0.000D+00 0.100D+01
 Coeff:     -0.192D-03-0.950D-02-0.126D+00 0.114D+01
 Gap=     0.380 Goal=   None    Shift=    0.000
 RMSDP=7.36D-04 MaxDP=7.55D-03 DE=-4.66D-03 OVMax= 5.46D-03

 Cycle   5  Pass 1  IDiag  3:
 E= -2.33129406605724     Delta-E=       -0.000161637384 Rises=F Damp=F
 DIIS: error= 2.22D-04 at cycle   5 NSaved=   5.
 NSaved= 5 IEnMin= 5 EnMin= -2.33129406605724     IErMin= 5 ErrMin= 2.22D-04
 ErrMax= 2.22D-04  0.00D+00 EMaxC= 1.00D-01 BMatC= 1.96D-06 BMatP= 3.33D-05
 IDIUse=3 WtCom= 9.98D-01 WtEn= 2.22D-03
 Coeff-Com: -0.364D-02 0.236D-01-0.227D-01-0.276D+00 0.128D+01
 Coeff-En:   0.000D+00 0.000D+00 0.000D+00 0.000D+00 0.100D+01
 Coeff:     -0.363D-02 0.236D-01-0.226D-01-0.275D+00 0.128D+01
 Gap=     0.380 Goal=   None    Shift=    0.000
 RMSDP=1.96D-04 MaxDP=1.68D-03 DE=-1.62D-04 OVMax= 1.64D-03

 Cycle   6  Pass 1  IDiag  3:
 E= -2.33130585273490     Delta-E=       -0.000011786678 Rises=F Damp=F
 DIIS: error= 1.06D-04 at cycle   6 NSaved=   6.
 NSaved= 6 IEnMin= 6 EnMin= -2.33130585273490     IErMin= 6 ErrMin= 1.06D-04
 ErrMax= 1.06D-04  0.00D+00 EMaxC= 1.00D-01 BMatC= 2.68D-07 BMatP= 1.96D-06
 IDIUse=3 WtCom= 9.99D-01 WtEn= 1.06D-03
 Coeff-Com:  0.938D-03-0.525D-02 0.160D-01-0.143D-01-0.439D+00 0.144D+01
 Coeff-En:   0.000D+00 0.000D+00 0.000D+00 0.000D+00 0.000D+00 0.100D+01
 Coeff:      0.937D-03-0.524D-02 0.160D-01-0.142D-01-0.438D+00 0.144D+01
 Gap=     0.380 Goal=   None    Shift=    0.000
 RMSDP=9.62D-05 MaxDP=8.10D-04 DE=-1.18D-05 OVMax= 8.75D-04

 Cycle   7  Pass 1  IDiag  3:
 E= -2.33130789213730     Delta-E=       -0.000002039402 Rises=F Damp=F
 DIIS: error= 3.54D-05 at cycle   7 NSaved=   7.
 NSaved= 7 IEnMin= 7 EnMin= -2.33130789213730     IErMin= 7 ErrMin= 3.54D-05
 ErrMax= 3.54D-05  0.00D+00 EMaxC= 1.00D-01 BMatC= 2.77D-08 BMatP= 2.68D-07
 IDIUse=1 WtCom= 1.00D+00 WtEn= 0.00D+00
 Coeff-Com: -0.769D-04 0.313D-03-0.453D-02 0.175D-01 0.186D+00-0.898D+00
 Coeff-Com:  0.170D+01
 Coeff:     -0.769D-04 0.313D-03-0.453D-02 0.175D-01 0.186D+00-0.898D+00
 Coeff:      0.170D+01
 Gap=     0.380 Goal=   None    Shift=    0.000
 RMSDP=4.20D-05 MaxDP=3.38D-04 DE=-2.04D-06 OVMax= 3.83D-04

 Cycle   8  Pass 1  IDiag  3:
 E= -2.33130817325919     Delta-E=       -0.000000281122 Rises=F Damp=F
 DIIS: error= 1.27D-05 at cycle   8 NSaved=   8.
 NSaved= 8 IEnMin= 8 EnMin= -2.33130817325919     IErMin= 8 ErrMin= 1.27D-05
 ErrMax= 1.27D-05  0.00D+00 EMaxC= 1.00D-01 BMatC= 2.46D-09 BMatP= 2.77D-08
 IDIUse=1 WtCom= 1.00D+00 WtEn= 0.00D+00
 Coeff-Com:  0.140D-04 0.173D-04 0.277D-02-0.132D-01-0.130D+00 0.659D+00
 Coeff-Com: -0.144D+01 0.192D+01
 Coeff:      0.140D-04 0.173D-04 0.277D-02-0.132D-01-0.130D+00 0.659D+00
 Coeff:     -0.144D+01 0.192D+01
 Gap=     0.380 Goal=   None    Shift=    0.000
 RMSDP=1.58D-05 MaxDP=1.44D-04 DE=-2.81D-07 OVMax= 1.50D-04

 Cycle   9  Pass 1  IDiag  3:
 E= -2.33130820269480     Delta-E=       -0.000000029436 Rises=F Damp=F
 DIIS: error= 1.91D-06 at cycle   9 NSaved=   9.
 NSaved= 9 IEnMin= 9 EnMin= -2.33130820269480     IErMin= 9 ErrMin= 1.91D-06
 ErrMax= 1.91D-06  0.00D+00 EMaxC= 1.00D-01 BMatC= 1.15D-10 BMatP= 2.46D-09
 IDIUse=1 WtCom= 1.00D+00 WtEn= 0.00D+00
 Coeff-Com: -0.259D-05-0.217D-04-0.769D-03 0.354D-02 0.429D-01-0.213D+00
 Coeff-Com:  0.480D+00-0.813D+00 0.150D+01
 Coeff:     -0.259D-05-0.217D-04-0.769D-03 0.354D-02 0.429D-01-0.213D+00
 Coeff:      0.480D+00-0.813D+00 0.150D+01
 Gap=     0.380 Goal=   None    Shift=    0.000
 RMSDP=3.01D-06 MaxDP=2.61D-05 DE=-2.94D-08 OVMax= 2.81D-05

 Cycle  10  Pass 1  IDiag  3:
 E= -2.33130820371724     Delta-E=       -0.000000001022 Rises=F Damp=F
 DIIS: error= 3.53D-07 at cycle  10 NSaved=  10.
 NSaved=10 IEnMin=10 EnMin= -2.33130820371724     IErMin=10 ErrMin= 3.53D-07
 ErrMax= 3.53D-07  0.00D+00 EMaxC= 1.00D-01 BMatC= 4.23D-12 BMatP= 1.15D-10
 IDIUse=1 WtCom= 1.00D+00 WtEn= 0.00D+00
 Coeff-Com: -0.181D-05 0.249D-04 0.252D-03-0.132D-02-0.157D-01 0.793D-01
 Coeff-Com: -0.181D+00 0.327D+00-0.727D+00 0.152D+01
 Coeff:     -0.181D-05 0.249D-04 0.252D-03-0.132D-02-0.157D-01 0.793D-01
 Coeff:     -0.181D+00 0.327D+00-0.727D+00 0.152D+01
 Gap=     0.380 Goal=   None    Shift=    0.000
 RMSDP=3.24D-07 MaxDP=2.24D-06 DE=-1.02D-09 OVMax= 2.10D-06

 Cycle  11  Pass 1  IDiag  3:
 E= -2.33130820374008     Delta-E=       -0.000000000023 Rises=F Damp=F
 DIIS: error= 8.92D-08 at cycle  11 NSaved=  11.
 NSaved=11 IEnMin=11 EnMin= -2.33130820374008     IErMin=11 ErrMin= 8.92D-08
 ErrMax= 8.92D-08  0.00D+00 EMaxC= 1.00D-01 BMatC= 1.90D-13 BMatP= 4.23D-12
 IDIUse=1 WtCom= 1.00D+00 WtEn= 0.00D+00
 Coeff-Com:  0.113D-05-0.118D-04-0.926D-04 0.478D-03 0.647D-02-0.323D-01
 Coeff-Com:  0.738D-01-0.134D+00 0.307D+00-0.746D+00 0.152D+01
 Coeff:      0.113D-05-0.118D-04-0.926D-04 0.478D-03 0.647D-02-0.323D-01
 Coeff:      0.738D-01-0.134D+00 0.307D+00-0.746D+00 0.152D+01
 Gap=     0.380 Goal=   None    Shift=    0.000
 RMSDP=6.13D-08 MaxDP=4.89D-07 DE=-2.28D-11 OVMax= 3.17D-07

 Cycle  12  Pass 1  IDiag  3:
 E= -2.33130820374106     Delta-E=       -0.000000000001 Rises=F Damp=F
 DIIS: error= 1.81D-08 at cycle  12 NSaved=  12.
 NSaved=12 IEnMin=12 EnMin= -2.33130820374106     IErMin=12 ErrMin= 1.81D-08
 ErrMax= 1.81D-08  0.00D+00 EMaxC= 1.00D-01 BMatC= 9.23D-15 BMatP= 1.90D-13
 IDIUse=1 WtCom= 1.00D+00 WtEn= 0.00D+00
 Coeff-Com: -0.227D-06 0.308D-05 0.274D-04-0.137D-03-0.194D-02 0.968D-02
 Coeff-Com: -0.221D-01 0.400D-01-0.922D-01 0.232D+00-0.632D+00 0.147D+01
 Coeff:     -0.227D-06 0.308D-05 0.274D-04-0.137D-03-0.194D-02 0.968D-02
 Coeff:     -0.221D-01 0.400D-01-0.922D-01 0.232D+00-0.632D+00 0.147D+01
 Gap=     0.380 Goal=   None    Shift=    0.000
 RMSDP=1.51D-08 MaxDP=1.10D-07 DE=-9.81D-13 OVMax= 1.11D-07

 Cycle  13  Pass 1  IDiag  3:
 E= -2.33130820374113     Delta-E=        0.000000000000 Rises=F Damp=F
 DIIS: error= 4.28D-09 at cycle  13 NSaved=  13.
 NSaved=13 IEnMin=13 EnMin= -2.33130820374113     IErMin=13 ErrMin= 4.28D-09
 ErrMax= 4.28D-09  0.00D+00 EMaxC= 1.00D-01 BMatC= 5.15D-16 BMatP= 9.23D-15
 IDIUse=1 WtCom= 1.00D+00 WtEn= 0.00D+00
 Coeff-Com:  0.584D-07-0.815D-06-0.644D-05 0.322D-04 0.490D-03-0.244D-02
 Coeff-Com:  0.556D-02-0.101D-01 0.236D-01-0.595D-01 0.180D+00-0.579D+00
 Coeff-Com:  0.144D+01
 Coeff:      0.584D-07-0.815D-06-0.644D-05 0.322D-04 0.490D-03-0.244D-02
 Coeff:      0.556D-02-0.101D-01 0.236D-01-0.595D-01 0.180D+00-0.579D+00
 Coeff:      0.144D+01
 Gap=     0.380 Goal=   None    Shift=    0.000
 RMSDP=3.71D-09 MaxDP=2.49D-08 DE=-7.11D-14 OVMax= 2.40D-08

 Cycle  14  Pass 2  IDiag  1:
 SCF Done:  E(RAM1) =  -2.33130820374     A.U. after   14 cycles
            NFock= 13  Conv=0.37D-08     -V/T= 0.8796
 KE=-1.935746893173D+01 PE=-1.698971577138D+02 EE= 8.486225806384D+01
 Leave Link  502 at Mon Nov 23 02:20:20 2015, MaxMem=    33554432 cpu:         0.0
 (Enter /home/Applications/g09/g09/l601.exe)
 Copying SCF densities to generalized density rwf, IOpCl= 0 IROHF=0.

 **********************************************************************

            Population analysis using the SCF density.

 **********************************************************************

 Orbital symmetries:
       Occupied  (A) (A) (A) (A) (A) (A) (A) (A) (A) (A) (A) (A)
                 (A)
       Virtual   (A) (A) (A) (A) (A) (A) (A) (A) (A) (A) (A)
 The electronic state is 1-A.
 Alpha  occ. eigenvalues --   -1.67389  -1.19972  -1.01495  -0.80428  -0.79051
 Alpha  occ. eigenvalues --   -0.69486  -0.59790  -0.57439  -0.55020  -0.53049
 Alpha  occ. eigenvalues --   -0.51628  -0.42288  -0.39469
 Alpha virt. eigenvalues --   -0.01478   0.00222   0.09884   0.13384   0.18152
 Alpha virt. eigenvalues --    0.18894   0.19446   0.20329   0.20981   0.21328
 Alpha virt. eigenvalues --    0.22261
          Condensed to atoms (all electrons):
               1          2          3          4          5          6
     1  C    4.426958   0.000000   0.000000   0.000000   0.000000   0.000000
     2  C    0.000000   4.384514   0.000000   0.000000   0.000000   0.000000
     3  O    0.000000   0.000000   5.884020   0.000000   0.000000   0.000000
     4  C    0.000000   0.000000   0.000000   4.295320   0.000000   0.000000
     5  C    0.000000   0.000000   0.000000   0.000000   4.534544   0.000000
     6  H    0.000000   0.000000   0.000000   0.000000   0.000000   0.615078
     7  H    0.000000   0.000000   0.000000   0.000000   0.000000   0.000000
     8  H    0.000000   0.000000   0.000000   0.000000   0.000000   0.000000
     9  H    0.000000   0.000000   0.000000   0.000000   0.000000   0.000000
               7          8          9
     1  C    0.000000   0.000000   0.000000
     2  C    0.000000   0.000000   0.000000
     3  O    0.000000   0.000000   0.000000
     4  C    0.000000   0.000000   0.000000
     5  C    0.000000   0.000000   0.000000
     6  H    0.000000   0.000000   0.000000
     7  H    0.622531   0.000000   0.000000
     8  H    0.000000   0.615742   0.000000
     9  H    0.000000   0.000000   0.621293
 Mulliken charges:
               1
     1  C   -0.426958
     2  C   -0.384514
     3  O    0.115980
     4  C   -0.295320
     5  C   -0.534544
     6  H    0.384922
     7  H    0.377469
     8  H    0.384258
     9  H    0.378707
 Sum of Mulliken charges =   0.00000
 Mulliken charges with hydrogens summed into heavy atoms:
               1
     1  C   -0.048251
     2  C   -0.000256
     3  O    0.115980
     4  C    0.082149
     5  C   -0.149622
 Charge=              0.0000 electrons
 Dipole moment (field-independent basis, Debye):
    X=             -0.1837    Y=             -0.5752    Z=             -0.0610  Tot=              0.6069
 N-N= 1.020610603780D+02 E-N=-1.698971576964D+02  KE=-1.935746893173D+01
 Leave Link  601 at Mon Nov 23 02:20:20 2015, MaxMem=    33554432 cpu:         0.0
 (Enter /home/Applications/g09/g09/l701.exe)
 Compute integral first derivatives.
 ... and contract with generalized density number  0.
 Leave Link  701 at Mon Nov 23 02:20:20 2015, MaxMem=    33554432 cpu:         0.0
 (Enter /home/Applications/g09/g09/l702.exe)
 L702 exits ... SP integral derivatives will be done elsewhere.
 Leave Link  702 at Mon Nov 23 02:20:20 2015, MaxMem=    33554432 cpu:         0.0
 (Enter /home/Applications/g09/g09/l703.exe)
 Compute integral first derivatives, UseDBF=F ICtDFT=           0.
 Integral derivatives from FoFJK, PRISM(SPDF).
 Calling FoFJK, ICntrl=      2127 FMM=F ISym2X=0 I1Cent= 0 IOpClX= 0 NMat=1 NMatS=1 NMatT=0.
 FoFJK:  IHMeth= 8 ICntrl=    2127 DoSepK=F KAlg= 0 I1Cent=   0 FoldK=F
 IRaf=         0 NMat=   1 IRICut=       1 DoRegI=T DoRafI=F ISym2E= 0.
 FoFCou: FMM=F IPFlag=           0 FMFlag=      100000 FMFlg1=         800
         NFxFlg=           0 DoJE=F BraDBF=F KetDBF=F FulRan=T
         wScrn=  0.000000 ICntrl=    2127 IOpCl=  0 I1Cent=           0 NGrid=           0
         NMat0=    1 NMatS0=      1 NMatT0=    0 NMatD0=    1 NMtDS0=    0 NMtDT0=    0
 Symmetry not used in FoFCou.
 Leave Link  703 at Mon Nov 23 02:20:20 2015, MaxMem=    33554432 cpu:         0.0
 (Enter /home/Applications/g09/g09/l716.exe)
 Dipole        =-7.22855724D-02-2.26303380D-01-2.40121957D-02
 ***** Axes restored to original set *****
 -------------------------------------------------------------------
 Center     Atomic                   Forces (Hartrees/Bohr)
 Number     Number              X              Y              Z
 -------------------------------------------------------------------
      1        6          -0.011590048    0.048565878    0.014911630
      2        6           0.011133807    0.043966477   -0.012932954
      3        8          -0.017815694   -0.054942104    0.004333712
      4        6           0.074309543   -0.007638650    0.001352489
      5        6          -0.042541525   -0.048271316   -0.008350186
      6        1           0.003739969    0.000580101    0.001422553
      7        1          -0.013960052    0.038091899   -0.000063268
      8        1          -0.012514404   -0.019733290    0.002200176
      9        1           0.009238404   -0.000618995   -0.002874153
 -------------------------------------------------------------------
 Cartesian Forces:  Max     0.074309543 RMS     0.027482793
 Leave Link  716 at Mon Nov 23 02:20:20 2015, MaxMem=    33554432 cpu:         0.0
 (Enter /home/Applications/g09/g09/l103.exe)

 GradGradGradGradGradGradGradGradGradGradGradGradGradGradGradGradGradGrad
 Berny optimization.
 FormGI is forming the generalized inverse of G from B-inverse, IUseBI=4.
 Internal  Forces:  Max     0.049068618 RMS     0.015239330
 Search for a local minimum.
 Step number   1 out of a maximum of   48
 All quantities printed in internal units (Hartrees-Bohrs-Radians)
 RMS Force = .15239D-01 SwitMx=.10000D-02 MixMth= 1
 Mixed Optimization -- RFO/linear search
 Second derivative matrix not updated -- first step.
 ITU=  0
     Eigenvalues ---    0.01242   0.01619   0.01662   0.02042   0.02157
     Eigenvalues ---    0.02314   0.15804   0.15895   0.15941   0.15997
     Eigenvalues ---    0.21998   0.22894   0.31160   0.38376   0.38424
     Eigenvalues ---    0.39398   0.41198   0.42648   0.43011   0.48416
     Eigenvalues ---    0.56868
 RFO step:  Lambda=-2.29180800D-02 EMin= 1.24241468D-02
 Linear search not attempted -- first point.
 Iteration  1 RMS(Cart)=  0.04812234 RMS(Int)=  0.00196991
 Iteration  2 RMS(Cart)=  0.00219067 RMS(Int)=  0.00088041
 Iteration  3 RMS(Cart)=  0.00000344 RMS(Int)=  0.00088041
 Iteration  4 RMS(Cart)=  0.00000000 RMS(Int)=  0.00088041
 ITry= 1 IFail=0 DXMaxC= 1.31D-01 DCOld= 1.00D+10 DXMaxT= 3.00D-01 DXLimC= 3.00D+00 Rises=F
 Variable       Old X    -DE/DX   Delta X   Delta X   Delta X     New X
                                 (Linear)    (Quad)   (Total)
    R1        2.59169  -0.00602   0.00000  -0.01411  -0.01399   2.57770
    R2        2.84144  -0.04907   0.00000  -0.15028  -0.15012   2.69132
    R3        2.00454   0.00760   0.00000   0.01866   0.01866   2.02320
    R4        2.68782  -0.02307   0.00000  -0.04856  -0.04864   2.63918
    R5        1.96657   0.02324   0.00000   0.05343   0.05343   2.02000
    R6        2.51563   0.04023   0.00000   0.06940   0.06923   2.58487
    R7        2.66018  -0.03470   0.00000  -0.07393  -0.07395   2.58622
    R8        1.94356   0.04014   0.00000   0.08861   0.08861   2.03217
    R9        2.00521   0.00332   0.00000   0.00816   0.00816   2.01337
    A1        1.85698   0.00643   0.00000   0.01096   0.00958   1.86656
    A2        2.21483   0.00221   0.00000   0.02830   0.02729   2.24212
    A3        2.20499  -0.00826   0.00000  -0.02976  -0.03090   2.17409
    A4        1.91734   0.00283   0.00000   0.01136   0.00971   1.92704
    A5        2.34628   0.00031   0.00000   0.00758   0.00647   2.35275
    A6        2.01265  -0.00267   0.00000  -0.00866  -0.00976   2.00289
    A7        1.87279  -0.01558   0.00000  -0.03949  -0.04047   1.83232
    A8        1.97092  -0.00606   0.00000  -0.01724  -0.01787   1.95305
    A9        1.99153   0.00868   0.00000   0.03969   0.03993   2.03146
   A10        2.32053  -0.00261   0.00000  -0.02209  -0.02186   2.29867
   A11        1.80430   0.01269   0.00000   0.04179   0.04083   1.84512
   A12        2.20861  -0.00795   0.00000  -0.02820  -0.02866   2.17995
   A13        2.26810  -0.00458   0.00000  -0.00956  -0.01000   2.25810
    D1        0.06759  -0.00382   0.00000  -0.09943  -0.09986  -0.03227
    D2        3.07278   0.00065   0.00000   0.00082  -0.00036   3.07242
    D3        3.09347  -0.00096   0.00000  -0.01615  -0.01436   3.07911
    D4       -0.18453   0.00352   0.00000   0.08410   0.08514  -0.09939
    D5       -0.05620   0.00362   0.00000   0.09083   0.09085   0.03465
    D6       -3.13249   0.00122   0.00000   0.03034   0.03027  -3.10222
    D7       -3.08293  -0.00011   0.00000   0.00319   0.00471  -3.07821
    D8        0.12397  -0.00251   0.00000  -0.05730  -0.05587   0.06810
    D9       -0.05341   0.00341   0.00000   0.07177   0.07018   0.01677
   D10       -3.08738  -0.00028   0.00000  -0.00839  -0.00861  -3.09599
   D11        0.01465  -0.00024   0.00000  -0.00716  -0.00833   0.00632
   D12       -3.10786  -0.00095   0.00000  -0.02357  -0.02447  -3.13233
   D13        0.02519  -0.00207   0.00000  -0.05096  -0.05069  -0.02550
   D14        3.09833   0.00030   0.00000   0.01156   0.01275   3.11109
   D15       -3.14020  -0.00105   0.00000  -0.02958  -0.03042   3.11257
   D16       -0.06706   0.00133   0.00000   0.03294   0.03302  -0.03404
         Item               Value     Threshold  Converged?
 Maximum Force            0.049069     0.000450     NO 
 RMS     Force            0.015239     0.000300     NO 
 Maximum Displacement     0.130577     0.001800     NO 
 RMS     Displacement     0.048676     0.001200     NO 
 Predicted change in Energy=-1.255664D-02
 Lowest energy point so far.  Saving SCF results.
 GradGradGradGradGradGradGradGradGradGradGradGradGradGradGradGradGradGrad

 Leave Link  103 at Mon Nov 23 02:20:20 2015, MaxMem=    33554432 cpu:         0.0
 (Enter /home/Applications/g09/g09/l202.exe)
                          Input orientation:                          
 ---------------------------------------------------------------------
 Center     Atomic      Atomic             Coordinates (Angstroms)
 Number     Number       Type             X           Y           Z
 ---------------------------------------------------------------------
      1          6           0        0.929991   -0.723880   -0.001963
      2          6           0       -0.378371   -1.109457    0.011366
      3          8           0       -1.215289    0.008255    0.038938
      4          6           0       -0.370047    1.083529    0.019697
      5          6           0        0.942891    0.700038   -0.026232
      6          1           0        1.821302    1.300968   -0.075397
      7          1           0       -0.831248    2.054655    0.045200
      8          1           0       -0.887164   -2.048933   -0.022461
      9          1           0        1.805841   -1.338827    0.029280
 ---------------------------------------------------------------------
                    Distance matrix (angstroms):
                    1          2          3          4          5
     1  C    0.000000
     2  C    1.364060   0.000000
     3  O    2.267140   1.396593   0.000000
     4  C    2.226499   2.193018   1.367852   0.000000
     5  C    1.424184   2.240853   2.267279   1.368569   0.000000
     6  H    2.213558   3.264390   3.302282   2.204163   1.065429
     7  H    3.290053   3.196537   2.082134   1.075380   2.233307
     8  H    2.249053   1.068938   2.084096   3.175139   3.302417
     9  H    1.070630   2.196295   3.307862   3.256131   2.214663
                    6          7          8          9
     6  H    0.000000
     7  H    2.760183   0.000000
     8  H    4.308182   4.104527   0.000000
     9  H    2.641914   4.297698   2.785535   0.000000
 Stoichiometry    C4H4O
 Framework group  C1[X(C4H4O)]
 Deg. of freedom    21
 Full point group                 C1      NOp   1
 RotChk:  IX=2 Diff= 4.05D-01
 Largest Abelian subgroup         C1      NOp   1
 Largest concise Abelian subgroup C1      NOp   1
                         Standard orientation:                         
 ---------------------------------------------------------------------
 Center     Atomic      Atomic             Coordinates (Angstroms)
 Number     Number       Type             X           Y           Z
 ---------------------------------------------------------------------
      1          6           0        0.693516    0.976392    0.009594
      2          6           0        1.110078   -0.322409   -0.006191
      3          8           0        0.012608   -1.186074    0.004549
      4          6           0       -1.082469   -0.366424    0.005207
      5          6           0       -0.730349    0.955953   -0.012512
      6          1           0       -1.352058    1.820688   -0.041670
      7          1           0       -2.042320   -0.851036    0.021900
      8          1           0        2.061307   -0.807857   -0.052371
      9          1           0        1.287547    1.865728    0.059168
 ---------------------------------------------------------------------
 Rotational constants (GHZ):      9.5292091      9.0316840      4.6379579
 Leave Link  202 at Mon Nov 23 02:20:20 2015, MaxMem=    33554432 cpu:         0.0
 (Enter /home/Applications/g09/g09/l301.exe)

 Semi-emprical parameters in input format:
 Method=8 CoreType=1 PeptideFC=0.0125750000 RIJScale=0.5666730000
 ****
 H       
 PQN=1 NValence=1 F0ss=0.4322380000 ZetaOverlap=1.1880780000 U=-0.4188110000
 Beta=-0.2156480000 CoreKO=1.1385450000 KON=0,0,0,1.0589200000 KON=1,0,1,1.1290450000
 KON=0,1,1,1.1706660000 KON=2,1,1,1.0589200000 EISol=-0.4188110042 EHeat=0.0830298228
 Alpha=1.5252600000
 GCore=0.0084690000,1.3383940000,2.2676710000
 GCore=0.0003530000,1.3533660000,3.6667160000
 GCore=-0.0011710000,0.6115380000,4.3212930000
 ****
 C       
 PQN=2,2 NValence=4 F0ss=0.4466820000 F0sp=0.4066640000 F0pp=0.3768030000 F2pp=0.1898720000
 G1sp=0.2679030000
 ZetaOverlap=1.8086650000,1.7840750000
 U=-1.9120180000,-1.5956620000
 Beta=-0.5629500000,-0.3031680000 DDN=0,1,0.7632320000 DDN=1,1,0.7847580000
 CoreKO=1.1124280000 KON=0,0,0,1.0889370000 KON=1,0,1,0.8219700000 KON=0,1,1,0.9893020000
 KON=2,1,1,0.7783930000 EISol=-4.4398989268 EHeat=0.2723305520 Alpha=1.3702060000
 DipHyp=1.5263761812
 GCore=0.0008320000,1.4654240000,2.8806590000
 GCore=0.0027890000,1.3245690000,3.2438410000
 GCore=-0.0012930000,1.2846020000,4.0922960000
 GCore=-0.0000880000,1.4958780000,4.9512050000
 ****
 O       
 PQN=2,2 NValence=6 F0ss=0.5666750000 F0sp=0.5060470000 F0pp=0.4958710000 F2pp=0.2150590000
 G1sp=0.4181060000
 ZetaOverlap=3.3086090000,2.5960610000
 U=-3.8586440000,-2.8743270000
 Beta=-1.1627760000,-1.1056560000 DDN=0,1,0.4676820000 DDN=1,1,0.4852320000
 CoreKO=1.0326690000 KON=0,0,0,0.8822960000 KON=1,0,1,0.5019540000 KON=0,1,1,0.8822960000
 KON=2,1,1,0.5406950000 EISol=-11.6164441184 EHeat=0.0949133088 Alpha=2.2592050000
 DipHyp=0.9353101877
 GCore=0.0202690000,1.4001430000,1.6127490000
 GCore=0.0056550000,2.0844870000,2.7600040000
 ****
 
 Standard basis: VSTO-6G (5D, 7F)
 Ernie: Thresh=  0.10000D-02 Tol=  0.10000D-05 Strict=F.
  NNHCO=     0 NNPyr=     0 NCTC=     0               EPep=         0.000000000
    EC=        67.679363413  ECS=         1.911198146   EG=         0.361422838
   EHC=         0.000000000  EAt=       -31.051283842  AtH=         1.516354808
 EPDDG=         0.000000000  ECC=        69.951984397 EAtT=        32.567638650
 There are    24 symmetry adapted cartesian basis functions of A   symmetry.
 There are    24 symmetry adapted basis functions of A   symmetry.
    24 basis functions,   144 primitive gaussians,    24 cartesian basis functions
    13 alpha electrons       13 beta electrons
       nuclear repulsion energy       102.5196230476 Hartrees.
 IExCor=    0 DFT=F Ex=HF Corr=None ExCW=0 ScaHFX=  1.000000
 ScaDFX=  1.000000  1.000000  1.000000  1.000000 ScalE2=  1.000000  1.000000
 IRadAn=      0 IRanWt=     -1 IRanGd=            0 ICorTp=0 IEmpDi=  4
 Integral buffers will be    131072 words long.
 Regular integral format.
 Two-electron integral symmetry is turned off.
 Leave Link  301 at Mon Nov 23 02:20:20 2015, MaxMem=    33554432 cpu:         0.0
 (Enter /home/Applications/g09/g09/l302.exe)
 Do NDO integrals.
 NPDir=0 NMtPBC=     1 NCelOv=     1 NCel=       1 NClECP=     1 NCelD=      1
         NCelK=      1 NCelE2=     1 NClLst=     1 CellRange=     0.0.
 One-electron integrals computed using PRISM.
 NBasis=    24 RedAO= F EigKep=  0.00D+00  NBF=    24
 NBsUse=    24 1.00D-04 EigRej=  0.00D+00 NBFU=    24
 Leave Link  302 at Mon Nov 23 02:20:20 2015, MaxMem=    33554432 cpu:         0.0
 (Enter /home/Applications/g09/g09/l303.exe)
 DipDrv:  MaxL=1.
 Leave Link  303 at Mon Nov 23 02:20:20 2015, MaxMem=    33554432 cpu:         0.0
 (Enter /home/Applications/g09/g09/l401.exe)
 Initial guess from the checkpoint file:  "/home/Applications/g09/scratch/Gau-2437.chk"
 B after Tr=     0.000000    0.000000    0.000000
         Rot=    0.989442    0.000114    0.000166   -0.144927 Ang=  16.67 deg.
 Guess basis will be translated and rotated to current coordinates.
 JPrj=0 DoOrth=T DoCkMO=T.
 Leave Link  401 at Mon Nov 23 02:20:20 2015, MaxMem=    33554432 cpu:         0.0
 (Enter /home/Applications/g09/g09/l502.exe)
 Closed shell SCF:
 Using DIIS extrapolation, IDIIS=  1040.
 Overlap will be assumed to be unity.
 Two-electron integral symmetry not used.
 Keep J ints in memory in canonical form, NReq=888082.
 IVT=       79475 IEndB=       79475 NGot=    33554432 MDV=    33473473
 LenX=    33473473 LenY=    33472456
 Requested convergence on RMS density matrix=1.00D-08 within 128 cycles.
 Requested convergence on MAX density matrix=1.00D-06.
 Requested convergence on             energy=1.00D-06.
 No special actions if energy rises.
 FoFCou: FMM=F IPFlag=           0 FMFlag=           0 FMFlg1=           0
         NFxFlg=           0 DoJE=F BraDBF=F KetDBF=F FulRan=T
         wScrn=  0.000000 ICntrl=     600 IOpCl=  2 I1Cent=           0 NGrid=           0
         NMat0=    1 NMatS0=     54 NMatT0=    0 NMatD0=    1 NMtDS0=    0 NMtDT0=    0
 Symmetry not used in FoFCou.

 Cycle   1  Pass 1  IDiag  1:
 E= -2.33429223893594    
 DIIS: error= 5.48D-03 at cycle   1 NSaved=   1.
 NSaved= 1 IEnMin= 1 EnMin= -2.33429223893594     IErMin= 1 ErrMin= 5.48D-03
 ErrMax= 5.48D-03  0.00D+00 EMaxC= 1.00D-01 BMatC= 2.03D-03 BMatP= 2.03D-03
 IDIUse=3 WtCom= 9.45D-01 WtEn= 5.48D-02
 Coeff-Com:  0.100D+01
 Coeff-En:   0.100D+01
 Coeff:      0.100D+01
 GapD=    2.000 DampG=2.000 DampE=1.000 DampFc=2.0000 IDamp=-1.
 RMSDP=3.06D-03 MaxDP=1.19D-02              OVMax= 0.00D+00

 Cycle   2  Pass 1  IDiag  3:
 E= -2.34023904447604     Delta-E=       -0.005946805540 Rises=F Damp=F
 DIIS: error= 1.96D-03 at cycle   2 NSaved=   2.
 NSaved= 2 IEnMin= 2 EnMin= -2.34023904447604     IErMin= 2 ErrMin= 1.96D-03
 ErrMax= 1.96D-03  0.00D+00 EMaxC= 1.00D-01 BMatC= 2.37D-04 BMatP= 2.03D-03
 IDIUse=3 WtCom= 9.80D-01 WtEn= 1.96D-02
 Coeff-Com: -0.426D+00 0.143D+01
 Coeff-En:   0.000D+00 0.100D+01
 Coeff:     -0.417D+00 0.142D+01
 Gap=     0.383 Goal=   None    Shift=    0.000
 RMSDP=1.81D-03 MaxDP=8.16D-03 DE=-5.95D-03 OVMax= 8.44D-03

 Cycle   3  Pass 1  IDiag  3:
 E= -2.34132211076883     Delta-E=       -0.001083066293 Rises=F Damp=F
 DIIS: error= 4.78D-04 at cycle   3 NSaved=   3.
 NSaved= 3 IEnMin= 3 EnMin= -2.34132211076883     IErMin= 3 ErrMin= 4.78D-04
 ErrMax= 4.78D-04  0.00D+00 EMaxC= 1.00D-01 BMatC= 1.15D-05 BMatP= 2.37D-04
 IDIUse=3 WtCom= 9.95D-01 WtEn= 4.78D-03
 Coeff-Com:  0.181D+00-0.723D+00 0.154D+01
 Coeff-En:   0.000D+00 0.000D+00 0.100D+01
 Coeff:      0.180D+00-0.720D+00 0.154D+01
 Gap=     0.383 Goal=   None    Shift=    0.000
 RMSDP=6.10D-04 MaxDP=3.74D-03 DE=-1.08D-03 OVMax= 4.10D-03

 Cycle   4  Pass 1  IDiag  3:
 E= -2.34140400358150     Delta-E=       -0.000081892813 Rises=F Damp=F
 DIIS: error= 1.50D-04 at cycle   4 NSaved=   4.
 NSaved= 4 IEnMin= 4 EnMin= -2.34140400358150     IErMin= 4 ErrMin= 1.50D-04
 ErrMax= 1.50D-04  0.00D+00 EMaxC= 1.00D-01 BMatC= 7.10D-07 BMatP= 1.15D-05
 IDIUse=3 WtCom= 9.98D-01 WtEn= 1.50D-03
 Coeff-Com: -0.426D-01 0.188D+00-0.576D+00 0.143D+01
 Coeff-En:   0.000D+00 0.000D+00 0.000D+00 0.100D+01
 Coeff:     -0.425D-01 0.187D+00-0.575D+00 0.143D+01
 Gap=     0.383 Goal=   None    Shift=    0.000
 RMSDP=1.75D-04 MaxDP=1.52D-03 DE=-8.19D-05 OVMax= 1.65D-03

 Cycle   5  Pass 1  IDiag  3:
 E= -2.34141018876709     Delta-E=       -0.000006185186 Rises=F Damp=F
 DIIS: error= 6.23D-05 at cycle   5 NSaved=   5.
 NSaved= 5 IEnMin= 5 EnMin= -2.34141018876709     IErMin= 5 ErrMin= 6.23D-05
 ErrMax= 6.23D-05  0.00D+00 EMaxC= 1.00D-01 BMatC= 8.41D-08 BMatP= 7.10D-07
 IDIUse=1 WtCom= 1.00D+00 WtEn= 0.00D+00
 Coeff-Com: -0.369D-02 0.101D-01 0.341D-01-0.473D+00 0.143D+01
 Coeff:     -0.369D-02 0.101D-01 0.341D-01-0.473D+00 0.143D+01
 Gap=     0.383 Goal=   None    Shift=    0.000
 RMSDP=6.75D-05 MaxDP=6.88D-04 DE=-6.19D-06 OVMax= 7.08D-04

 Cycle   6  Pass 1  IDiag  3:
 E= -2.34141099541623     Delta-E=       -0.000000806649 Rises=F Damp=F
 DIIS: error= 1.72D-05 at cycle   6 NSaved=   6.
 NSaved= 6 IEnMin= 6 EnMin= -2.34141099541623     IErMin= 6 ErrMin= 1.72D-05
 ErrMax= 1.72D-05  0.00D+00 EMaxC= 1.00D-01 BMatC= 1.08D-08 BMatP= 8.41D-08
 IDIUse=1 WtCom= 1.00D+00 WtEn= 0.00D+00
 Coeff-Com:  0.683D-02-0.258D-01 0.374D-01 0.153D+00-0.924D+00 0.175D+01
 Coeff:      0.683D-02-0.258D-01 0.374D-01 0.153D+00-0.924D+00 0.175D+01
 Gap=     0.383 Goal=   None    Shift=    0.000
 RMSDP=2.76D-05 MaxDP=2.62D-04 DE=-8.07D-07 OVMax= 2.87D-04

 Cycle   7  Pass 1  IDiag  3:
 E= -2.34141109924028     Delta-E=       -0.000000103824 Rises=F Damp=F
 DIIS: error= 3.07D-06 at cycle   7 NSaved=   7.
 NSaved= 7 IEnMin= 7 EnMin= -2.34141109924028     IErMin= 7 ErrMin= 3.07D-06
 ErrMax= 3.07D-06  0.00D+00 EMaxC= 1.00D-01 BMatC= 5.53D-10 BMatP= 1.08D-08
 IDIUse=1 WtCom= 1.00D+00 WtEn= 0.00D+00
 Coeff-Com: -0.340D-02 0.132D-01-0.232D-01-0.456D-01 0.392D+00-0.946D+00
 Coeff-Com:  0.161D+01
 Coeff:     -0.340D-02 0.132D-01-0.232D-01-0.456D-01 0.392D+00-0.946D+00
 Coeff:      0.161D+01
 Gap=     0.383 Goal=   None    Shift=    0.000
 RMSDP=5.44D-06 MaxDP=4.11D-05 DE=-1.04D-07 OVMax= 5.16D-05

 Cycle   8  Pass 1  IDiag  3:
 E= -2.34141110347206     Delta-E=       -0.000000004232 Rises=F Damp=F
 DIIS: error= 6.08D-07 at cycle   8 NSaved=   8.
 NSaved= 8 IEnMin= 8 EnMin= -2.34141110347206     IErMin= 8 ErrMin= 6.08D-07
 ErrMax= 6.08D-07  0.00D+00 EMaxC= 1.00D-01 BMatC= 2.11D-11 BMatP= 5.53D-10
 IDIUse=1 WtCom= 1.00D+00 WtEn= 0.00D+00
 Coeff-Com:  0.129D-02-0.504D-02 0.911D-02 0.166D-01-0.150D+00 0.382D+00
 Coeff-Com: -0.767D+00 0.151D+01
 Coeff:      0.129D-02-0.504D-02 0.911D-02 0.166D-01-0.150D+00 0.382D+00
 Coeff:     -0.767D+00 0.151D+01
 Gap=     0.383 Goal=   None    Shift=    0.000
 RMSDP=7.40D-07 MaxDP=3.75D-06 DE=-4.23D-09 OVMax= 6.03D-06

 Cycle   9  Pass 1  IDiag  3:
 E= -2.34141110360351     Delta-E=       -0.000000000131 Rises=F Damp=F
 DIIS: error= 1.63D-07 at cycle   9 NSaved=   9.
 NSaved= 9 IEnMin= 9 EnMin= -2.34141110360351     IErMin= 9 ErrMin= 1.63D-07
 ErrMax= 1.63D-07  0.00D+00 EMaxC= 1.00D-01 BMatC= 1.29D-12 BMatP= 2.11D-11
 IDIUse=1 WtCom= 1.00D+00 WtEn= 0.00D+00
 Coeff-Com: -0.494D-03 0.193D-02-0.346D-02-0.711D-02 0.612D-01-0.156D+00
 Coeff-Com:  0.320D+00-0.790D+00 0.157D+01
 Coeff:     -0.494D-03 0.193D-02-0.346D-02-0.711D-02 0.612D-01-0.156D+00
 Coeff:      0.320D+00-0.790D+00 0.157D+01
 Gap=     0.383 Goal=   None    Shift=    0.000
 RMSDP=2.07D-07 MaxDP=1.24D-06 DE=-1.31D-10 OVMax= 1.66D-06

 Cycle  10  Pass 1  IDiag  3:
 E= -2.34141110361246     Delta-E=       -0.000000000009 Rises=F Damp=F
 DIIS: error= 3.85D-08 at cycle  10 NSaved=  10.
 NSaved=10 IEnMin=10 EnMin= -2.34141110361246     IErMin=10 ErrMin= 3.85D-08
 ErrMax= 3.85D-08  0.00D+00 EMaxC= 1.00D-01 BMatC= 5.58D-14 BMatP= 1.29D-12
 IDIUse=1 WtCom= 1.00D+00 WtEn= 0.00D+00
 Coeff-Com:  0.156D-03-0.608D-03 0.107D-02 0.253D-02-0.204D-01 0.513D-01
 Coeff-Com: -0.103D+00 0.264D+00-0.654D+00 0.146D+01
 Coeff:      0.156D-03-0.608D-03 0.107D-02 0.253D-02-0.204D-01 0.513D-01
 Coeff:     -0.103D+00 0.264D+00-0.654D+00 0.146D+01
 Gap=     0.383 Goal=   None    Shift=    0.000
 RMSDP=4.10D-08 MaxDP=3.02D-07 DE=-8.95D-12 OVMax= 3.26D-07

 Cycle  11  Pass 1  IDiag  3:
 E= -2.34141110361256     Delta-E=        0.000000000000 Rises=F Damp=F
 DIIS: error= 9.66D-09 at cycle  11 NSaved=  11.
 NSaved=11 IEnMin=11 EnMin= -2.34141110361256     IErMin=11 ErrMin= 9.66D-09
 ErrMax= 9.66D-09  0.00D+00 EMaxC= 1.00D-01 BMatC= 3.82D-15 BMatP= 5.58D-14
 IDIUse=1 WtCom= 1.00D+00 WtEn= 0.00D+00
 Coeff-Com: -0.297D-04 0.115D-03-0.193D-03-0.570D-03 0.419D-02-0.101D-01
 Coeff-Com:  0.190D-01-0.464D-01 0.131D+00-0.506D+00 0.141D+01
 Coeff:     -0.297D-04 0.115D-03-0.193D-03-0.570D-03 0.419D-02-0.101D-01
 Coeff:      0.190D-01-0.464D-01 0.131D+00-0.506D+00 0.141D+01
 Gap=     0.383 Goal=   None    Shift=    0.000
 RMSDP=1.14D-08 MaxDP=8.18D-08 DE=-9.95D-14 OVMax= 8.97D-08

 Cycle  12  Pass 1  IDiag  3:
 E= -2.34141110361296     Delta-E=        0.000000000000 Rises=F Damp=F
 DIIS: error= 2.72D-09 at cycle  12 NSaved=  12.
 NSaved=12 IEnMin=12 EnMin= -2.34141110361296     IErMin=12 ErrMin= 2.72D-09
 ErrMax= 2.72D-09  0.00D+00 EMaxC= 1.00D-01 BMatC= 3.44D-16 BMatP= 3.82D-15
 IDIUse=1 WtCom= 1.00D+00 WtEn= 0.00D+00
 Coeff-Com:  0.291D-05-0.108D-04 0.122D-04 0.112D-03-0.605D-03 0.122D-02
 Coeff-Com: -0.162D-02 0.215D-02-0.113D-01 0.123D+00-0.659D+00 0.155D+01
 Coeff:      0.291D-05-0.108D-04 0.122D-04 0.112D-03-0.605D-03 0.122D-02
 Coeff:     -0.162D-02 0.215D-02-0.113D-01 0.123D+00-0.659D+00 0.155D+01
 Gap=     0.383 Goal=   None    Shift=    0.000
 RMSDP=3.90D-09 MaxDP=2.25D-08 DE=-3.98D-13 OVMax= 2.95D-08

 Cycle  13  Pass 2  IDiag  1:
 SCF Done:  E(RAM1) =  -2.34141110361     A.U. after   13 cycles
            NFock= 12  Conv=0.39D-08     -V/T= 0.8793
 KE=-1.939964859682D+01 PE=-1.708124731170D+02 EE= 8.535108756260D+01
 Leave Link  502 at Mon Nov 23 02:20:20 2015, MaxMem=    33554432 cpu:         0.0
 (Enter /home/Applications/g09/g09/l701.exe)
 Compute integral first derivatives.
 ... and contract with generalized density number  0.
 Leave Link  701 at Mon Nov 23 02:20:20 2015, MaxMem=    33554432 cpu:         0.0
 (Enter /home/Applications/g09/g09/l702.exe)
 L702 exits ... SP integral derivatives will be done elsewhere.
 Leave Link  702 at Mon Nov 23 02:20:20 2015, MaxMem=    33554432 cpu:         0.0
 (Enter /home/Applications/g09/g09/l703.exe)
 Compute integral first derivatives, UseDBF=F ICtDFT=           0.
 Integral derivatives from FoFJK, PRISM(SPDF).
 Calling FoFJK, ICntrl=      2127 FMM=F ISym2X=0 I1Cent= 0 IOpClX= 0 NMat=1 NMatS=1 NMatT=0.
 FoFJK:  IHMeth= 8 ICntrl=    2127 DoSepK=F KAlg= 0 I1Cent=   0 FoldK=F
 IRaf=         0 NMat=   1 IRICut=       1 DoRegI=T DoRafI=F ISym2E= 0.
 FoFCou: FMM=F IPFlag=           0 FMFlag=      100000 FMFlg1=         800
         NFxFlg=           0 DoJE=F BraDBF=F KetDBF=F FulRan=T
         wScrn=  0.000000 ICntrl=    2127 IOpCl=  0 I1Cent=           0 NGrid=           0
         NMat0=    1 NMatS0=      1 NMatT0=    0 NMatD0=    1 NMtDS0=    0 NMtDT0=    0
 Symmetry not used in FoFCou.
 Leave Link  703 at Mon Nov 23 02:20:20 2015, MaxMem=    33554432 cpu:         0.0
 (Enter /home/Applications/g09/g09/l716.exe)
 Dipole        =-2.43365902D-02-1.52717172D-01-4.02298859D-03
 ***** Axes restored to original set *****
 -------------------------------------------------------------------
 Center     Atomic                   Forces (Hartrees/Bohr)
 Number     Number              X              Y              Z
 -------------------------------------------------------------------
      1        6           0.014849883   -0.013305014   -0.000715556
      2        6          -0.017351993   -0.002232146    0.000509469
      3        8          -0.003254547   -0.013231772   -0.000625957
      4        6          -0.006758411    0.024351520   -0.001027801
      5        6           0.007316909    0.005931053    0.001950816
      6        1           0.004484693    0.004068787    0.000439419
      7        1          -0.001113211   -0.000992406   -0.000306095
      8        1          -0.000583157   -0.002491858    0.001394315
      9        1           0.002409834   -0.002098164   -0.001618611
 -------------------------------------------------------------------
 Cartesian Forces:  Max     0.024351520 RMS     0.007895621
 Leave Link  716 at Mon Nov 23 02:20:20 2015, MaxMem=    33554432 cpu:         0.0
 (Enter /home/Applications/g09/g09/l103.exe)

 GradGradGradGradGradGradGradGradGradGradGradGradGradGradGradGradGradGrad
 Berny optimization.
 Using GEDIIS/GDIIS optimizer.
 FormGI is forming the generalized inverse of G from B-inverse, IUseBI=4.
 Internal  Forces:  Max     0.018308791 RMS     0.005646054
 Search for a local minimum.
 Step number   2 out of a maximum of   48
 All quantities printed in internal units (Hartrees-Bohrs-Radians)
 RMS Force = .56461D-02 SwitMx=.10000D-02 MixMth= 1
 Mixed Optimization -- RFO/linear search
 Update second derivatives using D2CorX and points    1    2
 DE= -1.01D-02 DEPred=-1.26D-02 R= 8.05D-01
 TightC=F SS=  1.41D+00  RLast= 3.09D-01 DXNew= 5.0454D-01 9.2602D-01
 Trust test= 8.05D-01 RLast= 3.09D-01 DXMaxT set to 5.05D-01
 ITU=  1  0
 Use linear search instead of GDIIS.
     Eigenvalues ---    0.01245   0.01615   0.01791   0.02054   0.02163
     Eigenvalues ---    0.02303   0.15964   0.15992   0.15999   0.16117
     Eigenvalues ---    0.21504   0.22785   0.35302   0.36844   0.38442
     Eigenvalues ---    0.38970   0.40369   0.42248   0.44114   0.51357
     Eigenvalues ---    0.59316
 RFO step:  Lambda=-2.26108160D-03 EMin= 1.24522168D-02
 Quartic linear search produced a step of -0.12251.
 Iteration  1 RMS(Cart)=  0.02652084 RMS(Int)=  0.00036984
 Iteration  2 RMS(Cart)=  0.00039167 RMS(Int)=  0.00015811
 Iteration  3 RMS(Cart)=  0.00000011 RMS(Int)=  0.00015811
 ITry= 1 IFail=0 DXMaxC= 8.04D-02 DCOld= 1.00D+10 DXMaxT= 5.05D-01 DXLimC= 3.00D+00 Rises=F
 Variable       Old X    -DE/DX   Delta X   Delta X   Delta X     New X
                                 (Linear)    (Quad)   (Total)
    R1        2.57770   0.01620   0.00171   0.02392   0.02556   2.60326
    R2        2.69132   0.01831   0.01839   0.01388   0.03219   2.72351
    R3        2.02320   0.00313  -0.00229   0.01156   0.00927   2.03247
    R4        2.63918   0.00025   0.00596  -0.01179  -0.00579   2.63339
    R5        2.02000   0.00242  -0.00655   0.01784   0.01130   2.03130
    R6        2.58487   0.01500  -0.00848   0.03864   0.03025   2.61511
    R7        2.58622   0.01482   0.00906   0.01251   0.02159   2.60782
    R8        2.03217  -0.00043  -0.01086   0.02017   0.00932   2.04149
    R9        2.01337   0.00597  -0.00100   0.01552   0.01452   2.02789
    A1        1.86656  -0.00232  -0.00117  -0.00721  -0.00853   1.85803
    A2        2.24212   0.00085  -0.00334   0.00972   0.00664   2.24876
    A3        2.17409   0.00146   0.00379  -0.00201   0.00207   2.17616
    A4        1.92704   0.00035  -0.00119   0.00178   0.00057   1.92761
    A5        2.35275  -0.00080  -0.00079  -0.00187  -0.00244   2.35032
    A6        2.00289   0.00044   0.00120   0.00063   0.00205   2.00495
    A7        1.83232   0.00679   0.00496   0.01392   0.01886   1.85118
    A8        1.95305  -0.00540   0.00219  -0.02276  -0.02065   1.93239
    A9        2.03146   0.00125  -0.00489   0.01146   0.00653   2.03799
   A10        2.29867   0.00415   0.00268   0.01125   0.01389   2.31256
   A11        1.84512   0.00065  -0.00500   0.01548   0.01033   1.85546
   A12        2.17995   0.00051   0.00351  -0.00560  -0.00192   2.17803
   A13        2.25810  -0.00116   0.00123  -0.00989  -0.00851   2.24958
    D1       -0.03227   0.00147   0.01223   0.02098   0.03314   0.00087
    D2        3.07242   0.00119   0.00004   0.04062   0.04077   3.11319
    D3        3.07911   0.00088   0.00176   0.03924   0.04063   3.11974
    D4       -0.09939   0.00061  -0.01043   0.05887   0.04826  -0.05112
    D5        0.03465  -0.00161  -0.01113  -0.03247  -0.04378  -0.00913
    D6       -3.10222  -0.00077  -0.00371  -0.02962  -0.03343  -3.13565
    D7       -3.07821  -0.00105  -0.00058  -0.05008  -0.05099  -3.12920
    D8        0.06810  -0.00021   0.00685  -0.04724  -0.04063   0.02747
    D9        0.01677  -0.00068  -0.00860  -0.00066  -0.00907   0.00770
   D10       -3.09599  -0.00044   0.00105  -0.01594  -0.01496  -3.11095
   D11        0.00632  -0.00037   0.00102  -0.02134  -0.02011  -0.01379
   D12       -3.13233   0.00006   0.00300  -0.00521  -0.00223  -3.13457
   D13       -0.02550   0.00123   0.00621   0.03375   0.03984   0.01434
   D14        3.11109   0.00035  -0.00156   0.03075   0.02894   3.14003
   D15        3.11257   0.00071   0.00373   0.01438   0.01816   3.13072
   D16       -0.03404  -0.00017  -0.00405   0.01138   0.00726  -0.02677
         Item               Value     Threshold  Converged?
 Maximum Force            0.018309     0.000450     NO 
 RMS     Force            0.005646     0.000300     NO 
 Maximum Displacement     0.080391     0.001800     NO 
 RMS     Displacement     0.026562     0.001200     NO 
 Predicted change in Energy=-1.374225D-03
 Lowest energy point so far.  Saving SCF results.
 GradGradGradGradGradGradGradGradGradGradGradGradGradGradGradGradGradGrad

 Leave Link  103 at Mon Nov 23 02:20:20 2015, MaxMem=    33554432 cpu:         0.0
 (Enter /home/Applications/g09/g09/l202.exe)
                          Input orientation:                          
 ---------------------------------------------------------------------
 Center     Atomic      Atomic             Coordinates (Angstroms)
 Number     Number       Type             X           Y           Z
 ---------------------------------------------------------------------
      1          6           0        0.938393   -0.735594   -0.011932
      2          6           0       -0.384779   -1.117809    0.017640
      3          8           0       -1.214492    0.001637    0.036112
      4          6           0       -0.374757    1.101213    0.007059
      5          6           0        0.947193    0.705596   -0.011000
      6          1           0        1.831829    1.312536   -0.035737
      7          1           0       -0.845473    2.073452    0.022753
      8          1           0       -0.899054   -2.061656    0.006793
      9          1           0        1.819047   -1.353027   -0.013261
 ---------------------------------------------------------------------
                    Distance matrix (angstroms):
                    1          2          3          4          5
     1  C    0.000000
     2  C    1.377587   0.000000
     3  O    2.276122   1.393529   0.000000
     4  C    2.258005   2.219070   1.383859   0.000000
     5  C    1.441218   2.258268   2.273908   1.379997   0.000000
     6  H    2.234644   3.289798   3.317181   2.217096   1.073112
     7  H    3.327780   3.224347   2.104465   1.080310   2.255176
     8  H    2.266054   1.074916   2.087472   3.206030   3.326654
     9  H    1.075535   2.216558   3.322636   3.291881   2.235635
                    6          7          8          9
     6  H    0.000000
     7  H    2.783947   0.000000
     8  H    4.341048   4.135487   0.000000
     9  H    2.665688   4.340705   2.809026   0.000000
 Stoichiometry    C4H4O
 Framework group  C1[X(C4H4O)]
 Deg. of freedom    21
 Full point group                 C1      NOp   1
 RotChk:  IX=2 Diff= 4.68D-02
 Largest Abelian subgroup         C1      NOp   1
 Largest concise Abelian subgroup C1      NOp   1
                         Standard orientation:                         
 ---------------------------------------------------------------------
 Center     Atomic      Atomic             Coordinates (Angstroms)
 Number     Number       Type             X           Y           Z
 ---------------------------------------------------------------------
      1          6           0        0.736341    0.961062   -0.001743
      2          6           0        1.106266   -0.365925    0.000816
      3          8           0       -0.020825   -1.185421    0.004760
      4          6           0       -1.112580   -0.335110   -0.005626
      5          6           0       -0.704702    0.983211    0.001921
      6          1           0       -1.303417    1.873757   -0.004131
      7          1           0       -2.089134   -0.797004    0.002423
      8          1           0        2.045266   -0.888616   -0.021937
      9          1           0        1.361943    1.835802    0.013356
 ---------------------------------------------------------------------
 Rotational constants (GHZ):      9.3232776      8.9554766      4.5679609
 Leave Link  202 at Mon Nov 23 02:20:20 2015, MaxMem=    33554432 cpu:         0.0
 (Enter /home/Applications/g09/g09/l301.exe)

 Semi-emprical parameters in input format:
 Method=8 CoreType=1 PeptideFC=0.0125750000 RIJScale=0.5666730000
 ****
 H       
 PQN=1 NValence=1 F0ss=0.4322380000 ZetaOverlap=1.1880780000 U=-0.4188110000
 Beta=-0.2156480000 CoreKO=1.1385450000 KON=0,0,0,1.0589200000 KON=1,0,1,1.1290450000
 KON=0,1,1,1.1706660000 KON=2,1,1,1.0589200000 EISol=-0.4188110042 EHeat=0.0830298228
 Alpha=1.5252600000
 GCore=0.0084690000,1.3383940000,2.2676710000
 GCore=0.0003530000,1.3533660000,3.6667160000
 GCore=-0.0011710000,0.6115380000,4.3212930000
 ****
 C       
 PQN=2,2 NValence=4 F0ss=0.4466820000 F0sp=0.4066640000 F0pp=0.3768030000 F2pp=0.1898720000
 G1sp=0.2679030000
 ZetaOverlap=1.8086650000,1.7840750000
 U=-1.9120180000,-1.5956620000
 Beta=-0.5629500000,-0.3031680000 DDN=0,1,0.7632320000 DDN=1,1,0.7847580000
 CoreKO=1.1124280000 KON=0,0,0,1.0889370000 KON=1,0,1,0.8219700000 KON=0,1,1,0.9893020000
 KON=2,1,1,0.7783930000 EISol=-4.4398989268 EHeat=0.2723305520 Alpha=1.3702060000
 DipHyp=1.5263761812
 GCore=0.0008320000,1.4654240000,2.8806590000
 GCore=0.0027890000,1.3245690000,3.2438410000
 GCore=-0.0012930000,1.2846020000,4.0922960000
 GCore=-0.0000880000,1.4958780000,4.9512050000
 ****
 O       
 PQN=2,2 NValence=6 F0ss=0.5666750000 F0sp=0.5060470000 F0pp=0.4958710000 F2pp=0.2150590000
 G1sp=0.4181060000
 ZetaOverlap=3.3086090000,2.5960610000
 U=-3.8586440000,-2.8743270000
 Beta=-1.1627760000,-1.1056560000 DDN=0,1,0.4676820000 DDN=1,1,0.4852320000
 CoreKO=1.0326690000 KON=0,0,0,0.8822960000 KON=1,0,1,0.5019540000 KON=0,1,1,0.8822960000
 KON=2,1,1,0.5406950000 EISol=-11.6164441184 EHeat=0.0949133088 Alpha=2.2592050000
 DipHyp=0.9353101877
 GCore=0.0202690000,1.4001430000,1.6127490000
 GCore=0.0056550000,2.0844870000,2.7600040000
 ****
 
 Standard basis: VSTO-6G (5D, 7F)
 Ernie: Thresh=  0.10000D-02 Tol=  0.10000D-05 Strict=F.
  NNHCO=     0 NNPyr=     0 NCTC=     0               EPep=         0.000000000
    EC=        67.339529376  ECS=         1.852837426   EG=         0.357901036
   EHC=         0.000000000  EAt=       -31.051283842  AtH=         1.516354808
 EPDDG=         0.000000000  ECC=        69.550267838 EAtT=        32.567638650
 There are    24 symmetry adapted cartesian basis functions of A   symmetry.
 There are    24 symmetry adapted basis functions of A   symmetry.
    24 basis functions,   144 primitive gaussians,    24 cartesian basis functions
    13 alpha electrons       13 beta electrons
       nuclear repulsion energy       102.1179064883 Hartrees.
 IExCor=    0 DFT=F Ex=HF Corr=None ExCW=0 ScaHFX=  1.000000
 ScaDFX=  1.000000  1.000000  1.000000  1.000000 ScalE2=  1.000000  1.000000
 IRadAn=      0 IRanWt=     -1 IRanGd=            0 ICorTp=0 IEmpDi=  4
 Integral buffers will be    131072 words long.
 Regular integral format.
 Two-electron integral symmetry is turned off.
 Leave Link  301 at Mon Nov 23 02:20:20 2015, MaxMem=    33554432 cpu:         0.0
 (Enter /home/Applications/g09/g09/l302.exe)
 Do NDO integrals.
 NPDir=0 NMtPBC=     1 NCelOv=     1 NCel=       1 NClECP=     1 NCelD=      1
         NCelK=      1 NCelE2=     1 NClLst=     1 CellRange=     0.0.
 One-electron integrals computed using PRISM.
 NBasis=    24 RedAO= F EigKep=  0.00D+00  NBF=    24
 NBsUse=    24 1.00D-04 EigRej=  0.00D+00 NBFU=    24
 Leave Link  302 at Mon Nov 23 02:20:20 2015, MaxMem=    33554432 cpu:         0.0
 (Enter /home/Applications/g09/g09/l303.exe)
 DipDrv:  MaxL=1.
 Leave Link  303 at Mon Nov 23 02:20:21 2015, MaxMem=    33554432 cpu:         0.0
 (Enter /home/Applications/g09/g09/l401.exe)
 Initial guess from the checkpoint file:  "/home/Applications/g09/scratch/Gau-2437.chk"
 B after Tr=     0.000000    0.000000    0.000000
         Rot=    0.999865    0.000025   -0.000020    0.016413 Ang=   1.88 deg.
 Guess basis will be translated and rotated to current coordinates.
 JPrj=0 DoOrth=T DoCkMO=T.
 Leave Link  401 at Mon Nov 23 02:20:21 2015, MaxMem=    33554432 cpu:         0.0
 (Enter /home/Applications/g09/g09/l502.exe)
 Closed shell SCF:
 Using DIIS extrapolation, IDIIS=  1040.
 Overlap will be assumed to be unity.
 Two-electron integral symmetry not used.
 Keep J ints in memory in canonical form, NReq=888082.
 IVT=       79475 IEndB=       79475 NGot=    33554432 MDV=    33473473
 LenX=    33473473 LenY=    33472456
 Requested convergence on RMS density matrix=1.00D-08 within 128 cycles.
 Requested convergence on MAX density matrix=1.00D-06.
 Requested convergence on             energy=1.00D-06.
 No special actions if energy rises.
 FoFCou: FMM=F IPFlag=           0 FMFlag=           0 FMFlg1=           0
         NFxFlg=           0 DoJE=F BraDBF=F KetDBF=F FulRan=T
         wScrn=  0.000000 ICntrl=     600 IOpCl=  2 I1Cent=           0 NGrid=           0
         NMat0=    1 NMatS0=     54 NMatT0=    0 NMatD0=    1 NMtDS0=    0 NMtDT0=    0
 Symmetry not used in FoFCou.

 Cycle   1  Pass 1  IDiag  1:
 E= -2.34132415177122    
 DIIS: error= 2.09D-03 at cycle   1 NSaved=   1.
 NSaved= 1 IEnMin= 1 EnMin= -2.34132415177122     IErMin= 1 ErrMin= 2.09D-03
 ErrMax= 2.09D-03  0.00D+00 EMaxC= 1.00D-01 BMatC= 2.54D-04 BMatP= 2.54D-04
 IDIUse=3 WtCom= 9.79D-01 WtEn= 2.09D-02
 Coeff-Com:  0.100D+01
 Coeff-En:   0.100D+01
 Coeff:      0.100D+01
 GapD=    2.000 DampG=2.000 DampE=1.000 DampFc=2.0000 IDamp=-1.
 RMSDP=1.20D-03 MaxDP=6.16D-03              OVMax= 0.00D+00

 Cycle   2  Pass 1  IDiag  3:
 E= -2.34217557489828     Delta-E=       -0.000851423127 Rises=F Damp=F
 DIIS: error= 9.69D-04 at cycle   2 NSaved=   2.
 NSaved= 2 IEnMin= 2 EnMin= -2.34217557489828     IErMin= 2 ErrMin= 9.69D-04
 ErrMax= 9.69D-04  0.00D+00 EMaxC= 1.00D-01 BMatC= 3.70D-05 BMatP= 2.54D-04
 IDIUse=3 WtCom= 9.90D-01 WtEn= 9.69D-03
 Coeff-Com: -0.493D+00 0.149D+01
 Coeff-En:   0.000D+00 0.100D+01
 Coeff:     -0.488D+00 0.149D+01
 Gap=     0.380 Goal=   None    Shift=    0.000
 RMSDP=8.14D-04 MaxDP=4.58D-03 DE=-8.51D-04 OVMax= 5.62D-03

 Cycle   3  Pass 1  IDiag  3:
 E= -2.34237171189544     Delta-E=       -0.000196136997 Rises=F Damp=F
 DIIS: error= 2.22D-04 at cycle   3 NSaved=   3.
 NSaved= 3 IEnMin= 3 EnMin= -2.34237171189544     IErMin= 3 ErrMin= 2.22D-04
 ErrMax= 2.22D-04  0.00D+00 EMaxC= 1.00D-01 BMatC= 1.93D-06 BMatP= 3.70D-05
 IDIUse=3 WtCom= 9.98D-01 WtEn= 2.22D-03
 Coeff-Com:  0.216D+00-0.796D+00 0.158D+01
 Coeff-En:   0.000D+00 0.000D+00 0.100D+01
 Coeff:      0.216D+00-0.794D+00 0.158D+01
 Gap=     0.380 Goal=   None    Shift=    0.000
 RMSDP=2.65D-04 MaxDP=1.48D-03 DE=-1.96D-04 OVMax= 2.17D-03

 Cycle   4  Pass 1  IDiag  3:
 E= -2.34238553160658     Delta-E=       -0.000013819711 Rises=F Damp=F
 DIIS: error= 4.14D-05 at cycle   4 NSaved=   4.
 NSaved= 4 IEnMin= 4 EnMin= -2.34238553160658     IErMin= 4 ErrMin= 4.14D-05
 ErrMax= 4.14D-05  0.00D+00 EMaxC= 1.00D-01 BMatC= 6.77D-08 BMatP= 1.93D-06
 IDIUse=1 WtCom= 1.00D+00 WtEn= 0.00D+00
 Coeff-Com: -0.744D-01 0.288D+00-0.686D+00 0.147D+01
 Coeff:     -0.744D-01 0.288D+00-0.686D+00 0.147D+01
 Gap=     0.380 Goal=   None    Shift=    0.000
 RMSDP=5.23D-05 MaxDP=4.01D-04 DE=-1.38D-05 OVMax= 4.99D-04

 Cycle   5  Pass 1  IDiag  3:
 E= -2.34238607891929     Delta-E=       -0.000000547313 Rises=F Damp=F
 DIIS: error= 1.46D-05 at cycle   5 NSaved=   5.
 NSaved= 5 IEnMin= 5 EnMin= -2.34238607891929     IErMin= 5 ErrMin= 1.46D-05
 ErrMax= 1.46D-05  0.00D+00 EMaxC= 1.00D-01 BMatC= 6.72D-09 BMatP= 6.77D-08
 IDIUse=1 WtCom= 1.00D+00 WtEn= 0.00D+00
 Coeff-Com:  0.250D-01-0.975D-01 0.249D+00-0.738D+00 0.156D+01
 Coeff:      0.250D-01-0.975D-01 0.249D+00-0.738D+00 0.156D+01
 Gap=     0.380 Goal=   None    Shift=    0.000
 RMSDP=1.84D-05 MaxDP=1.68D-04 DE=-5.47D-07 OVMax= 2.10D-04

 Cycle   6  Pass 1  IDiag  3:
 E= -2.34238614206669     Delta-E=       -0.000000063147 Rises=F Damp=F
 DIIS: error= 5.07D-06 at cycle   6 NSaved=   6.
 NSaved= 6 IEnMin= 6 EnMin= -2.34238614206669     IErMin= 6 ErrMin= 5.07D-06
 ErrMax= 5.07D-06  0.00D+00 EMaxC= 1.00D-01 BMatC= 7.91D-10 BMatP= 6.72D-09
 IDIUse=1 WtCom= 1.00D+00 WtEn= 0.00D+00
 Coeff-Com:  0.129D-02-0.401D-02 0.518D-04 0.939D-01-0.621D+00 0.153D+01
 Coeff:      0.129D-02-0.401D-02 0.518D-04 0.939D-01-0.621D+00 0.153D+01
 Gap=     0.380 Goal=   None    Shift=    0.000
 RMSDP=7.38D-06 MaxDP=7.19D-05 DE=-6.31D-08 OVMax= 8.96D-05

 Cycle   7  Pass 1  IDiag  3:
 E= -2.34238614989171     Delta-E=       -0.000000007825 Rises=F Damp=F
 DIIS: error= 1.14D-06 at cycle   7 NSaved=   7.
 NSaved= 7 IEnMin= 7 EnMin= -2.34238614989171     IErMin= 7 ErrMin= 1.14D-06
 ErrMax= 1.14D-06  0.00D+00 EMaxC= 1.00D-01 BMatC= 5.79D-11 BMatP= 7.91D-10
 IDIUse=1 WtCom= 1.00D+00 WtEn= 0.00D+00
 Coeff-Com: -0.195D-02 0.728D-02-0.152D-01 0.115D-01 0.141D+00-0.651D+00
 Coeff-Com:  0.151D+01
 Coeff:     -0.195D-02 0.728D-02-0.152D-01 0.115D-01 0.141D+00-0.651D+00
 Coeff:      0.151D+01
 Gap=     0.380 Goal=   None    Shift=    0.000
 RMSDP=1.85D-06 MaxDP=1.66D-05 DE=-7.83D-09 OVMax= 2.15D-05

 Cycle   8  Pass 1  IDiag  3:
 E= -2.34238615039304     Delta-E=       -0.000000000501 Rises=F Damp=F
 DIIS: error= 2.18D-07 at cycle   8 NSaved=   8.
 NSaved= 8 IEnMin= 8 EnMin= -2.34238615039304     IErMin= 8 ErrMin= 2.18D-07
 ErrMax= 2.18D-07  0.00D+00 EMaxC= 1.00D-01 BMatC= 3.91D-12 BMatP= 5.79D-11
 IDIUse=1 WtCom= 1.00D+00 WtEn= 0.00D+00
 Coeff-Com:  0.880D-03-0.335D-02 0.774D-02-0.141D-01-0.123D-01 0.178D+00
 Coeff-Com: -0.685D+00 0.153D+01
 Coeff:      0.880D-03-0.335D-02 0.774D-02-0.141D-01-0.123D-01 0.178D+00
 Coeff:     -0.685D+00 0.153D+01
 Gap=     0.380 Goal=   None    Shift=    0.000
 RMSDP=4.08D-07 MaxDP=2.42D-06 DE=-5.01D-10 OVMax= 3.35D-06

 Cycle   9  Pass 1  IDiag  3:
 E= -2.34238615042243     Delta-E=       -0.000000000029 Rises=F Damp=F
 DIIS: error= 3.99D-08 at cycle   9 NSaved=   9.
 NSaved= 9 IEnMin= 9 EnMin= -2.34238615042243     IErMin= 9 ErrMin= 3.99D-08
 ErrMax= 3.99D-08  0.00D+00 EMaxC= 1.00D-01 BMatC= 1.39D-13 BMatP= 3.91D-12
 IDIUse=1 WtCom= 1.00D+00 WtEn= 0.00D+00
 Coeff-Com: -0.292D-03 0.112D-02-0.266D-02 0.542D-02-0.166D-05-0.510D-01
 Coeff-Com:  0.232D+00-0.661D+00 0.148D+01
 Coeff:     -0.292D-03 0.112D-02-0.266D-02 0.542D-02-0.166D-05-0.510D-01
 Coeff:      0.232D+00-0.661D+00 0.148D+01
 Gap=     0.380 Goal=   None    Shift=    0.000
 RMSDP=7.38D-08 MaxDP=4.58D-07 DE=-2.94D-11 OVMax= 5.50D-07

 Cycle  10  Pass 1  IDiag  3:
 E= -2.34238615042345     Delta-E=       -0.000000000001 Rises=F Damp=F
 DIIS: error= 1.28D-08 at cycle  10 NSaved=  10.
 NSaved=10 IEnMin=10 EnMin= -2.34238615042345     IErMin=10 ErrMin= 1.28D-08
 ErrMax= 1.28D-08  0.00D+00 EMaxC= 1.00D-01 BMatC= 5.88D-15 BMatP= 1.39D-13
 IDIUse=1 WtCom= 1.00D+00 WtEn= 0.00D+00
 Coeff-Com:  0.131D-03-0.504D-03 0.121D-02-0.260D-02 0.100D-02 0.203D-01
 Coeff-Com: -0.101D+00 0.306D+00-0.789D+00 0.156D+01
 Coeff:      0.131D-03-0.504D-03 0.121D-02-0.260D-02 0.100D-02 0.203D-01
 Coeff:     -0.101D+00 0.306D+00-0.789D+00 0.156D+01
 Gap=     0.380 Goal=   None    Shift=    0.000
 RMSDP=1.50D-08 MaxDP=1.03D-07 DE=-1.02D-12 OVMax= 1.43D-07

 Cycle  11  Pass 1  IDiag  3:
 E= -2.34238615042345     Delta-E=        0.000000000000 Rises=F Damp=F
 DIIS: error= 5.06D-09 at cycle  11 NSaved=  11.
 NSaved=11 IEnMin=10 EnMin= -2.34238615042345     IErMin=11 ErrMin= 5.06D-09
 ErrMax= 5.06D-09  0.00D+00 EMaxC= 1.00D-01 BMatC= 5.60D-16 BMatP= 5.88D-15
 IDIUse=1 WtCom= 1.00D+00 WtEn= 0.00D+00
 Coeff-Com: -0.765D-04 0.294D-03-0.700D-03 0.148D-02-0.383D-03-0.124D-01
 Coeff-Com:  0.601D-01-0.180D+00 0.467D+00-0.109D+01 0.176D+01
 Coeff:     -0.765D-04 0.294D-03-0.700D-03 0.148D-02-0.383D-03-0.124D-01
 Coeff:      0.601D-01-0.180D+00 0.467D+00-0.109D+01 0.176D+01
 Gap=     0.380 Goal=   None    Shift=    0.000
 RMSDP=6.11D-09 MaxDP=4.86D-08 DE= 0.00D+00 OVMax= 7.15D-08

 Cycle  12  Pass 2  IDiag  1:
 SCF Done:  E(RAM1) =  -2.34238615042     A.U. after   12 cycles
            NFock= 11  Conv=0.61D-08     -V/T= 0.8789
 KE=-1.934302435703D+01 PE=-1.701548899156D+02 EE= 8.503762163393D+01
 Leave Link  502 at Mon Nov 23 02:20:21 2015, MaxMem=    33554432 cpu:         0.0
 (Enter /home/Applications/g09/g09/l701.exe)
 Compute integral first derivatives.
 ... and contract with generalized density number  0.
 Leave Link  701 at Mon Nov 23 02:20:21 2015, MaxMem=    33554432 cpu:         0.0
 (Enter /home/Applications/g09/g09/l702.exe)
 L702 exits ... SP integral derivatives will be done elsewhere.
 Leave Link  702 at Mon Nov 23 02:20:21 2015, MaxMem=    33554432 cpu:         0.0
 (Enter /home/Applications/g09/g09/l703.exe)
 Compute integral first derivatives, UseDBF=F ICtDFT=           0.
 Integral derivatives from FoFJK, PRISM(SPDF).
 Calling FoFJK, ICntrl=      2127 FMM=F ISym2X=0 I1Cent= 0 IOpClX= 0 NMat=1 NMatS=1 NMatT=0.
 FoFJK:  IHMeth= 8 ICntrl=    2127 DoSepK=F KAlg= 0 I1Cent=   0 FoldK=F
 IRaf=         0 NMat=   1 IRICut=       1 DoRegI=T DoRafI=F ISym2E= 0.
 FoFCou: FMM=F IPFlag=           0 FMFlag=      100000 FMFlg1=         800
         NFxFlg=           0 DoJE=F BraDBF=F KetDBF=F FulRan=T
         wScrn=  0.000000 ICntrl=    2127 IOpCl=  0 I1Cent=           0 NGrid=           0
         NMat0=    1 NMatS0=      1 NMatT0=    0 NMatD0=    1 NMtDS0=    0 NMtDT0=    0
 Symmetry not used in FoFCou.
 Leave Link  703 at Mon Nov 23 02:20:21 2015, MaxMem=    33554432 cpu:         0.0
 (Enter /home/Applications/g09/g09/l716.exe)
 Dipole        =-1.96769107D-02-1.49137376D-01-2.68967793D-03
 ***** Axes restored to original set *****
 -------------------------------------------------------------------
 Center     Atomic                   Forces (Hartrees/Bohr)
 Number     Number              X              Y              Z
 -------------------------------------------------------------------
      1        6          -0.002171239    0.000833407    0.002329014
      2        6          -0.000567704    0.008092461   -0.001551047
      3        8           0.002450943   -0.002546168   -0.001327424
      4        6           0.004170986   -0.000363513    0.002739118
      5        6          -0.004060192   -0.002376961   -0.002199381
      6        1          -0.000696047   -0.000166568    0.000358136
      7        1           0.000978643   -0.006221048   -0.000540016
      8        1           0.001837071    0.001721418    0.000913137
      9        1          -0.001942461    0.001026972   -0.000721537
 -------------------------------------------------------------------
 Cartesian Forces:  Max     0.008092461 RMS     0.002710865
 Leave Link  716 at Mon Nov 23 02:20:21 2015, MaxMem=    33554432 cpu:         0.0
 (Enter /home/Applications/g09/g09/l103.exe)

 GradGradGradGradGradGradGradGradGradGradGradGradGradGradGradGradGradGrad
 Berny optimization.
 Using GEDIIS/GDIIS optimizer.
 FormGI is forming the generalized inverse of G from B-inverse, IUseBI=4.
 Internal  Forces:  Max     0.006999402 RMS     0.002376002
 Search for a local minimum.
 Step number   3 out of a maximum of   48
 All quantities printed in internal units (Hartrees-Bohrs-Radians)
 RMS Force = .23760D-02 SwitMx=.10000D-02 MixMth= 1
 Mixed Optimization -- RFO/linear search
 Update second derivatives using D2CorX and points    1    2    3
 DE= -9.75D-04 DEPred=-1.37D-03 R= 7.10D-01
 TightC=F SS=  1.41D+00  RLast= 1.50D-01 DXNew= 8.4853D-01 4.4996D-01
 Trust test= 7.10D-01 RLast= 1.50D-01 DXMaxT set to 5.05D-01
 ITU=  1  1  0
 Use linear search instead of GDIIS.
     Eigenvalues ---    0.01224   0.01632   0.01863   0.01960   0.02160
     Eigenvalues ---    0.02262   0.15759   0.15994   0.16003   0.16206
     Eigenvalues ---    0.21055   0.23732   0.34427   0.35809   0.38457
     Eigenvalues ---    0.39001   0.41235   0.43761   0.45995   0.50816
     Eigenvalues ---    0.75004
 RFO step:  Lambda=-3.11943672D-04 EMin= 1.22429830D-02
[...]
 Coeff-Com:  0.154D-02-0.519D-02 0.113D-01-0.147D-01-0.411D-01 0.304D+00
 Coeff-Com: -0.929D+00 0.167D+01
 Coeff:      0.154D-02-0.519D-02 0.113D-01-0.147D-01-0.411D-01 0.304D+00
 Coeff:     -0.929D+00 0.167D+01
 Gap=     0.381 Goal=   None    Shift=    0.000
 RMSDP=1.96D-08 MaxDP=1.77D-07 DE=-9.81D-13 OVMax= 1.69D-07

 Cycle   9  Pass 1  IDiag  3:
 E= -2.34267403194404     Delta-E=        0.000000000000 Rises=F Damp=F
 DIIS: error= 4.11D-09 at cycle   9 NSaved=   9.
 NSaved= 9 IEnMin= 9 EnMin= -2.34267403194404     IErMin= 9 ErrMin= 4.11D-09
 ErrMax= 4.11D-09  0.00D+00 EMaxC= 1.00D-01 BMatC= 5.79D-16 BMatP= 7.01D-15
 IDIUse=1 WtCom= 1.00D+00 WtEn= 0.00D+00
 Coeff-Com: -0.837D-03 0.283D-02-0.619D-02 0.891D-02 0.142D-01-0.138D+00
 Coeff-Com:  0.464D+00-0.106D+01 0.171D+01
 Coeff:     -0.837D-03 0.283D-02-0.619D-02 0.891D-02 0.142D-01-0.138D+00
 Coeff:      0.464D+00-0.106D+01 0.171D+01
 Gap=     0.381 Goal=   None    Shift=    0.000
 RMSDP=6.32D-09 MaxDP=5.83D-08 DE=-7.11D-14 OVMax= 5.55D-08

 Cycle  10  Pass 2  IDiag  1:
 SCF Done:  E(RAM1) =  -2.34267403194     A.U. after   10 cycles
            NFock=  9  Conv=0.63D-08     -V/T= 0.8790
 KE=-1.936351627837D+01 PE=-1.703672184341D+02 EE= 8.513608292893D+01
 Leave Link  502 at Mon Nov 23 02:20:21 2015, MaxMem=    33554432 cpu:         0.0
 (Enter /home/Applications/g09/g09/l701.exe)
 Compute integral first derivatives.
 ... and contract with generalized density number  0.
 Leave Link  701 at Mon Nov 23 02:20:21 2015, MaxMem=    33554432 cpu:         0.0
 (Enter /home/Applications/g09/g09/l702.exe)
 L702 exits ... SP integral derivatives will be done elsewhere.
 Leave Link  702 at Mon Nov 23 02:20:21 2015, MaxMem=    33554432 cpu:         0.0
 (Enter /home/Applications/g09/g09/l703.exe)
 Compute integral first derivatives, UseDBF=F ICtDFT=           0.
 Integral derivatives from FoFJK, PRISM(SPDF).
 Calling FoFJK, ICntrl=      2127 FMM=F ISym2X=0 I1Cent= 0 IOpClX= 0 NMat=1 NMatS=1 NMatT=0.
 FoFJK:  IHMeth= 8 ICntrl=    2127 DoSepK=F KAlg= 0 I1Cent=   0 FoldK=F
 IRaf=         0 NMat=   1 IRICut=       1 DoRegI=T DoRafI=F ISym2E= 0.
 FoFCou: FMM=F IPFlag=           0 FMFlag=      100000 FMFlg1=         800
         NFxFlg=           0 DoJE=F BraDBF=F KetDBF=F FulRan=T
         wScrn=  0.000000 ICntrl=    2127 IOpCl=  0 I1Cent=           0 NGrid=           0
         NMat0=    1 NMatS0=      1 NMatT0=    0 NMatD0=    1 NMtDS0=    0 NMtDT0=    0
 Symmetry not used in FoFCou.
 Leave Link  703 at Mon Nov 23 02:20:21 2015, MaxMem=    33554432 cpu:         0.0
 (Enter /home/Applications/g09/g09/l716.exe)
 Dipole        = 6.64801897D-05-1.57559483D-01 4.58848996D-05
 ***** Axes restored to original set *****
 -------------------------------------------------------------------
 Center     Atomic                   Forces (Hartrees/Bohr)
 Number     Number              X              Y              Z
 -------------------------------------------------------------------
      1        6          -0.000010228    0.000040521   -0.000014836
      2        6          -0.000073443    0.000005774    0.000024397
      3        8           0.000159688    0.000004661   -0.000014352
      4        6           0.000057575   -0.000001892    0.000007659
      5        6          -0.000113826   -0.000036787   -0.000000104
      6        1          -0.000007503   -0.000004534   -0.000003673
      7        1          -0.000025284    0.000013389    0.000002237
      8        1           0.000030043   -0.000012736   -0.000009612
      9        1          -0.000017022   -0.000008397    0.000008284
 -------------------------------------------------------------------
 Cartesian Forces:  Max     0.000159688 RMS     0.000044681
 Leave Link  716 at Mon Nov 23 02:20:21 2015, MaxMem=    33554432 cpu:         0.0
 (Enter /home/Applications/g09/g09/l103.exe)

 GradGradGradGradGradGradGradGradGradGradGradGradGradGradGradGradGradGrad
 Berny optimization.
 Using GEDIIS/GDIIS optimizer.
 FormGI is forming the generalized inverse of G from B-inverse, IUseBI=4.
 Internal  Forces:  Max     0.000090381 RMS     0.000030030
 Search for a local minimum.
 Step number   8 out of a maximum of   48
 All quantities printed in internal units (Hartrees-Bohrs-Radians)
 RMS Force = .30030D-04 SwitMx=.10000D-02 MixMth= 2
 Mixed Optimization -- En-DIIS/RFO-DIIS
 Swapping is turned off.
 Update second derivatives using D2CorX and points    1    2    3    4    5
                                                      6    7    8
 DE= -8.52D-07 DEPred=-9.36D-07 R= 9.11D-01
 Trust test= 9.11D-01 RLast= 6.54D-03 DXMaxT set to 2.52D-01
 ITU=  0  1  1 -1  1  1  1  0
     Eigenvalues ---    0.01164   0.01641   0.01773   0.02151   0.04874
     Eigenvalues ---    0.05704   0.10574   0.15712   0.16018   0.16115
     Eigenvalues ---    0.21155   0.27040   0.35776   0.37463   0.38398
     Eigenvalues ---    0.38579   0.41610   0.42889   0.43975   0.51467
     Eigenvalues ---    0.80435
 En-DIIS/RFO-DIIS IScMMF=        0 using points:     8    7    6    5    4
 RFO step:  Lambda=-5.99594557D-08.
 NNeg= 0 NP= 5 Switch=  2.50D-03 Rises=F DC=  5.32D-06 SmlDif=  1.00D-05
 RMS Error=  0.5533296022D-04 NUsed= 5 EDIIS=F
 DidBck=F Rises=F RFO-DIIS coefs:    0.95295    0.04846    0.00748   -0.00181   -0.00707
 Iteration  1 RMS(Cart)=  0.00013251 RMS(Int)=  0.00000021
 Iteration  2 RMS(Cart)=  0.00000002 RMS(Int)=  0.00000021
 ITry= 1 IFail=0 DXMaxC= 3.77D-04 DCOld= 1.00D+10 DXMaxT= 2.52D-01 DXLimC= 3.00D+00 Rises=F
 Variable       Old X    -DE/DX   Delta X   Delta X   Delta X     New X
                                 (Linear)    (Quad)   (Total)
    R1        2.60041  -0.00004   0.00001  -0.00006  -0.00005   2.60036
    R2        2.71741  -0.00002  -0.00002   0.00001  -0.00001   2.71740
    R3        2.02706  -0.00001  -0.00004   0.00005   0.00001   2.02707
    R4        2.61732  -0.00006  -0.00003  -0.00010  -0.00013   2.61719
    R5        2.02675   0.00000   0.00000  -0.00003  -0.00002   2.02672
    R6        2.61718  -0.00005   0.00005  -0.00014  -0.00009   2.61709
    R7        2.60057  -0.00009  -0.00002  -0.00015  -0.00017   2.60040
    R8        2.02667   0.00002  -0.00007   0.00017   0.00010   2.02677
    R9        2.02704  -0.00001  -0.00002   0.00002   0.00000   2.02704
    A1        1.85472   0.00000   0.00000   0.00003   0.00003   1.85475
    A2        2.24699  -0.00002  -0.00001  -0.00014  -0.00014   2.24685
    A3        2.18148   0.00002   0.00001   0.00010   0.00012   2.18159
    A4        1.93471  -0.00005  -0.00001  -0.00019  -0.00019   1.93452
    A5        2.33292  -0.00001  -0.00008  -0.00007  -0.00015   2.33276
    A6        2.01556   0.00006   0.00009   0.00026   0.00035   2.01590
    A7        1.84599   0.00007   0.00002   0.00025   0.00026   1.84625
    A8        1.93475  -0.00005  -0.00004  -0.00016  -0.00019   1.93456
    A9        2.01616   0.00001  -0.00008   0.00002  -0.00006   2.01610
   A10        2.33228   0.00004   0.00011   0.00014   0.00025   2.33253
   A11        1.85461   0.00003   0.00003   0.00007   0.00010   1.85471
   A12        2.18174  -0.00001   0.00000  -0.00005  -0.00005   2.18170
   A13        2.24683  -0.00001  -0.00003  -0.00002  -0.00005   2.24678
    D1       -0.00002   0.00000   0.00005  -0.00001   0.00005   0.00003
    D2       -3.14127  -0.00001   0.00020  -0.00040  -0.00020  -3.14147
    D3       -3.14139   0.00000   0.00016  -0.00027  -0.00011  -3.14150
    D4        0.00054  -0.00001   0.00031  -0.00066  -0.00036   0.00019
    D5       -0.00005   0.00000  -0.00003   0.00004   0.00001  -0.00004
    D6        3.14148   0.00000  -0.00006   0.00012   0.00006   3.14154
    D7        3.14133   0.00000  -0.00013   0.00029   0.00016   3.14149
    D8       -0.00032   0.00000  -0.00017   0.00038   0.00021  -0.00011
    D9        0.00008   0.00000  -0.00005  -0.00003  -0.00008   0.00000
   D10        3.14140   0.00000  -0.00017   0.00028   0.00011   3.14151
   D11       -0.00012   0.00001   0.00004   0.00006   0.00009  -0.00003
   D12        3.14148   0.00000  -0.00004   0.00013   0.00008   3.14156
   D13        0.00011   0.00000   0.00000  -0.00006  -0.00007   0.00004
   D14       -3.14142   0.00000   0.00003  -0.00015  -0.00012  -3.14154
   D15       -3.14149   0.00000   0.00009  -0.00015  -0.00005  -3.14154
   D16        0.00017   0.00000   0.00013  -0.00023  -0.00010   0.00007
         Item               Value     Threshold  Converged?
 Maximum Force            0.000090     0.000450     YES
 RMS     Force            0.000030     0.000300     YES
 Maximum Displacement     0.000377     0.001800     YES
 RMS     Displacement     0.000133     0.001200     YES
 Predicted change in Energy=-5.816669D-08
 Optimization completed.
    -- Stationary point found.
                           ----------------------------
                           !   Optimized Parameters   !
                           ! (Angstroms and Degrees)  !
 --------------------------                            --------------------------
 ! Name  Definition              Value          Derivative Info.                !
 --------------------------------------------------------------------------------
 ! R1    R(1,2)                  1.3761         -DE/DX =    0.0                 !
 ! R2    R(1,5)                  1.438          -DE/DX =    0.0                 !
 ! R3    R(1,9)                  1.0727         -DE/DX =    0.0                 !
 ! R4    R(2,3)                  1.385          -DE/DX =   -0.0001              !
 ! R5    R(2,8)                  1.0725         -DE/DX =    0.0                 !
 ! R6    R(3,4)                  1.385          -DE/DX =   -0.0001              !
 ! R7    R(4,5)                  1.3762         -DE/DX =   -0.0001              !
 ! R8    R(4,7)                  1.0725         -DE/DX =    0.0                 !
 ! R9    R(5,6)                  1.0727         -DE/DX =    0.0                 !
 ! A1    A(2,1,5)              106.2675         -DE/DX =    0.0                 !
 ! A2    A(2,1,9)              128.7432         -DE/DX =    0.0                 !
 ! A3    A(5,1,9)              124.9893         -DE/DX =    0.0                 !
 ! A4    A(1,2,3)              110.8509         -DE/DX =   -0.0001              !
 ! A5    A(1,2,8)              133.6662         -DE/DX =    0.0                 !
 ! A6    A(3,2,8)              115.4828         -DE/DX =    0.0001              !
 ! A7    A(2,3,4)              105.7672         -DE/DX =    0.0001              !
 ! A8    A(3,4,5)              110.8531         -DE/DX =    0.0                 !
 ! A9    A(3,4,7)              115.5173         -DE/DX =    0.0                 !
 ! A10   A(5,4,7)              133.6296         -DE/DX =    0.0                 !
 ! A11   A(1,5,4)              106.2613         -DE/DX =    0.0                 !
 ! A12   A(1,5,6)              125.0047         -DE/DX =    0.0                 !
 ! A13   A(4,5,6)              128.734          -DE/DX =    0.0                 !
 ! D1    D(5,1,2,3)             -0.001          -DE/DX =    0.0                 !
 ! D2    D(5,1,2,8)           -179.9815         -DE/DX =    0.0                 !
 ! D3    D(9,1,2,3)           -179.9883         -DE/DX =    0.0                 !
 ! D4    D(9,1,2,8)              0.0311         -DE/DX =    0.0                 !
 ! D5    D(2,1,5,4)             -0.0031         -DE/DX =    0.0                 !
 ! D6    D(2,1,5,6)            179.9935         -DE/DX =    0.0                 !
 ! D7    D(9,1,5,4)            179.9848         -DE/DX =    0.0                 !
 ! D8    D(9,1,5,6)             -0.0185         -DE/DX =    0.0                 !
 ! D9    D(1,2,3,4)              0.0047         -DE/DX =    0.0                 !
 ! D10   D(8,2,3,4)            179.9891         -DE/DX =    0.0                 !
 ! D11   D(2,3,4,5)             -0.0067         -DE/DX =    0.0                 !
 ! D12   D(2,3,4,7)            179.9933         -DE/DX =    0.0                 !
 ! D13   D(3,4,5,1)              0.0062         -DE/DX =    0.0                 !
 ! D14   D(3,4,5,6)           -179.9903         -DE/DX =    0.0                 !
 ! D15   D(7,4,5,1)           -179.9939         -DE/DX =    0.0                 !
 ! D16   D(7,4,5,6)              0.0097         -DE/DX =    0.0                 !
 --------------------------------------------------------------------------------
 Lowest energy point so far.  Saving SCF results.
 GradGradGradGradGradGradGradGradGradGradGradGradGradGradGradGradGradGrad

 Largest change from initial coordinates is atom    9       0.691 Angstoms.
 Leave Link  103 at Mon Nov 23 02:20:21 2015, MaxMem=    33554432 cpu:         0.0
 (Enter /home/Applications/g09/g09/l202.exe)
                          Input orientation:                          
 ---------------------------------------------------------------------
 Center     Atomic      Atomic             Coordinates (Angstroms)
 Number     Number       Type             X           Y           Z
 ---------------------------------------------------------------------
      1          6           0        0.936627   -0.733722   -0.010214
      2          6           0       -0.387523   -1.107495    0.012478
      3          8           0       -1.213423    0.004259    0.026192
      4          6           0       -0.368130    1.101230    0.011317
      5          6           0        0.949333    0.704212   -0.010925
      6          1           0        1.833235    1.311746   -0.026096
      7          1           0       -0.852649    2.057979    0.019134
      8          1           0       -0.889389   -2.055294    0.021605
      9          1           0        1.809826   -1.356568   -0.025064
 ---------------------------------------------------------------------
                    Distance matrix (angstroms):
                    1          2          3          4          5
     1  C    0.000000
     2  C    1.376079   0.000000
     3  O    2.273468   1.385026   0.000000
     4  C    2.251645   2.208811   1.384950   0.000000
     5  C    1.437991   2.251670   2.273506   1.376164   0.000000
     6  H    2.233405   3.284202   3.315778   2.211725   1.072665
     7  H    3.316017   3.199471   2.085179   1.072468   2.254047
     8  H    2.254307   1.072509   2.084893   3.199291   3.316148
     9  H    1.072676   2.211739   3.315798   3.284142   2.233263
                    6          7          8          9
     6  H    0.000000
     7  H    2.787990   0.000000
     8  H    4.330349   4.113438   0.000000
     9  H    2.668417   4.330111   2.788577   0.000000
 Stoichiometry    C4H4O
 Framework group  C1[X(C4H4O)]
 Deg. of freedom    21
 Full point group                 C1      NOp   1
 RotChk:  IX=0 Diff= 5.35D-15
 Largest Abelian subgroup         C1      NOp   1
 Largest concise Abelian subgroup C1      NOp   1
                         Standard orientation:                         
 ---------------------------------------------------------------------
 Center     Atomic      Atomic             Coordinates (Angstroms)
 Number     Number       Type             X           Y           Z
 ---------------------------------------------------------------------
      1          6           0        0.717385    0.972790   -0.000006
      2          6           0        1.105010   -0.347567   -0.000029
      3          8           0        0.001969   -1.185181    0.000020
      4          6           0       -1.103798   -0.351295   -0.000034
      5          6           0       -0.720604    0.970443    0.000037
      6          1           0       -1.337365    1.848063    0.000163
      7          1           0       -2.055418   -0.845872   -0.000120
      8          1           0        2.058015   -0.839560    0.000188
      9          1           0        1.331049    1.852592   -0.000201
 ---------------------------------------------------------------------
 Rotational constants (GHZ):      9.3946306      8.9719328      4.5892088
 Leave Link  202 at Mon Nov 23 02:20:21 2015, MaxMem=    33554432 cpu:         0.0
 (Enter /home/Applications/g09/g09/l601.exe)
 Copying SCF densities to generalized density rwf, IOpCl= 0 IROHF=0.

 **********************************************************************

            Population analysis using the SCF density.

 **********************************************************************

 Orbital symmetries:
       Occupied  (A) (A) (A) (A) (A) (A) (A) (A) (A) (A) (A) (A)
                 (A)
       Virtual   (A) (A) (A) (A) (A) (A) (A) (A) (A) (A) (A)
 The electronic state is 1-A.
 Alpha  occ. eigenvalues --   -1.66293  -1.21872  -1.00353  -0.80148  -0.78853
 Alpha  occ. eigenvalues --   -0.68957  -0.59301  -0.56139  -0.55339  -0.52344
 Alpha  occ. eigenvalues --   -0.51637  -0.42273  -0.39421
 Alpha virt. eigenvalues --   -0.01337   0.01260   0.10713   0.14404   0.18129
 Alpha virt. eigenvalues --    0.18322   0.19512   0.20221   0.20828   0.21577
 Alpha virt. eigenvalues --    0.22871
          Condensed to atoms (all electrons):
               1          2          3          4          5          6
     1  C    4.471618   0.000000   0.000000   0.000000   0.000000   0.000000
     2  C    0.000000   4.352370   0.000000   0.000000   0.000000   0.000000
     3  O    0.000000   0.000000   5.884003   0.000000   0.000000   0.000000
     4  C    0.000000   0.000000   0.000000   4.352304   0.000000   0.000000
     5  C    0.000000   0.000000   0.000000   0.000000   4.471808   0.000000
     6  H    0.000000   0.000000   0.000000   0.000000   0.000000   0.619840
     7  H    0.000000   0.000000   0.000000   0.000000   0.000000   0.000000
     8  H    0.000000   0.000000   0.000000   0.000000   0.000000   0.000000
     9  H    0.000000   0.000000   0.000000   0.000000   0.000000   0.000000
               7          8          9
     1  C    0.000000   0.000000   0.000000
     2  C    0.000000   0.000000   0.000000
     3  O    0.000000   0.000000   0.000000
     4  C    0.000000   0.000000   0.000000
     5  C    0.000000   0.000000   0.000000
     6  H    0.000000   0.000000   0.000000
     7  H    0.614111   0.000000   0.000000
     8  H    0.000000   0.614101   0.000000
     9  H    0.000000   0.000000   0.619845
 Mulliken charges:
               1
     1  C   -0.471618
     2  C   -0.352370
     3  O    0.115997
     4  C   -0.352304
     5  C   -0.471808
     6  H    0.380160
     7  H    0.385889
     8  H    0.385899
     9  H    0.380155
 Sum of Mulliken charges =   0.00000
 Mulliken charges with hydrogens summed into heavy atoms:
               1
     1  C   -0.091463
     2  C    0.033529
     3  O    0.115997
     4  C    0.033585
     5  C   -0.091648
 Charge=              0.0000 electrons
 Dipole moment (field-independent basis, Debye):
    X=              0.0002    Y=             -0.4005    Z=              0.0001  Tot=              0.4005
 N-N= 1.022519777515D+02 E-N=-1.703672184392D+02  KE=-1.936351627837D+01
 Leave Link  601 at Mon Nov 23 02:20:21 2015, MaxMem=    33554432 cpu:         0.0
 (Enter /home/Applications/g09/g09/l9999.exe)
 1\1\GINC-DUSTIN-DESKTOP\FOpt\RAM1\ZDO\C4H4O1\DUSTIN\23-Nov-2015\0\\#P 
 AM1(Input,print) Opt\\AM1-Reparam Input\\0,1\C,0.9366269873,-0.7337224
 541,-0.0102139949\C,-0.3875227991,-1.1074951554,0.0124779399\O,-1.2134
 231866,0.0042591864,0.026191989\C,-0.3681302032,1.1012302269,0.0113170
 222\C,0.9493332905,0.7042122656,-0.0109247121\H,1.8332352215,1.3117460
 178,-0.0260958109\H,-0.8526494032,2.0579791662,0.0191344553\H,-0.88938
 93353,-2.055294134,0.0216054252\H,1.809826428,-1.3565681193,-0.0250643
 137\\Version=ES64L-G09RevD.01\State=1-A\HF=-2.342674\RMSD=6.319e-09\RM
 SF=4.468e-05\Dipole=-0.1575279,0.001584,0.002731\PG=C01 [X(C4H4O1)]\\@


 AN AIRPLANE IS A COLLECTION OF SPARE PARTS
 FLYING IN CLOSE FORMATION.
 Job cpu time:       0 days  0 hours  0 minutes  1.3 seconds.
 File lengths (MBytes):  RWF=      5 Int=      0 D2E=      0 Chk=      2 Scr=      1
 Normal termination of Gaussian 09 at Mon Nov 23 02:20:21 2015.
