 Entering Gaussian System, Link 0=g09
 Input=FuranAM1Best5.com
 Output=FuranAM1Best5.log
 Initial command:
 /home/Applications/g09/g09/l1.exe "/home/Applications/g09/scratch/Gau-2438.inp" -scrdir="/home/Applications/g09/scratch/"
 Entering Link 1 = /home/Applications/g09/g09/l1.exe PID=      2440.
  
 Copyright (c) 1988,1990,1992,1993,1995,1998,2003,2009,2013,
            Gaussian, Inc.  All Rights Reserved.
  
 This is part of the Gaussian(R) 09 program.  It is based on
 the Gaussian(R) 03 system (copyright 2003, Gaussian, Inc.),
 the Gaussian(R) 98 system (copyright 1998, Gaussian, Inc.),
 the Gaussian(R) 94 system (copyright 1995, Gaussian, Inc.),
 the Gaussian 92(TM) system (copyright 1992, Gaussian, Inc.),
 the Gaussian 90(TM) system (copyright 1990, Gaussian, Inc.),
 the Gaussian 88(TM) system (copyright 1988, Gaussian, Inc.),
 the Gaussian 86(TM) system (copyright 1986, Carnegie Mellon
 University), and the Gaussian 82(TM) system (copyright 1983,
 Carnegie Mellon University). Gaussian is a federally registered
 trademark of Gaussian, Inc.
  
 This software contains proprietary and confidential information,
 including trade secrets, belonging to Gaussian, Inc.
  
 This software is provided under written license and may be
 used, copied, transmitted, or stored only in accord with that
 written license.
  
 The following legend is applicable only to US Government
 contracts under FAR:
  
                    RESTRICTED RIGHTS LEGEND
  
 Use, reproduction and disclosure by the US Government is
 subject to restrictions as set forth in subparagraphs (a)
 and (c) of the Commercial Computer Software - Restricted
 Rights clause in FAR 52.227-19.
  
 Gaussian, Inc.
 340 Quinnipiac St., Bldg. 40, Wallingford CT 06492
  
  
 ---------------------------------------------------------------
 Warning -- This program may not be used in any manner that
 competes with the business of Gaussian, Inc. or will provide
 assistance to any competitor of Gaussian, Inc.  The licensee
 of this program is prohibited from giving any competitor of
 Gaussian, Inc. access to this program.  By using this program,
 the user acknowledges that Gaussian, Inc. is engaged in the
 business of creating and licensing software in the field of
 computational chemistry and represents and warrants to the
 licensee that it is not a competitor of Gaussian, Inc. and that
 it will not use this program in any manner prohibited above.
 ---------------------------------------------------------------
  

 Cite this work as:
 Gaussian 09, Revision D.01,
 M. J. Frisch, G. W. Trucks, H. B. Schlegel, G. E. Scuseria, 
 M. A. Robb, J. R. Cheeseman, G. Scalmani, V. Barone, B. Mennucci, 
 G. A. Petersson, H. Nakatsuji, M. Caricato, X. Li, H. P. Hratchian, 
 A. F. Izmaylov, J. Bloino, G. Zheng, J. L. Sonnenberg, M. Hada, 
 M. Ehara, K. Toyota, R. Fukuda, J. Hasegawa, M. Ishida, T. Nakajima, 
 Y. Honda, O. Kitao, H. Nakai, T. Vreven, J. A. Montgomery, Jr., 
 J. E. Peralta, F. Ogliaro, M. Bearpark, J. J. Heyd, E. Brothers, 
 K. N. Kudin, V. N. Staroverov, T. Keith, R. Kobayashi, J. Normand, 
 K. Raghavachari, A. Rendell, J. C. Burant, S. S. Iyengar, J. Tomasi, 
 M. Cossi, N. Rega, J. M. Millam, M. Klene, J. E. Knox, J. B. Cross, 
 V. Bakken, C. Adamo, J. Jaramillo, R. Gomperts, R. E. Stratmann, 
 O. Yazyev, A. J. Austin, R. Cammi, C. Pomelli, J. W. Ochterski, 
 R. L. Martin, K. Morokuma, V. G. Zakrzewski, G. A. Voth, 
 P. Salvador, J. J. Dannenberg, S. Dapprich, A. D. Daniels, 
 O. Farkas, J. B. Foresman, J. V. Ortiz, J. Cioslowski, 
 and D. J. Fox, Gaussian, Inc., Wallingford CT, 2013.
 
 ******************************************
 Gaussian 09:  ES64L-G09RevD.01 24-Apr-2013
                23-Nov-2015 
 ******************************************
 -----------------------
 #P AM1(Input,print) Opt
 -----------------------
 1/14=-1,18=20,19=15,26=1,38=1/1,3;
 2/9=110,12=2,17=6,18=5,40=1/2;
 3/5=2,16=1,25=1,41=700000,71=1,135=100,136=1/1,2,3;
 4/35=1/1;
 5/5=2,35=1,38=5/2;
 6/7=2,8=2,9=2,10=2,28=1/1;
 7//1,2,3,16;
 1/14=-1,18=20,19=15,26=1/3(2);
 2/9=110/2;
 99//99;
 2/9=110/2;
 3/5=2,16=1,25=1,41=700000,71=1,135=20,136=1/1,2,3;
 4/5=5,16=3,35=1/1;
 5/5=2,35=1,38=5/2;
 7//1,2,3,16;
 1/14=-1,18=20,19=15,26=1/3(-5);
 2/9=110/2;
 6/7=2,8=2,9=2,10=2,19=2,28=1/1;
 99/9=1/99;
 Leave Link    1 at Mon Nov 23 02:20:21 2015, MaxMem=           0 cpu:         0.0
 (Enter /home/Applications/g09/g09/l101.exe)
 -----------------
 AM1-Reparam Input
 -----------------
 Symbolic Z-matrix:
 Charge =  0 Multiplicity = 1
 6                     0.95642  -0.76475   0.00127 
 6                    -0.33476  -1.04369  -0.04284 
 8                    -1.20307   0.03649   0.02955 
 6                    -0.36607   1.08074   0.00541 
 6                     1.0017    0.72006   0.02334 
 1                     1.78501   1.3737   -0.04581 
 1                    -0.84114   2.0805   -0.02045 
 1                    -0.81603  -2.00116  -0.00355 
 1                     1.85323  -1.41835   0.04832 
 
 NAtoms=      9 NQM=        9 NQMF=       0 NMMI=      0 NMMIF=      0
                NMic=       0 NMicF=      0.
                    Isotopes and Nuclear Properties:
 (Nuclear quadrupole moments (NQMom) in fm**2, nuclear magnetic moments (NMagM)
  in nuclear magnetons)

  Atom         1           2           3           4           5           6           7           8           9
 IAtWgt=          12          12          16          12          12           1           1           1           1
 AtmWgt=  12.0000000  12.0000000  15.9949146  12.0000000  12.0000000   1.0078250   1.0078250   1.0078250   1.0078250
 NucSpn=           0           0           0           0           0           1           1           1           1
 AtZEff=   0.0000000   0.0000000   0.0000000   0.0000000   0.0000000   0.0000000   0.0000000   0.0000000   0.0000000
 NQMom=    0.0000000   0.0000000   0.0000000   0.0000000   0.0000000   0.0000000   0.0000000   0.0000000   0.0000000
 NMagM=    0.0000000   0.0000000   0.0000000   0.0000000   0.0000000   2.7928460   2.7928460   2.7928460   2.7928460
 AtZNuc=   6.0000000   6.0000000   8.0000000   6.0000000   6.0000000   1.0000000   1.0000000   1.0000000   1.0000000
 Leave Link  101 at Mon Nov 23 02:20:21 2015, MaxMem=    33554432 cpu:         0.0
 (Enter /home/Applications/g09/g09/l103.exe)

 GradGradGradGradGradGradGradGradGradGradGradGradGradGradGradGradGradGrad
 Berny optimization.
 Initialization pass.
                           ----------------------------
                           !    Initial Parameters    !
                           ! (Angstroms and Degrees)  !
 --------------------------                            --------------------------
 ! Name  Definition              Value          Derivative Info.                !
 --------------------------------------------------------------------------------
 ! R1    R(1,2)                  1.3217         estimate D2E/DX2                !
 ! R2    R(1,5)                  1.4857         estimate D2E/DX2                !
 ! R3    R(1,9)                  1.1107         estimate D2E/DX2                !
 ! R4    R(2,3)                  1.3878         estimate D2E/DX2                !
 ! R5    R(2,8)                  1.0723         estimate D2E/DX2                !
 ! R6    R(3,4)                  1.3385         estimate D2E/DX2                !
 ! R7    R(4,5)                  1.4146         estimate D2E/DX2                !
 ! R8    R(4,7)                  1.1072         estimate D2E/DX2                !
 ! R9    R(5,6)                  1.0225         estimate D2E/DX2                !
 ! A1    A(2,1,5)              103.9573         estimate D2E/DX2                !
 ! A2    A(2,1,9)              131.7594         estimate D2E/DX2                !
 ! A3    A(5,1,9)              124.2543         estimate D2E/DX2                !
 ! A4    A(1,2,3)              116.4377         estimate D2E/DX2                !
 ! A5    A(1,2,8)              128.7304         estimate D2E/DX2                !
 ! A6    A(3,2,8)              114.3455         estimate D2E/DX2                !
 ! A7    A(2,3,4)              102.4172         estimate D2E/DX2                !
 ! A8    A(3,4,5)              113.9207         estimate D2E/DX2                !
 ! A9    A(3,4,7)              115.8847         estimate D2E/DX2                !
 ! A10   A(5,4,7)              130.1939         estimate D2E/DX2                !
 ! A11   A(1,5,4)              103.0117         estimate D2E/DX2                !
 ! A12   A(1,5,6)              131.392          estimate D2E/DX2                !
 ! A13   A(4,5,6)              125.2276         estimate D2E/DX2                !
 ! D1    D(5,1,2,3)             -3.8932         estimate D2E/DX2                !
 ! D2    D(5,1,2,8)           -175.3671         estimate D2E/DX2                !
 ! D3    D(9,1,2,3)            174.1576         estimate D2E/DX2                !
 ! D4    D(9,1,2,8)              2.6837         estimate D2E/DX2                !
 ! D5    D(2,1,5,4)              0.8174         estimate D2E/DX2                !
 ! D6    D(2,1,5,6)           -172.3149         estimate D2E/DX2                !
 ! D7    D(9,1,5,4)           -177.4236         estimate D2E/DX2                !
 ! D8    D(9,1,5,6)              9.4442         estimate D2E/DX2                !
 ! D9    D(1,2,3,4)              5.3478         estimate D2E/DX2                !
 ! D10   D(8,2,3,4)            178.0547         estimate D2E/DX2                !
 ! D11   D(2,3,4,5)             -4.5432         estimate D2E/DX2                !
 ! D12   D(2,3,4,7)            175.724          estimate D2E/DX2                !
 ! D13   D(3,4,5,1)              2.4942         estimate D2E/DX2                !
 ! D14   D(3,4,5,6)            176.1893         estimate D2E/DX2                !
 ! D15   D(7,4,5,1)           -177.8205         estimate D2E/DX2                !
 ! D16   D(7,4,5,6)             -4.1254         estimate D2E/DX2                !
 --------------------------------------------------------------------------------
 Trust Radius=3.00D-01 FncErr=1.00D-07 GrdErr=1.00D-07
 Number of steps in this run=     48 maximum allowed number of steps=    100.
 GradGradGradGradGradGradGradGradGradGradGradGradGradGradGradGradGradGrad

 Leave Link  103 at Mon Nov 23 02:20:21 2015, MaxMem=    33554432 cpu:         0.0
 (Enter /home/Applications/g09/g09/l202.exe)
                          Input orientation:                          
 ---------------------------------------------------------------------
 Center     Atomic      Atomic             Coordinates (Angstroms)
 Number     Number       Type             X           Y           Z
 ---------------------------------------------------------------------
      1          6           0        0.956415   -0.764753    0.001271
      2          6           0       -0.334755   -1.043689   -0.042841
      3          8           0       -1.203073    0.036486    0.029550
      4          6           0       -0.366065    1.080736    0.005409
      5          6           0        1.001703    0.720063    0.023337
      6          1           0        1.785007    1.373698   -0.045808
      7          1           0       -0.841139    2.080497   -0.020445
      8          1           0       -0.816030   -2.001159   -0.003549
      9          1           0        1.853234   -1.418351    0.048321
 ---------------------------------------------------------------------
                    Distance matrix (angstroms):
                    1          2          3          4          5
     1  C    0.000000
     2  C    1.321693   0.000000
     3  O    2.303513   1.387802   0.000000
     4  C    2.270418   2.125204   1.338515   0.000000
     5  C    1.485670   2.213893   2.308323   1.414636   0.000000
     6  H    2.293851   3.215145   3.274513   2.171534   1.022538
     7  H    3.365579   3.165038   2.076410   1.107197   2.291018
     8  H    2.161084   1.072342   2.074342   3.114583   3.272602
     9  H    1.110715   2.221706   3.384954   3.342539   2.301857
                    6          7          8          9
     6  H    0.000000
     7  H    2.719715   0.000000
     8  H    4.261084   4.081768   0.000000
     9  H    2.794468   4.416595   2.732641   0.000000
 Stoichiometry    C4H4O
 Framework group  C1[X(C4H4O)]
 Deg. of freedom    21
 Full point group                 C1      NOp   1
 Largest Abelian subgroup         C1      NOp   1
 Largest concise Abelian subgroup C1      NOp   1
                         Standard orientation:                         
 ---------------------------------------------------------------------
 Center     Atomic      Atomic             Coordinates (Angstroms)
 Number     Number       Type             X           Y           Z
 ---------------------------------------------------------------------
      1          6           0       -1.228708    0.084482   -0.003923
      2          6           0       -0.470762   -0.997427    0.039216
      3          8           0        0.900582   -0.794080   -0.024502
      4          6           0        0.995374    0.540711    0.006619
      5          6           0       -0.253353    1.205095   -0.015105
      6          1           0       -0.384698    2.216510    0.058191
      7          1           0        2.022933    0.951662    0.040224
      8          1           0       -0.767617   -2.026838   -0.006715
      9          1           0       -2.330574    0.214146   -0.056529
 ---------------------------------------------------------------------
 Rotational constants (GHZ):      9.6878224      8.7586999      4.6031618
 Leave Link  202 at Mon Nov 23 02:20:21 2015, MaxMem=    33554432 cpu:         0.0
 (Enter /home/Applications/g09/g09/l301.exe)

 Semi-emprical parameters in input format:
 Method=8 CoreType=1 PeptideFC=0.0125750000 RIJScale=0.5666730000
 ****
 H       
 PQN=1 NValence=1 F0ss=0.4322380000 ZetaOverlap=1.1880780000 U=-0.4188110000
 Beta=-0.2156480000 CoreKO=1.1385450000 KON=0,0,0,1.0589200000 KON=1,0,1,1.1290450000
 KON=0,1,1,1.1706660000 KON=2,1,1,1.0589200000 EISol=-0.4188110042 EHeat=0.0830298228
 Alpha=1.5252600000
 GCore=0.0084690000,1.3383940000,2.2676710000
 GCore=0.0003530000,1.3533660000,3.6667160000
 GCore=-0.0011710000,0.6115380000,4.3212930000
 ****
 C       
 PQN=2,2 NValence=4 F0ss=0.4466820000 F0sp=0.4066640000 F0pp=0.3768030000 F2pp=0.1898720000
 G1sp=0.2679030000
 ZetaOverlap=1.8086650000,1.7840750000
 U=-1.9120180000,-1.5956620000
 Beta=-0.5629500000,-0.3031680000 DDN=0,1,0.7632320000 DDN=1,1,0.7847580000
 CoreKO=1.1124280000 KON=0,0,0,1.0889370000 KON=1,0,1,0.8219700000 KON=0,1,1,0.9893020000
 KON=2,1,1,0.7783930000 EISol=-4.4398989268 EHeat=0.2723305520 Alpha=1.3702060000
 DipHyp=1.5263761812
 GCore=0.0008320000,1.4654240000,2.8806590000
 GCore=0.0027890000,1.3245690000,3.2438410000
 GCore=-0.0012930000,1.2846020000,4.0922960000
 GCore=-0.0000880000,1.4958780000,4.9512050000
 ****
 O       
 PQN=2,2 NValence=6 F0ss=0.5666750000 F0sp=0.5060470000 F0pp=0.4958710000 F2pp=0.2150590000
 G1sp=0.4181060000
 ZetaOverlap=3.3086090000,2.5960610000
 U=-3.8586440000,-2.8743270000
 Beta=-1.1627760000,-1.1056560000 DDN=0,1,0.4676820000 DDN=1,1,0.4852320000
 CoreKO=1.0326690000 KON=0,0,0,0.8822960000 KON=1,0,1,0.5019540000 KON=0,1,1,0.8822960000
 KON=2,1,1,0.5406950000 EISol=-11.6164441184 EHeat=0.0949133088 Alpha=2.2592050000
 DipHyp=0.9353101877
 GCore=0.0202690000,1.4001430000,1.6127490000
 GCore=0.0056550000,2.0844870000,2.7600040000
 ****
 
 Standard basis: VSTO-6G (5D, 7F)
 Ernie: Thresh=  0.10000D-02 Tol=  0.10000D-05 Strict=F.
  NNHCO=     0 NNPyr=     0 NCTC=     0               EPep=         0.000000000
    EC=        67.546766025  ECS=         1.892156451   EG=         0.373441121
   EHC=         0.000000000  EAt=       -31.051283842  AtH=         1.516354808
 EPDDG=         0.000000000  ECC=        69.812363596 EAtT=        32.567638650
 There are    24 symmetry adapted cartesian basis functions of A   symmetry.
 There are    24 symmetry adapted basis functions of A   symmetry.
    24 basis functions,   144 primitive gaussians,    24 cartesian basis functions
    13 alpha electrons       13 beta electrons
       nuclear repulsion energy       102.3800022467 Hartrees.
 IExCor=    0 DFT=F Ex=HF Corr=None ExCW=0 ScaHFX=  1.000000
 ScaDFX=  1.000000  1.000000  1.000000  1.000000 ScalE2=  1.000000  1.000000
 IRadAn=      0 IRanWt=     -1 IRanGd=            0 ICorTp=0 IEmpDi=  4
 Integral buffers will be    131072 words long.
 Regular integral format.
 Two-electron integral symmetry is turned off.
 Leave Link  301 at Mon Nov 23 02:20:21 2015, MaxMem=    33554432 cpu:         0.0
 (Enter /home/Applications/g09/g09/l302.exe)
 Do NDO integrals.
 NPDir=0 NMtPBC=     1 NCelOv=     1 NCel=       1 NClECP=     1 NCelD=      1
         NCelK=      1 NCelE2=     1 NClLst=     1 CellRange=     0.0.
 One-electron integrals computed using PRISM.
 NBasis=    24 RedAO= F EigKep=  0.00D+00  NBF=    24
 NBsUse=    24 1.00D-04 EigRej=  0.00D+00 NBFU=    24
 Leave Link  302 at Mon Nov 23 02:20:22 2015, MaxMem=    33554432 cpu:         0.0
 (Enter /home/Applications/g09/g09/l303.exe)
 DipDrv:  MaxL=1.
 Leave Link  303 at Mon Nov 23 02:20:22 2015, MaxMem=    33554432 cpu:         0.0
 (Enter /home/Applications/g09/g09/l401.exe)
 Simple Huckel Guess.
 JPrj=0 DoOrth=F DoCkMO=F.
 Leave Link  401 at Mon Nov 23 02:20:22 2015, MaxMem=    33554432 cpu:         0.0
 (Enter /home/Applications/g09/g09/l502.exe)
 Closed shell SCF:
 Using DIIS extrapolation, IDIIS=  1040.
 Overlap will be assumed to be unity.
 Two-electron integral symmetry not used.
 Keep J ints in memory in canonical form, NReq=888082.
 IVT=       79475 IEndB=       79475 NGot=    33554432 MDV=    33473473
 LenX=    33473473 LenY=    33472456
 Requested convergence on RMS density matrix=1.00D-08 within 128 cycles.
 Requested convergence on MAX density matrix=1.00D-06.
 Requested convergence on             energy=1.00D-06.
 No special actions if energy rises.
 FoFCou: FMM=F IPFlag=           0 FMFlag=           0 FMFlg1=           0
         NFxFlg=           0 DoJE=F BraDBF=F KetDBF=F FulRan=T
         wScrn=  0.000000 ICntrl=     600 IOpCl=  2 I1Cent=           0 NGrid=           0
         NMat0=    1 NMatS0=     54 NMatT0=    0 NMatD0=    1 NMtDS0=    0 NMtDT0=    0
 Symmetry not used in FoFCou.

 Cycle   1  Pass 1  IDiag  1:
 E= -1.76170081824007    
 DIIS: error= 1.14D-01 at cycle   1 NSaved=   1.
 NSaved= 1 IEnMin= 1 EnMin= -1.76170081824007     IErMin= 1 ErrMin= 1.14D-01
 ErrMax= 1.14D-01  0.00D+00 EMaxC= 1.00D-01 BMatC= 2.21D-01 BMatP= 2.21D-01
 IDIUse=3 WtCom= 0.00D+00 WtEn= 1.00D+00
 Coeff-Com:  0.100D+01
 Coeff-En:   0.100D+01
 Coeff:      0.100D+01
 GapD=    2.000 DampG=2.000 DampE=0.250 DampFc=0.5000 IDamp=-1.
 Damping current iteration by 5.00D-01
 RMSDP=2.60D-02 MaxDP=2.13D-01              OVMax= 0.00D+00

 Cycle   2  Pass 1  IDiag  1:
 E= -1.98884023763651     Delta-E=       -0.227139419396 Rises=F Damp=T
 DIIS: error= 6.72D-02 at cycle   2 NSaved=   2.
 NSaved= 2 IEnMin= 2 EnMin= -1.98884023763651     IErMin= 2 ErrMin= 6.72D-02
 ErrMax= 6.72D-02  0.00D+00 EMaxC= 1.00D-01 BMatC= 8.68D-02 BMatP= 2.21D-01
 IDIUse=3 WtCom= 3.28D-01 WtEn= 6.72D-01
 Coeff-Com: -0.160D+01 0.260D+01
 Coeff-En:   0.000D+00 0.100D+01
 Coeff:     -0.524D+00 0.152D+01
 RMSDP=1.87D-02 MaxDP=1.29D-01 DE=-2.27D-01 OVMax= 0.00D+00

 Cycle   3  Pass 1  IDiag  1:
 E= -2.31133233884098     Delta-E=       -0.322492101204 Rises=F Damp=F
 DIIS: error= 7.81D-03 at cycle   3 NSaved=   3.
 NSaved= 3 IEnMin= 3 EnMin= -2.31133233884098     IErMin= 3 ErrMin= 7.81D-03
 ErrMax= 7.81D-03  0.00D+00 EMaxC= 1.00D-01 BMatC= 3.54D-03 BMatP= 8.68D-02
 IDIUse=3 WtCom= 9.22D-01 WtEn= 7.81D-02
 Coeff-Com:  0.154D+01-0.282D+01 0.229D+01
 Coeff-En:   0.000D+00 0.000D+00 0.100D+01
 Coeff:      0.142D+01-0.260D+01 0.219D+01
 RMSDP=6.35D-03 MaxDP=3.83D-02 DE=-3.22D-01 OVMax= 0.00D+00

 Cycle   4  Pass 1  IDiag  3:
 E= -2.32515392756879     Delta-E=       -0.013821588728 Rises=F Damp=F
 DIIS: error= 1.49D-03 at cycle   4 NSaved=   4.
 NSaved= 4 IEnMin= 4 EnMin= -2.32515392756879     IErMin= 4 ErrMin= 1.49D-03
 ErrMax= 1.49D-03  0.00D+00 EMaxC= 1.00D-01 BMatC= 7.03D-05 BMatP= 3.54D-03
 IDIUse=3 WtCom= 9.85D-01 WtEn= 1.49D-02
 Coeff-Com: -0.188D+00 0.364D+00-0.500D+00 0.132D+01
 Coeff-En:   0.000D+00 0.000D+00 0.000D+00 0.100D+01
 Coeff:     -0.185D+00 0.358D+00-0.492D+00 0.132D+01
 Gap=     0.384 Goal=   None    Shift=    0.000
 RMSDP=1.16D-03 MaxDP=7.25D-03 DE=-1.38D-02 OVMax= 8.67D-03

 Cycle   5  Pass 1  IDiag  3:
 E= -2.32549545303610     Delta-E=       -0.000341525467 Rises=F Damp=F
 DIIS: error= 1.92D-04 at cycle   5 NSaved=   5.
 NSaved= 5 IEnMin= 5 EnMin= -2.32549545303610     IErMin= 5 ErrMin= 1.92D-04
 ErrMax= 1.92D-04  0.00D+00 EMaxC= 1.00D-01 BMatC= 1.39D-06 BMatP= 7.03D-05
 IDIUse=3 WtCom= 9.98D-01 WtEn= 1.92D-03
 Coeff-Com: -0.572D-02 0.625D-02 0.506D-01-0.337D+00 0.129D+01
 Coeff-En:   0.000D+00 0.000D+00 0.000D+00 0.000D+00 0.100D+01
 Coeff:     -0.571D-02 0.624D-02 0.505D-01-0.336D+00 0.129D+01
 Gap=     0.383 Goal=   None    Shift=    0.000
 RMSDP=1.47D-04 MaxDP=1.14D-03 DE=-3.42D-04 OVMax= 1.22D-03

 Cycle   6  Pass 1  IDiag  3:
 E= -2.32550253757287     Delta-E=       -0.000007084537 Rises=F Damp=F
 DIIS: error= 6.65D-05 at cycle   6 NSaved=   6.
 NSaved= 6 IEnMin= 6 EnMin= -2.32550253757287     IErMin= 6 ErrMin= 6.65D-05
 ErrMax= 6.65D-05  0.00D+00 EMaxC= 1.00D-01 BMatC= 1.37D-07 BMatP= 1.39D-06
 IDIUse=1 WtCom= 1.00D+00 WtEn= 0.00D+00
 Coeff-Com:  0.119D-01-0.219D-01 0.163D-01 0.766D-02-0.406D+00 0.139D+01
 Coeff:      0.119D-01-0.219D-01 0.163D-01 0.766D-02-0.406D+00 0.139D+01
 Gap=     0.383 Goal=   None    Shift=    0.000
 RMSDP=6.05D-05 MaxDP=4.43D-04 DE=-7.08D-06 OVMax= 6.12D-04

 Cycle   7  Pass 1  IDiag  3:
 E= -2.32550343752267     Delta-E=       -0.000000899950 Rises=F Damp=F
 DIIS: error= 2.30D-05 at cycle   7 NSaved=   7.
 NSaved= 7 IEnMin= 7 EnMin= -2.32550343752267     IErMin= 7 ErrMin= 2.30D-05
 ErrMax= 2.30D-05  0.00D+00 EMaxC= 1.00D-01 BMatC= 1.40D-08 BMatP= 1.37D-07
 IDIUse=1 WtCom= 1.00D+00 WtEn= 0.00D+00
 Coeff-Com: -0.830D-03 0.182D-02-0.401D-02 0.916D-02 0.141D+00-0.766D+00
 Coeff-Com:  0.162D+01
 Coeff:     -0.830D-03 0.182D-02-0.401D-02 0.916D-02 0.141D+00-0.766D+00
 Coeff:      0.162D+01
 Gap=     0.384 Goal=   None    Shift=    0.000
 RMSDP=2.51D-05 MaxDP=1.97D-04 DE=-9.00D-07 OVMax= 2.81D-04

 Cycle   8  Pass 1  IDiag  3:
 E= -2.32550355400277     Delta-E=       -0.000000116480 Rises=F Damp=F
 DIIS: error= 8.27D-06 at cycle   8 NSaved=   8.
 NSaved= 8 IEnMin= 8 EnMin= -2.32550355400277     IErMin= 8 ErrMin= 8.27D-06
 ErrMax= 8.27D-06  0.00D+00 EMaxC= 1.00D-01 BMatC= 1.04D-09 BMatP= 1.40D-08
 IDIUse=1 WtCom= 1.00D+00 WtEn= 0.00D+00
 Coeff-Com:  0.130D-02-0.259D-02 0.412D-02-0.955D-02-0.678D-01 0.407D+00
 Coeff-Com: -0.101D+01 0.168D+01
 Coeff:      0.130D-02-0.259D-02 0.412D-02-0.955D-02-0.678D-01 0.407D+00
 Coeff:     -0.101D+01 0.168D+01
 Gap=     0.384 Goal=   None    Shift=    0.000
 RMSDP=8.33D-06 MaxDP=7.64D-05 DE=-1.16D-07 OVMax= 9.93D-05

 Cycle   9  Pass 1  IDiag  3:
 E= -2.32550356491760     Delta-E=       -0.000000010915 Rises=F Damp=F
 DIIS: error= 2.24D-06 at cycle   9 NSaved=   9.
 NSaved= 9 IEnMin= 9 EnMin= -2.32550356491760     IErMin= 9 ErrMin= 2.24D-06
 ErrMax= 2.24D-06  0.00D+00 EMaxC= 1.00D-01 BMatC= 9.29D-11 BMatP= 1.04D-09
 IDIUse=1 WtCom= 1.00D+00 WtEn= 0.00D+00
 Coeff-Com: -0.590D-03 0.117D-02-0.182D-02 0.429D-02 0.227D-01-0.139D+00
 Coeff-Com:  0.362D+00-0.888D+00 0.164D+01
 Coeff:     -0.590D-03 0.117D-02-0.182D-02 0.429D-02 0.227D-01-0.139D+00
 Coeff:      0.362D+00-0.888D+00 0.164D+01
 Gap=     0.384 Goal=   None    Shift=    0.000
 RMSDP=2.87D-06 MaxDP=2.63D-05 DE=-1.09D-08 OVMax= 3.40D-05

 Cycle  10  Pass 1  IDiag  3:
 E= -2.32550356589321     Delta-E=       -0.000000000976 Rises=F Damp=F
 DIIS: error= 3.76D-07 at cycle  10 NSaved=  10.
 NSaved=10 IEnMin=10 EnMin= -2.32550356589321     IErMin=10 ErrMin= 3.76D-07
 ErrMax= 3.76D-07  0.00D+00 EMaxC= 1.00D-01 BMatC= 5.76D-12 BMatP= 9.29D-11
 IDIUse=1 WtCom= 1.00D+00 WtEn= 0.00D+00
 Coeff-Com:  0.604D-04-0.128D-03 0.278D-03-0.885D-03 0.426D-03 0.271D-02
 Coeff-Com: -0.179D-01 0.165D+00-0.580D+00 0.143D+01
 Coeff:      0.604D-04-0.128D-03 0.278D-03-0.885D-03 0.426D-03 0.271D-02
 Coeff:     -0.179D-01 0.165D+00-0.580D+00 0.143D+01
 Gap=     0.384 Goal=   None    Shift=    0.000
 RMSDP=4.26D-07 MaxDP=3.03D-06 DE=-9.76D-10 OVMax= 3.96D-06

 Cycle  11  Pass 1  IDiag  3:
 E= -2.32550356592945     Delta-E=       -0.000000000036 Rises=F Damp=F
 DIIS: error= 7.92D-08 at cycle  11 NSaved=  11.
 NSaved=11 IEnMin=11 EnMin= -2.32550356592945     IErMin=11 ErrMin= 7.92D-08
 ErrMax= 7.92D-08  0.00D+00 EMaxC= 1.00D-01 BMatC= 3.22D-13 BMatP= 5.76D-12
 IDIUse=1 WtCom= 1.00D+00 WtEn= 0.00D+00
 Coeff-Com: -0.656D-05 0.143D-04-0.339D-04 0.123D-03-0.101D-02 0.511D-02
 Coeff-Com: -0.104D-01-0.189D-01 0.128D+00-0.518D+00 0.142D+01
 Coeff:     -0.656D-05 0.143D-04-0.339D-04 0.123D-03-0.101D-02 0.511D-02
 Coeff:     -0.104D-01-0.189D-01 0.128D+00-0.518D+00 0.142D+01
 Gap=     0.384 Goal=   None    Shift=    0.000
 RMSDP=1.02D-07 MaxDP=6.52D-07 DE=-3.62D-11 OVMax= 9.62D-07

 Cycle  12  Pass 1  IDiag  3:
 E= -2.32550356593146     Delta-E=       -0.000000000002 Rises=F Damp=F
 DIIS: error= 2.20D-08 at cycle  12 NSaved=  12.
 NSaved=12 IEnMin=12 EnMin= -2.32550356593146     IErMin=12 ErrMin= 2.20D-08
 ErrMax= 2.20D-08  0.00D+00 EMaxC= 1.00D-01 BMatC= 2.58D-14 BMatP= 3.22D-13
 IDIUse=1 WtCom= 1.00D+00 WtEn= 0.00D+00
 Coeff-Com:  0.673D-05-0.132D-04 0.197D-04-0.585D-04 0.523D-03-0.261D-02
 Coeff-Com:  0.570D-02 0.402D-02-0.416D-01 0.199D+00-0.764D+00 0.160D+01
 Coeff:      0.673D-05-0.132D-04 0.197D-04-0.585D-04 0.523D-03-0.261D-02
 Coeff:      0.570D-02 0.402D-02-0.416D-01 0.199D+00-0.764D+00 0.160D+01
 Gap=     0.384 Goal=   None    Shift=    0.000
 RMSDP=2.82D-08 MaxDP=1.78D-07 DE=-2.00D-12 OVMax= 2.13D-07

 Cycle  13  Pass 1  IDiag  3:
 E= -2.32550356593164     Delta-E=        0.000000000000 Rises=F Damp=F
 DIIS: error= 7.30D-09 at cycle  13 NSaved=  13.
 NSaved=13 IEnMin=13 EnMin= -2.32550356593164     IErMin=13 ErrMin= 7.30D-09
 ErrMax= 7.30D-09  0.00D+00 EMaxC= 1.00D-01 BMatC= 1.71D-15 BMatP= 2.58D-14
 IDIUse=1 WtCom= 1.00D+00 WtEn= 0.00D+00
 Coeff-Com: -0.111D-06 0.236D-06-0.537D-06 0.788D-05-0.338D-03 0.180D-02
 Coeff-Com: -0.419D-02 0.211D-02 0.104D-01-0.773D-01 0.365D+00-0.966D+00
 Coeff-Com:  0.167D+01
 Coeff:     -0.111D-06 0.236D-06-0.537D-06 0.788D-05-0.338D-03 0.180D-02
 Coeff:     -0.419D-02 0.211D-02 0.104D-01-0.773D-01 0.365D+00-0.966D+00
 Coeff:      0.167D+01
 Gap=     0.384 Goal=   None    Shift=    0.000
 RMSDP=8.72D-09 MaxDP=7.35D-08 DE=-1.85D-13 OVMax= 9.16D-08

 Cycle  14  Pass 2  IDiag  1:
 SCF Done:  E(RAM1) =  -2.32550356593     A.U. after   14 cycles
            NFock= 13  Conv=0.87D-08     -V/T= 0.8800
 KE=-1.938229692253D+01 PE=-1.705388324543D+02 EE= 8.521562356417D+01
 Leave Link  502 at Mon Nov 23 02:20:22 2015, MaxMem=    33554432 cpu:         0.0
 (Enter /home/Applications/g09/g09/l601.exe)
 Copying SCF densities to generalized density rwf, IOpCl= 0 IROHF=0.

 **********************************************************************

            Population analysis using the SCF density.

 **********************************************************************

 Orbital symmetries:
       Occupied  (A) (A) (A) (A) (A) (A) (A) (A) (A) (A) (A) (A)
                 (A)
       Virtual   (A) (A) (A) (A) (A) (A) (A) (A) (A) (A) (A)
 The electronic state is 1-A.
 Alpha  occ. eigenvalues --   -1.68015  -1.21859  -1.00281  -0.80148  -0.78548
 Alpha  occ. eigenvalues --   -0.69354  -0.60169  -0.56254  -0.55602  -0.51789
 Alpha  occ. eigenvalues --   -0.50966  -0.42323  -0.39186
 Alpha virt. eigenvalues --   -0.00836   0.01185   0.11491   0.13784   0.16990
 Alpha virt. eigenvalues --    0.18779   0.19326   0.19471   0.21571   0.22579
 Alpha virt. eigenvalues --    0.22943
          Condensed to atoms (all electrons):
               1          2          3          4          5          6
     1  C    4.451784   0.000000   0.000000   0.000000   0.000000   0.000000
     2  C    0.000000   4.348940   0.000000   0.000000   0.000000   0.000000
     3  O    0.000000   0.000000   5.877669   0.000000   0.000000   0.000000
     4  C    0.000000   0.000000   0.000000   4.330412   0.000000   0.000000
     5  C    0.000000   0.000000   0.000000   0.000000   4.522426   0.000000
     6  H    0.000000   0.000000   0.000000   0.000000   0.000000   0.623560
     7  H    0.000000   0.000000   0.000000   0.000000   0.000000   0.000000
     8  H    0.000000   0.000000   0.000000   0.000000   0.000000   0.000000
     9  H    0.000000   0.000000   0.000000   0.000000   0.000000   0.000000
               7          8          9
     1  C    0.000000   0.000000   0.000000
     2  C    0.000000   0.000000   0.000000
     3  O    0.000000   0.000000   0.000000
     4  C    0.000000   0.000000   0.000000
     5  C    0.000000   0.000000   0.000000
     6  H    0.000000   0.000000   0.000000
     7  H    0.612153   0.000000   0.000000
     8  H    0.000000   0.621836   0.000000
     9  H    0.000000   0.000000   0.611219
 Mulliken charges:
               1
     1  C   -0.451784
     2  C   -0.348940
     3  O    0.122331
     4  C   -0.330412
     5  C   -0.522426
     6  H    0.376440
     7  H    0.387847
     8  H    0.378164
     9  H    0.388781
 Sum of Mulliken charges =   0.00000
 Mulliken charges with hydrogens summed into heavy atoms:
               1
     1  C   -0.063003
     2  C    0.029224
     3  O    0.122331
     4  C    0.057434
     5  C   -0.145986
 Charge=              0.0000 electrons
 Dipole moment (field-independent basis, Debye):
    X=              0.5153    Y=             -0.4406    Z=              0.0042  Tot=              0.6780
 N-N= 1.023800022467D+02 E-N=-1.705388324689D+02  KE=-1.938229692253D+01
 Leave Link  601 at Mon Nov 23 02:20:22 2015, MaxMem=    33554432 cpu:         0.0
 (Enter /home/Applications/g09/g09/l701.exe)
 Compute integral first derivatives.
 ... and contract with generalized density number  0.
 Leave Link  701 at Mon Nov 23 02:20:22 2015, MaxMem=    33554432 cpu:         0.0
 (Enter /home/Applications/g09/g09/l702.exe)
 L702 exits ... SP integral derivatives will be done elsewhere.
 Leave Link  702 at Mon Nov 23 02:20:22 2015, MaxMem=    33554432 cpu:         0.0
 (Enter /home/Applications/g09/g09/l703.exe)
 Compute integral first derivatives, UseDBF=F ICtDFT=           0.
 Integral derivatives from FoFJK, PRISM(SPDF).
 Calling FoFJK, ICntrl=      2127 FMM=F ISym2X=0 I1Cent= 0 IOpClX= 0 NMat=1 NMatS=1 NMatT=0.
 FoFJK:  IHMeth= 8 ICntrl=    2127 DoSepK=F KAlg= 0 I1Cent=   0 FoldK=F
 IRaf=         0 NMat=   1 IRICut=       1 DoRegI=T DoRafI=F ISym2E= 0.
 FoFCou: FMM=F IPFlag=           0 FMFlag=      100000 FMFlg1=         800
         NFxFlg=           0 DoJE=F BraDBF=F KetDBF=F FulRan=T
         wScrn=  0.000000 ICntrl=    2127 IOpCl=  0 I1Cent=           0 NGrid=           0
         NMat0=    1 NMatS0=      1 NMatT0=    0 NMatD0=    1 NMtDS0=    0 NMtDT0=    0
 Symmetry not used in FoFCou.
 Leave Link  703 at Mon Nov 23 02:20:22 2015, MaxMem=    33554432 cpu:         0.0
 (Enter /home/Applications/g09/g09/l716.exe)
 Dipole        = 2.02728344D-01-1.73336590D-01 1.65213373D-03
 ***** Axes restored to original set *****
 -------------------------------------------------------------------
 Center     Atomic                   Forces (Hartrees/Bohr)
 Number     Number              X              Y              Z
 -------------------------------------------------------------------
      1        6           0.072682676    0.047237752    0.001835635
      2        6          -0.061469145   -0.064061309    0.012072365
      3        8           0.001355554   -0.021578524   -0.009301625
      4        6           0.040474207    0.064854058    0.005278817
      5        6          -0.069361003   -0.037786848   -0.006224862
      6        1           0.032683648    0.017060697    0.001125192
      7        1           0.010316475   -0.018514771    0.001412186
      8        1          -0.005941846   -0.003508895   -0.003223743
      9        1          -0.020740565    0.016297839   -0.002973965
 -------------------------------------------------------------------
 Cartesian Forces:  Max     0.072682676 RMS     0.033787805
 Leave Link  716 at Mon Nov 23 02:20:22 2015, MaxMem=    33554432 cpu:         0.0
 (Enter /home/Applications/g09/g09/l103.exe)

 GradGradGradGradGradGradGradGradGradGradGradGradGradGradGradGradGradGrad
 Berny optimization.
 FormGI is forming the generalized inverse of G from B-inverse, IUseBI=4.
 Internal  Forces:  Max     0.056930446 RMS     0.018415347
 Search for a local minimum.
 Step number   1 out of a maximum of   48
 All quantities printed in internal units (Hartrees-Bohrs-Radians)
 RMS Force = .18415D-01 SwitMx=.10000D-02 MixMth= 1
 Mixed Optimization -- RFO/linear search
 Second derivative matrix not updated -- first step.
 ITU=  0
     Eigenvalues ---    0.01353   0.01803   0.02040   0.02130   0.02423
     Eigenvalues ---    0.02859   0.15802   0.15884   0.15987   0.16000
     Eigenvalues ---    0.21982   0.22865   0.32524   0.32899   0.32917
     Eigenvalues ---    0.36936   0.40131   0.43936   0.46121   0.53664
     Eigenvalues ---    0.59533
 RFO step:  Lambda=-3.32210077D-02 EMin= 1.35288621D-02
 Linear search not attempted -- first point.
 Iteration  1 RMS(Cart)=  0.05791383 RMS(Int)=  0.00300014
 Iteration  2 RMS(Cart)=  0.00291989 RMS(Int)=  0.00130734
 Iteration  3 RMS(Cart)=  0.00000665 RMS(Int)=  0.00130732
 Iteration  4 RMS(Cart)=  0.00000001 RMS(Int)=  0.00130732
 ITry= 1 IFail=0 DXMaxC= 1.88D-01 DCOld= 1.00D+10 DXMaxT= 3.00D-01 DXLimC= 3.00D+00 Rises=F
 Variable       Old X    -DE/DX   Delta X   Delta X   Delta X     New X
                                 (Linear)    (Quad)   (Total)
    R1        2.49764   0.05693   0.00000   0.09232   0.09311   2.59075
    R2        2.80751  -0.01763   0.00000  -0.05426  -0.05449   2.75302
    R3        2.09895  -0.02646   0.00000  -0.07382  -0.07382   2.02512
    R4        2.62257   0.00463   0.00000   0.01748   0.01819   2.64076
    R5        2.02643   0.00568   0.00000   0.01411   0.01411   2.04055
    R6        2.52943   0.04456   0.00000   0.07305   0.07271   2.60214
    R7        2.67328  -0.03130   0.00000  -0.07604  -0.07697   2.59631
    R8        2.09230  -0.02118   0.00000  -0.05847  -0.05847   2.03383
    R9        1.93232   0.03587   0.00000   0.07590   0.07590   2.00821
    A1        1.81440   0.01560   0.00000   0.06356   0.06369   1.87809
    A2        2.29963  -0.00688   0.00000  -0.02701  -0.02709   2.27255
    A3        2.16865  -0.00874   0.00000  -0.03672  -0.03675   2.13190
    A4        2.03222  -0.03987   0.00000  -0.13147  -0.13144   1.90078
    A5        2.24677   0.02411   0.00000   0.09124   0.08993   2.33670
    A6        1.99570   0.01623   0.00000   0.04996   0.04850   2.04420
    A7        1.78752   0.01769   0.00000   0.08510   0.08505   1.87256
    A8        1.98829  -0.00976   0.00000  -0.05140  -0.05306   1.93523
    A9        2.02257   0.00631   0.00000   0.03314   0.03382   2.05639
   A10        2.27231   0.00346   0.00000   0.01840   0.01898   2.29129
   A11        1.79789   0.01674   0.00000   0.04204   0.04015   1.83804
   A12        2.29322  -0.01544   0.00000  -0.05666  -0.05647   2.23675
   A13        2.18563  -0.00097   0.00000   0.01985   0.02037   2.20600
    D1       -0.06795   0.00340   0.00000   0.05798   0.05630  -0.01165
    D2       -3.06073  -0.00129   0.00000  -0.02849  -0.02982  -3.09056
    D3        3.03962   0.00283   0.00000   0.05201   0.05136   3.09099
    D4        0.04684  -0.00186   0.00000  -0.03446  -0.03476   0.01208
    D5        0.01427   0.00004   0.00000  -0.00527  -0.00646   0.00781
    D6       -3.00746  -0.00353   0.00000  -0.05714  -0.05516  -3.06262
    D7       -3.09663   0.00056   0.00000   0.00009  -0.00202  -3.09865
    D8        0.16483  -0.00301   0.00000  -0.05178  -0.05073   0.11411
    D9        0.09334  -0.00556   0.00000  -0.08412  -0.08228   0.01105
   D10        3.10764  -0.00002   0.00000  -0.00382  -0.00575   3.10189
   D11       -0.07929   0.00287   0.00000   0.07034   0.07326  -0.00603
   D12        3.06696   0.00129   0.00000   0.04314   0.04633   3.11329
   D13        0.04353  -0.00299   0.00000  -0.04624  -0.04453  -0.00100
   D14        3.07508  -0.00114   0.00000  -0.00572  -0.00400   3.07108
   D15       -3.10355  -0.00113   0.00000  -0.01419  -0.01283  -3.11639
   D16       -0.07200   0.00072   0.00000   0.02633   0.02769  -0.04431
         Item               Value     Threshold  Converged?
 Maximum Force            0.056930     0.000450     NO 
 RMS     Force            0.018415     0.000300     NO 
 Maximum Displacement     0.188253     0.001800     NO 
 RMS     Displacement     0.058001     0.001200     NO 
 Predicted change in Energy=-1.852452D-02
 Lowest energy point so far.  Saving SCF results.
 GradGradGradGradGradGradGradGradGradGradGradGradGradGradGradGradGradGrad

 Leave Link  103 at Mon Nov 23 02:20:22 2015, MaxMem=    33554432 cpu:         0.0
 (Enter /home/Applications/g09/g09/l202.exe)
                          Input orientation:                          
 ---------------------------------------------------------------------
 Center     Atomic      Atomic             Coordinates (Angstroms)
 Number     Number       Type             X           Y           Z
 ---------------------------------------------------------------------
      1          6           0        0.946899   -0.731044   -0.000008
      2          6           0       -0.367373   -1.120703   -0.020151
      3          8           0       -1.177489    0.017854   -0.005947
      4          6           0       -0.343448    1.113421    0.008678
      5          6           0        0.974547    0.725479    0.012199
      6          1           0        1.820664    1.366526   -0.037585
      7          1           0       -0.796245    2.089684   -0.005933
      8          1           0       -0.864457   -2.078956    0.005341
      9          1           0        1.842199   -1.318732    0.038653
 ---------------------------------------------------------------------
                    Distance matrix (angstroms):
                    1          2          3          4          5
     1  C    0.000000
     2  C    1.370967   0.000000
     3  O    2.252534   1.397427   0.000000
     4  C    2.251026   2.234438   1.376992   0.000000
     5  C    1.456836   2.282583   2.265464   1.373908   0.000000
     6  H    2.272593   3.312721   3.287680   2.179353   1.062701
     7  H    3.315885   3.238938   2.106616   1.076257   2.235417
     8  H    2.257854   1.079811   2.120078   3.234615   3.353631
     9  H    1.071650   2.219207   3.302570   3.270064   2.220882
                    6          7          8          9
     6  H    0.000000
     7  H    2.715174   0.000000
     8  H    4.368417   4.169214   0.000000
     9  H    2.686427   4.310530   2.811589   0.000000
 Stoichiometry    C4H4O
 Framework group  C1[X(C4H4O)]
 Deg. of freedom    21
 Full point group                 C1      NOp   1
 RotChk:  IX=0 Diff= 1.32D+00
 Largest Abelian subgroup         C1      NOp   1
 Largest concise Abelian subgroup C1      NOp   1
                         Standard orientation:                         
 ---------------------------------------------------------------------
 Center     Atomic      Atomic             Coordinates (Angstroms)
 Number     Number       Type             X           Y           Z
 ---------------------------------------------------------------------
      1          6           0       -0.583125    1.050803    0.000884
      2          6           0       -1.166038   -0.190008    0.013218
      3          8           0       -0.162175   -1.162047   -0.000934
      4          6           0        1.046389   -0.502172   -0.007611
      5          6           0        0.861036    0.859175   -0.006049
      6          1           0        1.621794    1.599055    0.050138
      7          1           0        1.943406   -1.096678    0.008229
      8          1           0       -2.188019   -0.537235   -0.018087
      9          1           0       -1.029356    2.024451   -0.035467
 ---------------------------------------------------------------------
 Rotational constants (GHZ):      9.2169325      9.0726379      4.5726802
 Leave Link  202 at Mon Nov 23 02:20:22 2015, MaxMem=    33554432 cpu:         0.0
 (Enter /home/Applications/g09/g09/l301.exe)

 Semi-emprical parameters in input format:
 Method=8 CoreType=1 PeptideFC=0.0125750000 RIJScale=0.5666730000
 ****
 H       
 PQN=1 NValence=1 F0ss=0.4322380000 ZetaOverlap=1.1880780000 U=-0.4188110000
 Beta=-0.2156480000 CoreKO=1.1385450000 KON=0,0,0,1.0589200000 KON=1,0,1,1.1290450000
 KON=0,1,1,1.1706660000 KON=2,1,1,1.0589200000 EISol=-0.4188110042 EHeat=0.0830298228
 Alpha=1.5252600000
 GCore=0.0084690000,1.3383940000,2.2676710000
 GCore=0.0003530000,1.3533660000,3.6667160000
 GCore=-0.0011710000,0.6115380000,4.3212930000
 ****
 C       
 PQN=2,2 NValence=4 F0ss=0.4466820000 F0sp=0.4066640000 F0pp=0.3768030000 F2pp=0.1898720000
 G1sp=0.2679030000
 ZetaOverlap=1.8086650000,1.7840750000
 U=-1.9120180000,-1.5956620000
 Beta=-0.5629500000,-0.3031680000 DDN=0,1,0.7632320000 DDN=1,1,0.7847580000
 CoreKO=1.1124280000 KON=0,0,0,1.0889370000 KON=1,0,1,0.8219700000 KON=0,1,1,0.9893020000
 KON=2,1,1,0.7783930000 EISol=-4.4398989268 EHeat=0.2723305520 Alpha=1.3702060000
 DipHyp=1.5263761812
 GCore=0.0008320000,1.4654240000,2.8806590000
 GCore=0.0027890000,1.3245690000,3.2438410000
 GCore=-0.0012930000,1.2846020000,4.0922960000
 GCore=-0.0000880000,1.4958780000,4.9512050000
 ****
 O       
 PQN=2,2 NValence=6 F0ss=0.5666750000 F0sp=0.5060470000 F0pp=0.4958710000 F2pp=0.2150590000
 G1sp=0.4181060000
 ZetaOverlap=3.3086090000,2.5960610000
 U=-3.8586440000,-2.8743270000
 Beta=-1.1627760000,-1.1056560000 DDN=0,1,0.4676820000 DDN=1,1,0.4852320000
 CoreKO=1.0326690000 KON=0,0,0,0.8822960000 KON=1,0,1,0.5019540000 KON=0,1,1,0.8822960000
 KON=2,1,1,0.5406950000 EISol=-11.6164441184 EHeat=0.0949133088 Alpha=2.2592050000
 DipHyp=0.9353101877
 GCore=0.0202690000,1.4001430000,1.6127490000
 GCore=0.0056550000,2.0844870000,2.7600040000
 ****
 
 Standard basis: VSTO-6G (5D, 7F)
 Ernie: Thresh=  0.10000D-02 Tol=  0.10000D-05 Strict=F.
  NNHCO=     0 NNPyr=     0 NCTC=     0               EPep=         0.000000000
    EC=        67.369312617  ECS=         1.860877277   EG=         0.358105020
   EHC=         0.000000000  EAt=       -31.051283842  AtH=         1.516354808
 EPDDG=         0.000000000  ECC=        69.588294915 EAtT=        32.567638650
 There are    24 symmetry adapted cartesian basis functions of A   symmetry.
 There are    24 symmetry adapted basis functions of A   symmetry.
    24 basis functions,   144 primitive gaussians,    24 cartesian basis functions
    13 alpha electrons       13 beta electrons
       nuclear repulsion energy       102.1559335655 Hartrees.
 IExCor=    0 DFT=F Ex=HF Corr=None ExCW=0 ScaHFX=  1.000000
 ScaDFX=  1.000000  1.000000  1.000000  1.000000 ScalE2=  1.000000  1.000000
 IRadAn=      0 IRanWt=     -1 IRanGd=            0 ICorTp=0 IEmpDi=  4
 Integral buffers will be    131072 words long.
 Regular integral format.
 Two-electron integral symmetry is turned off.
 Leave Link  301 at Mon Nov 23 02:20:22 2015, MaxMem=    33554432 cpu:         0.0
 (Enter /home/Applications/g09/g09/l302.exe)
 Do NDO integrals.
 NPDir=0 NMtPBC=     1 NCelOv=     1 NCel=       1 NClECP=     1 NCelD=      1
         NCelK=      1 NCelE2=     1 NClLst=     1 CellRange=     0.0.
 One-electron integrals computed using PRISM.
 NBasis=    24 RedAO= F EigKep=  0.00D+00  NBF=    24
 NBsUse=    24 1.00D-04 EigRej=  0.00D+00 NBFU=    24
 Leave Link  302 at Mon Nov 23 02:20:22 2015, MaxMem=    33554432 cpu:         0.0
 (Enter /home/Applications/g09/g09/l303.exe)
 DipDrv:  MaxL=1.
 Leave Link  303 at Mon Nov 23 02:20:22 2015, MaxMem=    33554432 cpu:         0.0
 (Enter /home/Applications/g09/g09/l401.exe)
 Initial guess from the checkpoint file:  "/home/Applications/g09/scratch/Gau-2440.chk"
 B after Tr=     0.000000    0.000000    0.000000
         Rot=    0.882865   -0.000208    0.000398    0.469626 Ang= -56.02 deg.
 Guess basis will be translated and rotated to current coordinates.
 JPrj=0 DoOrth=T DoCkMO=T.
 Leave Link  401 at Mon Nov 23 02:20:22 2015, MaxMem=    33554432 cpu:         0.0
 (Enter /home/Applications/g09/g09/l502.exe)
 Closed shell SCF:
 Using DIIS extrapolation, IDIIS=  1040.
 Overlap will be assumed to be unity.
 Two-electron integral symmetry not used.
 Keep J ints in memory in canonical form, NReq=888082.
 IVT=       79475 IEndB=       79475 NGot=    33554432 MDV=    33473473
 LenX=    33473473 LenY=    33472456
 Requested convergence on RMS density matrix=1.00D-08 within 128 cycles.
 Requested convergence on MAX density matrix=1.00D-06.
 Requested convergence on             energy=1.00D-06.
 No special actions if energy rises.
 FoFCou: FMM=F IPFlag=           0 FMFlag=           0 FMFlg1=           0
         NFxFlg=           0 DoJE=F BraDBF=F KetDBF=F FulRan=T
         wScrn=  0.000000 ICntrl=     600 IOpCl=  2 I1Cent=           0 NGrid=           0
         NMat0=    1 NMatS0=     54 NMatT0=    0 NMatD0=    1 NMtDS0=    0 NMtDT0=    0
 Symmetry not used in FoFCou.

 Cycle   1  Pass 1  IDiag  1:
 E= -2.33265048345965    
 DIIS: error= 6.68D-03 at cycle   1 NSaved=   1.
 NSaved= 1 IEnMin= 1 EnMin= -2.33265048345965     IErMin= 1 ErrMin= 6.68D-03
 ErrMax= 6.68D-03  0.00D+00 EMaxC= 1.00D-01 BMatC= 2.35D-03 BMatP= 2.35D-03
 IDIUse=3 WtCom= 9.33D-01 WtEn= 6.68D-02
 Coeff-Com:  0.100D+01
 Coeff-En:   0.100D+01
 Coeff:      0.100D+01
 GapD=    2.000 DampG=2.000 DampE=1.000 DampFc=2.0000 IDamp=-1.
 RMSDP=3.20D-03 MaxDP=1.28D-02              OVMax= 0.00D+00

 Cycle   2  Pass 1  IDiag  3:
 E= -2.33938676858722     Delta-E=       -0.006736285128 Rises=F Damp=F
 DIIS: error= 2.65D-03 at cycle   2 NSaved=   2.
 NSaved= 2 IEnMin= 2 EnMin= -2.33938676858722     IErMin= 2 ErrMin= 2.65D-03
 ErrMax= 2.65D-03  0.00D+00 EMaxC= 1.00D-01 BMatC= 2.73D-04 BMatP= 2.35D-03
 IDIUse=3 WtCom= 9.74D-01 WtEn= 2.65D-02
 Coeff-Com: -0.432D+00 0.143D+01
 Coeff-En:   0.000D+00 0.100D+01
 Coeff:     -0.421D+00 0.142D+01
 Gap=     0.384 Goal=   None    Shift=    0.000
 RMSDP=1.82D-03 MaxDP=7.80D-03 DE=-6.74D-03 OVMax= 9.05D-03

 Cycle   3  Pass 1  IDiag  3:
 E= -2.34054273050030     Delta-E=       -0.001155961913 Rises=F Damp=F
 DIIS: error= 6.31D-04 at cycle   3 NSaved=   3.
 NSaved= 3 IEnMin= 3 EnMin= -2.34054273050030     IErMin= 3 ErrMin= 6.31D-04
 ErrMax= 6.31D-04  0.00D+00 EMaxC= 1.00D-01 BMatC= 1.20D-05 BMatP= 2.73D-04
 IDIUse=3 WtCom= 9.94D-01 WtEn= 6.31D-03
 Coeff-Com:  0.167D+00-0.660D+00 0.149D+01
 Coeff-En:   0.000D+00 0.000D+00 0.100D+01
 Coeff:      0.166D+00-0.655D+00 0.149D+01
 Gap=     0.384 Goal=   None    Shift=    0.000
 RMSDP=5.57D-04 MaxDP=2.57D-03 DE=-1.16D-03 OVMax= 4.30D-03

 Cycle   4  Pass 1  IDiag  3:
 E= -2.34062039342403     Delta-E=       -0.000077662924 Rises=F Damp=F
 DIIS: error= 1.56D-04 at cycle   4 NSaved=   4.
 NSaved= 4 IEnMin= 4 EnMin= -2.34062039342403     IErMin= 4 ErrMin= 1.56D-04
 ErrMax= 1.56D-04  0.00D+00 EMaxC= 1.00D-01 BMatC= 7.94D-07 BMatP= 1.20D-05
 IDIUse=3 WtCom= 9.98D-01 WtEn= 1.56D-03
 Coeff-Com: -0.161D-01 0.793D-01-0.397D+00 0.133D+01
 Coeff-En:   0.000D+00 0.000D+00 0.000D+00 0.100D+01
 Coeff:     -0.161D-01 0.791D-01-0.397D+00 0.133D+01
 Gap=     0.384 Goal=   None    Shift=    0.000
 RMSDP=1.66D-04 MaxDP=1.06D-03 DE=-7.77D-05 OVMax= 1.52D-03

 Cycle   5  Pass 1  IDiag  3:
 E= -2.34062652925887     Delta-E=       -0.000006135835 Rises=F Damp=F
 DIIS: error= 4.45D-05 at cycle   5 NSaved=   5.
 NSaved= 5 IEnMin= 5 EnMin= -2.34062652925887     IErMin= 5 ErrMin= 4.45D-05
 ErrMax= 4.45D-05  0.00D+00 EMaxC= 1.00D-01 BMatC= 8.55D-08 BMatP= 7.94D-07
 IDIUse=1 WtCom= 1.00D+00 WtEn= 0.00D+00
 Coeff-Com: -0.998D-02 0.335D-01 0.115D-01-0.516D+00 0.148D+01
 Coeff:     -0.998D-02 0.335D-01 0.115D-01-0.516D+00 0.148D+01
 Gap=     0.384 Goal=   None    Shift=    0.000
 RMSDP=6.40D-05 MaxDP=5.28D-04 DE=-6.14D-06 OVMax= 5.38D-04

 Cycle   6  Pass 1  IDiag  3:
 E= -2.34062728173761     Delta-E=       -0.000000752479 Rises=F Damp=F
 DIIS: error= 1.46D-05 at cycle   6 NSaved=   6.
 NSaved= 6 IEnMin= 6 EnMin= -2.34062728173761     IErMin= 6 ErrMin= 1.46D-05
 ErrMax= 1.46D-05  0.00D+00 EMaxC= 1.00D-01 BMatC= 8.16D-09 BMatP= 8.55D-08
 IDIUse=1 WtCom= 1.00D+00 WtEn= 0.00D+00
 Coeff-Com:  0.651D-02-0.230D-01 0.777D-02 0.275D+00-0.104D+01 0.177D+01
 Coeff:      0.651D-02-0.230D-01 0.777D-02 0.275D+00-0.104D+01 0.177D+01
 Gap=     0.384 Goal=   None    Shift=    0.000
 RMSDP=2.32D-05 MaxDP=1.92D-04 DE=-7.52D-07 OVMax= 2.18D-04

 Cycle   7  Pass 1  IDiag  3:
 E= -2.34062735939430     Delta-E=       -0.000000077657 Rises=F Damp=F
 DIIS: error= 3.40D-06 at cycle   7 NSaved=   7.
 NSaved= 7 IEnMin= 7 EnMin= -2.34062735939430     IErMin= 7 ErrMin= 3.40D-06
 ErrMax= 3.40D-06  0.00D+00 EMaxC= 1.00D-01 BMatC= 4.60D-10 BMatP= 8.16D-09
 IDIUse=1 WtCom= 1.00D+00 WtEn= 0.00D+00
 Coeff-Com: -0.406D-02 0.145D-01-0.833D-02-0.150D+00 0.605D+00-0.118D+01
 Coeff-Com:  0.172D+01
 Coeff:     -0.406D-02 0.145D-01-0.833D-02-0.150D+00 0.605D+00-0.118D+01
 Coeff:      0.172D+01
 Gap=     0.384 Goal=   None    Shift=    0.000
 RMSDP=5.15D-06 MaxDP=3.66D-05 DE=-7.77D-08 OVMax= 5.48D-05

 Cycle   8  Pass 1  IDiag  3:
 E= -2.34062736346887     Delta-E=       -0.000000004075 Rises=F Damp=F
 DIIS: error= 7.35D-07 at cycle   8 NSaved=   8.
 NSaved= 8 IEnMin= 8 EnMin= -2.34062736346887     IErMin= 8 ErrMin= 7.35D-07
 ErrMax= 7.35D-07  0.00D+00 EMaxC= 1.00D-01 BMatC= 2.88D-11 BMatP= 4.60D-10
 IDIUse=1 WtCom= 1.00D+00 WtEn= 0.00D+00
 Coeff-Com:  0.175D-02-0.622D-02 0.302D-02 0.680D-01-0.269D+00 0.531D+00
 Coeff-Com: -0.941D+00 0.161D+01
 Coeff:      0.175D-02-0.622D-02 0.302D-02 0.680D-01-0.269D+00 0.531D+00
 Coeff:     -0.941D+00 0.161D+01
 Gap=     0.384 Goal=   None    Shift=    0.000
 RMSDP=1.22D-06 MaxDP=7.85D-06 DE=-4.07D-09 OVMax= 1.23D-05

 Cycle   9  Pass 1  IDiag  3:
 E= -2.34062736371098     Delta-E=       -0.000000000242 Rises=F Damp=F
 DIIS: error= 1.67D-07 at cycle   9 NSaved=   9.
 NSaved= 9 IEnMin= 9 EnMin= -2.34062736371098     IErMin= 9 ErrMin= 1.67D-07
 ErrMax= 1.67D-07  0.00D+00 EMaxC= 1.00D-01 BMatC= 1.81D-12 BMatP= 2.88D-11
 IDIUse=1 WtCom= 1.00D+00 WtEn= 0.00D+00
 Coeff-Com: -0.641D-03 0.227D-02-0.963D-03-0.256D-01 0.100D+00-0.198D+00
 Coeff-Com:  0.368D+00-0.815D+00 0.157D+01
 Coeff:     -0.641D-03 0.227D-02-0.963D-03-0.256D-01 0.100D+00-0.198D+00
 Coeff:      0.368D+00-0.815D+00 0.157D+01
 Gap=     0.384 Goal=   None    Shift=    0.000
 RMSDP=3.01D-07 MaxDP=1.96D-06 DE=-2.42D-10 OVMax= 2.87D-06

 Cycle  10  Pass 1  IDiag  3:
 E= -2.34062736372654     Delta-E=       -0.000000000016 Rises=F Damp=F
 DIIS: error= 4.82D-08 at cycle  10 NSaved=  10.
 NSaved=10 IEnMin=10 EnMin= -2.34062736372654     IErMin=10 ErrMin= 4.82D-08
 ErrMax= 4.82D-08  0.00D+00 EMaxC= 1.00D-01 BMatC= 1.24D-13 BMatP= 1.81D-12
 IDIUse=1 WtCom= 1.00D+00 WtEn= 0.00D+00
 Coeff-Com:  0.156D-03-0.546D-03 0.148D-03 0.673D-02-0.257D-01 0.506D-01
 Coeff-Com: -0.969D-01 0.248D+00-0.692D+00 0.151D+01
 Coeff:      0.156D-03-0.546D-03 0.148D-03 0.673D-02-0.257D-01 0.506D-01
 Coeff:     -0.969D-01 0.248D+00-0.692D+00 0.151D+01
 Gap=     0.384 Goal=   None    Shift=    0.000
 RMSDP=7.64D-08 MaxDP=4.73D-07 DE=-1.56D-11 OVMax= 6.17D-07

 Cycle  11  Pass 1  IDiag  3:
 E= -2.34062736372765     Delta-E=       -0.000000000001 Rises=F Damp=F
 DIIS: error= 1.48D-08 at cycle  11 NSaved=  11.
 NSaved=11 IEnMin=11 EnMin= -2.34062736372765     IErMin=11 ErrMin= 1.48D-08
 ErrMax= 1.48D-08  0.00D+00 EMaxC= 1.00D-01 BMatC= 9.77D-15 BMatP= 1.24D-13
 IDIUse=1 WtCom= 1.00D+00 WtEn= 0.00D+00
 Coeff-Com: -0.234D-04 0.805D-04 0.214D-05-0.114D-02 0.418D-02-0.831D-02
 Coeff-Com:  0.170D-01-0.546D-01 0.210D+00-0.729D+00 0.156D+01
 Coeff:     -0.234D-04 0.805D-04 0.214D-05-0.114D-02 0.418D-02-0.831D-02
 Coeff:      0.170D-01-0.546D-01 0.210D+00-0.729D+00 0.156D+01
 Gap=     0.384 Goal=   None    Shift=    0.000
 RMSDP=2.28D-08 MaxDP=1.50D-07 DE=-1.11D-12 OVMax= 2.13D-07

 Cycle  12  Pass 1  IDiag  3:
 E= -2.34062736372751     Delta-E=        0.000000000000 Rises=F Damp=F
 DIIS: error= 3.43D-09 at cycle  12 NSaved=  12.
 NSaved=12 IEnMin=11 EnMin= -2.34062736372765     IErMin=12 ErrMin= 3.43D-09
 ErrMax= 3.43D-09  0.00D+00 EMaxC= 1.00D-01 BMatC= 5.94D-16 BMatP= 9.77D-15
 IDIUse=1 WtCom= 1.00D+00 WtEn= 0.00D+00
 Coeff-Com: -0.593D-06 0.302D-05-0.165D-04 0.640D-04-0.140D-03 0.308D-03
 Coeff-Com: -0.111D-02 0.852D-02-0.523D-01 0.241D+00-0.723D+00 0.153D+01
 Coeff:     -0.593D-06 0.302D-05-0.165D-04 0.640D-04-0.140D-03 0.308D-03
 Coeff:     -0.111D-02 0.852D-02-0.523D-01 0.241D+00-0.723D+00 0.153D+01
 Gap=     0.384 Goal=   None    Shift=    0.000
 RMSDP=5.12D-09 MaxDP=3.23D-08 DE= 1.42D-13 OVMax= 4.23D-08

 Cycle  13  Pass 2  IDiag  1:
 SCF Done:  E(RAM1) =  -2.34062736373     A.U. after   13 cycles
            NFock= 12  Conv=0.51D-08     -V/T= 0.8790
 KE=-1.934871956814D+01 PE=-1.702090876915D+02 EE= 8.506124633045D+01
 Leave Link  502 at Mon Nov 23 02:20:22 2015, MaxMem=    33554432 cpu:         0.0
 (Enter /home/Applications/g09/g09/l701.exe)
 Compute integral first derivatives.
 ... and contract with generalized density number  0.
 Leave Link  701 at Mon Nov 23 02:20:22 2015, MaxMem=    33554432 cpu:         0.0
 (Enter /home/Applications/g09/g09/l702.exe)
 L702 exits ... SP integral derivatives will be done elsewhere.
 Leave Link  702 at Mon Nov 23 02:20:22 2015, MaxMem=    33554432 cpu:         0.0
 (Enter /home/Applications/g09/g09/l703.exe)
 Compute integral first derivatives, UseDBF=F ICtDFT=           0.
 Integral derivatives from FoFJK, PRISM(SPDF).
 Calling FoFJK, ICntrl=      2127 FMM=F ISym2X=0 I1Cent= 0 IOpClX= 0 NMat=1 NMatS=1 NMatT=0.
 FoFJK:  IHMeth= 8 ICntrl=    2127 DoSepK=F KAlg= 0 I1Cent=   0 FoldK=F
 IRaf=         0 NMat=   1 IRICut=       1 DoRegI=T DoRafI=F ISym2E= 0.
 FoFCou: FMM=F IPFlag=           0 FMFlag=      100000 FMFlg1=         800
         NFxFlg=           0 DoJE=F BraDBF=F KetDBF=F FulRan=T
         wScrn=  0.000000 ICntrl=    2127 IOpCl=  0 I1Cent=           0 NGrid=           0
         NMat0=    1 NMatS0=      1 NMatT0=    0 NMatD0=    1 NMtDS0=    0 NMtDT0=    0
 Symmetry not used in FoFCou.
 Leave Link  703 at Mon Nov 23 02:20:22 2015, MaxMem=    33554432 cpu:         0.0
 (Enter /home/Applications/g09/g09/l716.exe)
 Dipole        = 2.17124578D-02-1.60425619D-01 3.26926591D-03
 ***** Axes restored to original set *****
 -------------------------------------------------------------------
 Center     Atomic                   Forces (Hartrees/Bohr)
 Number     Number              X              Y              Z
 -------------------------------------------------------------------
      1        6           0.012012661    0.010753165    0.001694392
      2        6           0.002553949    0.015759081    0.004777815
      3        8          -0.014751872   -0.008424605   -0.001039270
      4        6           0.003919155   -0.001068221   -0.001164327
      5        6          -0.010455443   -0.017644170   -0.004067297
      6        1           0.008457935   -0.000258718    0.002225757
      7        1          -0.002495053   -0.003926770    0.000816503
      8        1           0.001004646    0.007223107   -0.001736263
      9        1          -0.000245979   -0.002412869   -0.001507310
 -------------------------------------------------------------------
 Cartesian Forces:  Max     0.017644170 RMS     0.007324311
 Leave Link  716 at Mon Nov 23 02:20:22 2015, MaxMem=    33554432 cpu:         0.0
 (Enter /home/Applications/g09/g09/l103.exe)

 GradGradGradGradGradGradGradGradGradGradGradGradGradGradGradGradGradGrad
 Berny optimization.
 Using GEDIIS/GDIIS optimizer.
 FormGI is forming the generalized inverse of G from B-inverse, IUseBI=4.
 Internal  Forces:  Max     0.017813047 RMS     0.005586378
 Search for a local minimum.
 Step number   2 out of a maximum of   48
 All quantities printed in internal units (Hartrees-Bohrs-Radians)
 RMS Force = .55864D-02 SwitMx=.10000D-02 MixMth= 1
 Mixed Optimization -- RFO/linear search
 Update second derivatives using D2CorX and points    1    2
 DE= -1.51D-02 DEPred=-1.85D-02 R= 8.16D-01
 TightC=F SS=  1.41D+00  RLast= 3.46D-01 DXNew= 5.0454D-01 1.0368D+00
 Trust test= 8.16D-01 RLast= 3.46D-01 DXMaxT set to 5.05D-01
 ITU=  1  0
 Use linear search instead of GDIIS.
     Eigenvalues ---    0.01363   0.01764   0.02036   0.02137   0.02435
     Eigenvalues ---    0.02861   0.15344   0.15960   0.15988   0.16045
     Eigenvalues ---    0.22002   0.28352   0.29351   0.32775   0.33941
     Eigenvalues ---    0.37129   0.42668   0.44126   0.46695   0.53819
     Eigenvalues ---    0.59231
 RFO step:  Lambda=-4.02123790D-03 EMin= 1.36254551D-02
 Quartic linear search produced a step of -0.08065.
 Iteration  1 RMS(Cart)=  0.02782492 RMS(Int)=  0.00089150
 Iteration  2 RMS(Cart)=  0.00061124 RMS(Int)=  0.00056533
 Iteration  3 RMS(Cart)=  0.00000070 RMS(Int)=  0.00056533
 ITry= 1 IFail=0 DXMaxC= 6.62D-02 DCOld= 1.00D+10 DXMaxT= 5.05D-01 DXLimC= 3.00D+00 Rises=F
 Variable       Old X    -DE/DX   Delta X   Delta X   Delta X     New X
                                 (Linear)    (Quad)   (Total)
    R1        2.59075   0.00099  -0.00751   0.01841   0.01087   2.60162
    R2        2.75302  -0.01781   0.00439  -0.05791  -0.05344   2.69958
    R3        2.02512   0.00106   0.00595  -0.01118  -0.00522   2.01990
    R4        2.64076  -0.00687  -0.00147  -0.01017  -0.01172   2.62903
    R5        2.04055  -0.00691  -0.00114  -0.01427  -0.01541   2.02514
    R6        2.60214   0.00029  -0.00586   0.01457   0.00867   2.61081
    R7        2.59631   0.00578   0.00621  -0.00167   0.00462   2.60093
    R8        2.03383  -0.00252   0.00472  -0.01813  -0.01342   2.02041
    R9        2.00821   0.00647  -0.00612   0.02779   0.02167   2.02989
    A1        1.87809  -0.00660  -0.00514  -0.01748  -0.02242   1.85567
    A2        2.27255   0.00108   0.00218  -0.00233  -0.00030   2.27225
    A3        2.13190   0.00553   0.00296   0.02041   0.02319   2.15509
    A4        1.90078   0.01385   0.01060   0.02781   0.03799   1.93877
    A5        2.33670  -0.00435  -0.00725   0.00610  -0.00169   2.33501
    A6        2.04420  -0.00942  -0.00391  -0.03036  -0.03480   2.00940
    A7        1.87256  -0.01358  -0.00686  -0.03484  -0.04156   1.83100
    A8        1.93523   0.00398   0.00428   0.00666   0.01110   1.94633
    A9        2.05639  -0.00596  -0.00273  -0.02378  -0.02672   2.02967
   A10        2.29129   0.00199  -0.00153   0.01763   0.01589   2.30718
   A11        1.83804   0.00234  -0.00324   0.01829   0.01476   1.85280
   A12        2.23675  -0.00639   0.00455  -0.04410  -0.04037   2.19639
   A13        2.20600   0.00412  -0.00164   0.03041   0.02798   2.23398
    D1       -0.01165   0.00041  -0.00454   0.03040   0.02663   0.01498
    D2       -3.09056  -0.00119   0.00241  -0.04253  -0.04025  -3.13081
    D3        3.09099   0.00083  -0.00414   0.04875   0.04549   3.13648
    D4        0.01208  -0.00077   0.00280  -0.02418  -0.02138  -0.00930
    D5        0.00781  -0.00028   0.00052  -0.01260  -0.01186  -0.00406
    D6       -3.06262  -0.00157   0.00445  -0.08297  -0.07709  -3.13971
    D7       -3.09865  -0.00057   0.00016  -0.02863  -0.02860  -3.12725
    D8        0.11411  -0.00186   0.00409  -0.09900  -0.09383   0.02028
    D9        0.01105  -0.00052   0.00664  -0.03700  -0.03071  -0.01965
   D10        3.10189   0.00080   0.00046   0.02310   0.02339   3.12528
   D11       -0.00603   0.00041  -0.00591   0.02936   0.02303   0.01700
   D12        3.11329   0.00094  -0.00374   0.05039   0.04630  -3.12360
   D13       -0.00100  -0.00010   0.00359  -0.01061  -0.00729  -0.00829
   D14        3.07108   0.00060   0.00032   0.05415   0.05612   3.12720
   D15       -3.11639  -0.00059   0.00103  -0.03463  -0.03470   3.13210
   D16       -0.04431   0.00011  -0.00223   0.03014   0.02871  -0.01560
         Item               Value     Threshold  Converged?
 Maximum Force            0.017813     0.000450     NO 
 RMS     Force            0.005586     0.000300     NO 
 Maximum Displacement     0.066168     0.001800     NO 
 RMS     Displacement     0.028000     0.001200     NO 
 Predicted change in Energy=-2.223845D-03
 Lowest energy point so far.  Saving SCF results.
 GradGradGradGradGradGradGradGradGradGradGradGradGradGradGradGradGradGrad

 Leave Link  103 at Mon Nov 23 02:20:22 2015, MaxMem=    33554432 cpu:         0.0
 (Enter /home/Applications/g09/g09/l202.exe)
                          Input orientation:                          
 ---------------------------------------------------------------------
 Center     Atomic      Atomic             Coordinates (Angstroms)
 Number     Number       Type             X           Y           Z
 ---------------------------------------------------------------------
      1          6           0        0.961478   -0.716345    0.000154
      2          6           0       -0.361885   -1.095892    0.003147
      3          8           0       -1.200815    0.013737   -0.017553
      4          6           0       -0.350409    1.102532   -0.007376
      5          6           0        0.969421    0.712186   -0.003200
      6          1           0        1.843639    1.336337   -0.007688
      7          1           0       -0.814347    2.065776   -0.003277
      8          1           0       -0.861406   -2.043942    0.014504
      9          1           0        1.849621   -1.310862    0.016534
 ---------------------------------------------------------------------
                    Distance matrix (angstroms):
                    1          2          3          4          5
     1  C    0.000000
     2  C    1.376720   0.000000
     3  O    2.282290   1.391225   0.000000
     4  C    2.242636   2.198479   1.381582   0.000000
     5  C    1.428557   2.245343   2.279904   1.376350   0.000000
     6  H    2.234227   3.283320   3.319348   2.206471   1.074170
     7  H    3.300570   3.193886   2.088163   1.069156   2.239204
     8  H    2.255133   1.071657   2.085730   3.187772   3.308850
     9  H    1.068886   2.221970   3.325791   3.265758   2.206324
                    6          7          8          9
     6  H    0.000000
     7  H    2.756264   0.000000
     8  H    4.329439   4.110026   0.000000
     9  H    2.647317   4.301024   2.808394   0.000000
 Stoichiometry    C4H4O
 Framework group  C1[X(C4H4O)]
 Deg. of freedom    21
 Full point group                 C1      NOp   1
 RotChk:  IX=2 Diff= 3.74D-01
 Largest Abelian subgroup         C1      NOp   1
 Largest concise Abelian subgroup C1      NOp   1
                         Standard orientation:                         
 ---------------------------------------------------------------------
 Center     Atomic      Atomic             Coordinates (Angstroms)
 Number     Number       Type             X           Y           Z
 ---------------------------------------------------------------------
      1          6           0       -0.267629    1.178016    0.003623
      2          6           0       -1.149903    0.121188   -0.004313
      3          8           0       -0.474245   -1.094899    0.006885
      4          6           0        0.865417   -0.757330   -0.004101
      5          6           0        1.042111    0.607624    0.000279
      6          1           0        1.966476    1.154756    0.006270
      7          1           0        1.558775   -1.571104   -0.015103
      8          1           0       -2.219000    0.047761   -0.013739
      9          1           0       -0.452261    2.230796   -0.005435
 ---------------------------------------------------------------------
 Rotational constants (GHZ):      9.4834994      8.9168036      4.5958635
 Leave Link  202 at Mon Nov 23 02:20:22 2015, MaxMem=    33554432 cpu:         0.0
 (Enter /home/Applications/g09/g09/l301.exe)

 Semi-emprical parameters in input format:
 Method=8 CoreType=1 PeptideFC=0.0125750000 RIJScale=0.5666730000
 ****
 H       
 PQN=1 NValence=1 F0ss=0.4322380000 ZetaOverlap=1.1880780000 U=-0.4188110000
 Beta=-0.2156480000 CoreKO=1.1385450000 KON=0,0,0,1.0589200000 KON=1,0,1,1.1290450000
 KON=0,1,1,1.1706660000 KON=2,1,1,1.0589200000 EISol=-0.4188110042 EHeat=0.0830298228
 Alpha=1.5252600000
 GCore=0.0084690000,1.3383940000,2.2676710000
 GCore=0.0003530000,1.3533660000,3.6667160000
 GCore=-0.0011710000,0.6115380000,4.3212930000
 ****
 C       
 PQN=2,2 NValence=4 F0ss=0.4466820000 F0sp=0.4066640000 F0pp=0.3768030000 F2pp=0.1898720000
 G1sp=0.2679030000
 ZetaOverlap=1.8086650000,1.7840750000
 U=-1.9120180000,-1.5956620000
 Beta=-0.5629500000,-0.3031680000 DDN=0,1,0.7632320000 DDN=1,1,0.7847580000
 CoreKO=1.1124280000 KON=0,0,0,1.0889370000 KON=1,0,1,0.8219700000 KON=0,1,1,0.9893020000
 KON=2,1,1,0.7783930000 EISol=-4.4398989268 EHeat=0.2723305520 Alpha=1.3702060000
 DipHyp=1.5263761812
 GCore=0.0008320000,1.4654240000,2.8806590000
 GCore=0.0027890000,1.3245690000,3.2438410000
 GCore=-0.0012930000,1.2846020000,4.0922960000
 GCore=-0.0000880000,1.4958780000,4.9512050000
 ****
 O       
 PQN=2,2 NValence=6 F0ss=0.5666750000 F0sp=0.5060470000 F0pp=0.4958710000 F2pp=0.2150590000
 G1sp=0.4181060000
 ZetaOverlap=3.3086090000,2.5960610000
 U=-3.8586440000,-2.8743270000
 Beta=-1.1627760000,-1.1056560000 DDN=0,1,0.4676820000 DDN=1,1,0.4852320000
 CoreKO=1.0326690000 KON=0,0,0,0.8822960000 KON=1,0,1,0.5019540000 KON=0,1,1,0.8822960000
 KON=2,1,1,0.5406950000 EISol=-11.6164441184 EHeat=0.0949133088 Alpha=2.2592050000
 DipHyp=0.9353101877
 GCore=0.0202690000,1.4001430000,1.6127490000
 GCore=0.0056550000,2.0844870000,2.7600040000
 ****
 
 Standard basis: VSTO-6G (5D, 7F)
 Ernie: Thresh=  0.10000D-02 Tol=  0.10000D-05 Strict=F.
  NNHCO=     0 NNPyr=     0 NCTC=     0               EPep=         0.000000000
    EC=        67.484468100  ECS=         1.880356037   EG=         0.359392130
   EHC=         0.000000000  EAt=       -31.051283842  AtH=         1.516354808
 EPDDG=         0.000000000  ECC=        69.724216267 EAtT=        32.567638650
 There are    24 symmetry adapted cartesian basis functions of A   symmetry.
 There are    24 symmetry adapted basis functions of A   symmetry.
    24 basis functions,   144 primitive gaussians,    24 cartesian basis functions
    13 alpha electrons       13 beta electrons
       nuclear repulsion energy       102.2918549176 Hartrees.
 IExCor=    0 DFT=F Ex=HF Corr=None ExCW=0 ScaHFX=  1.000000
 ScaDFX=  1.000000  1.000000  1.000000  1.000000 ScalE2=  1.000000  1.000000
 IRadAn=      0 IRanWt=     -1 IRanGd=            0 ICorTp=0 IEmpDi=  4
 Integral buffers will be    131072 words long.
 Regular integral format.
 Two-electron integral symmetry is turned off.
 Leave Link  301 at Mon Nov 23 02:20:22 2015, MaxMem=    33554432 cpu:         0.0
 (Enter /home/Applications/g09/g09/l302.exe)
 Do NDO integrals.
 NPDir=0 NMtPBC=     1 NCelOv=     1 NCel=       1 NClECP=     1 NCelD=      1
         NCelK=      1 NCelE2=     1 NClLst=     1 CellRange=     0.0.
 One-electron integrals computed using PRISM.
 NBasis=    24 RedAO= F EigKep=  0.00D+00  NBF=    24
 NBsUse=    24 1.00D-04 EigRej=  0.00D+00 NBFU=    24
 Leave Link  302 at Mon Nov 23 02:20:22 2015, MaxMem=    33554432 cpu:         0.0
 (Enter /home/Applications/g09/g09/l303.exe)
 DipDrv:  MaxL=1.
 Leave Link  303 at Mon Nov 23 02:20:22 2015, MaxMem=    33554432 cpu:         0.0
 (Enter /home/Applications/g09/g09/l401.exe)
 Initial guess from the checkpoint file:  "/home/Applications/g09/scratch/Gau-2440.chk"
 B after Tr=     0.000000    0.000000    0.000000
         Rot=    0.991052    0.000020   -0.000003    0.133475 Ang=  15.34 deg.
 Guess basis will be translated and rotated to current coordinates.
 JPrj=0 DoOrth=T DoCkMO=T.
 Leave Link  401 at Mon Nov 23 02:20:22 2015, MaxMem=    33554432 cpu:         0.0
 (Enter /home/Applications/g09/g09/l502.exe)
 Closed shell SCF:
 Using DIIS extrapolation, IDIIS=  1040.
 Overlap will be assumed to be unity.
 Two-electron integral symmetry not used.
 Keep J ints in memory in canonical form, NReq=888082.
 IVT=       79475 IEndB=       79475 NGot=    33554432 MDV=    33473473
 LenX=    33473473 LenY=    33472456
 Requested convergence on RMS density matrix=1.00D-08 within 128 cycles.
 Requested convergence on MAX density matrix=1.00D-06.
 Requested convergence on             energy=1.00D-06.
 No special actions if energy rises.
 FoFCou: FMM=F IPFlag=           0 FMFlag=           0 FMFlg1=           0
         NFxFlg=           0 DoJE=F BraDBF=F KetDBF=F FulRan=T
         wScrn=  0.000000 ICntrl=     600 IOpCl=  2 I1Cent=           0 NGrid=           0
         NMat0=    1 NMatS0=     54 NMatT0=    0 NMatD0=    1 NMtDS0=    0 NMtDT0=    0
 Symmetry not used in FoFCou.

 Cycle   1  Pass 1  IDiag  1:
 E= -2.34106690215840    
 DIIS: error= 2.56D-03 at cycle   1 NSaved=   1.
 NSaved= 1 IEnMin= 1 EnMin= -2.34106690215840     IErMin= 1 ErrMin= 2.56D-03
 ErrMax= 2.56D-03  0.00D+00 EMaxC= 1.00D-01 BMatC= 2.91D-04 BMatP= 2.91D-04
 IDIUse=3 WtCom= 9.74D-01 WtEn= 2.56D-02
 Coeff-Com:  0.100D+01
 Coeff-En:   0.100D+01
 Coeff:      0.100D+01
 GapD=    2.000 DampG=2.000 DampE=1.000 DampFc=2.0000 IDamp=-1.
 RMSDP=1.29D-03 MaxDP=5.93D-03              OVMax= 0.00D+00

 Cycle   2  Pass 1  IDiag  3:
 E= -2.34204988265798     Delta-E=       -0.000982980500 Rises=F Damp=F
 DIIS: error= 9.74D-04 at cycle   2 NSaved=   2.
 NSaved= 2 IEnMin= 2 EnMin= -2.34204988265798     IErMin= 2 ErrMin= 9.74D-04
 ErrMax= 9.74D-04  0.00D+00 EMaxC= 1.00D-01 BMatC= 4.18D-05 BMatP= 2.91D-04
 IDIUse=3 WtCom= 9.90D-01 WtEn= 9.74D-03
 Coeff-Com: -0.516D+00 0.152D+01
 Coeff-En:   0.000D+00 0.100D+01
 Coeff:     -0.511D+00 0.151D+01
 Gap=     0.380 Goal=   None    Shift=    0.000
 RMSDP=8.56D-04 MaxDP=3.94D-03 DE=-9.83D-04 OVMax= 4.27D-03

 Cycle   3  Pass 1  IDiag  3:
 E= -2.34226153984480     Delta-E=       -0.000211657187 Rises=F Damp=F
 DIIS: error= 2.10D-04 at cycle   3 NSaved=   3.
 NSaved= 3 IEnMin= 3 EnMin= -2.34226153984480     IErMin= 3 ErrMin= 2.10D-04
 ErrMax= 2.10D-04  0.00D+00 EMaxC= 1.00D-01 BMatC= 1.80D-06 BMatP= 4.18D-05
 IDIUse=3 WtCom= 9.98D-01 WtEn= 2.10D-03
 Coeff-Com:  0.245D+00-0.822D+00 0.158D+01
 Coeff-En:   0.000D+00 0.000D+00 0.100D+01
 Coeff:      0.244D+00-0.820D+00 0.158D+01
 Gap=     0.379 Goal=   None    Shift=    0.000
 RMSDP=2.56D-04 MaxDP=1.48D-03 DE=-2.12D-04 OVMax= 1.88D-03

 Cycle   4  Pass 1  IDiag  3:
 E= -2.34227512428760     Delta-E=       -0.000013584443 Rises=F Damp=F
 DIIS: error= 6.84D-05 at cycle   4 NSaved=   4.
 NSaved= 4 IEnMin= 4 EnMin= -2.34227512428760     IErMin= 4 ErrMin= 6.84D-05
 ErrMax= 6.84D-05  0.00D+00 EMaxC= 1.00D-01 BMatC= 1.25D-07 BMatP= 1.80D-06
 IDIUse=1 WtCom= 1.00D+00 WtEn= 0.00D+00
 Coeff-Com: -0.102D+00 0.356D+00-0.843D+00 0.159D+01
 Coeff:     -0.102D+00 0.356D+00-0.843D+00 0.159D+01
 Gap=     0.379 Goal=   None    Shift=    0.000
 RMSDP=8.10D-05 MaxDP=6.00D-04 DE=-1.36D-05 OVMax= 7.92D-04

 Cycle   5  Pass 1  IDiag  3:
 E= -2.34227631861107     Delta-E=       -0.000001194323 Rises=F Damp=F
 DIIS: error= 2.36D-05 at cycle   5 NSaved=   5.
 NSaved= 5 IEnMin= 5 EnMin= -2.34227631861107     IErMin= 5 ErrMin= 2.36D-05
 ErrMax= 2.36D-05  0.00D+00 EMaxC= 1.00D-01 BMatC= 1.37D-08 BMatP= 1.25D-07
 IDIUse=1 WtCom= 1.00D+00 WtEn= 0.00D+00
 Coeff-Com:  0.341D-02-0.152D-01 0.756D-01-0.464D+00 0.140D+01
 Coeff:      0.341D-02-0.152D-01 0.756D-01-0.464D+00 0.140D+01
 Gap=     0.379 Goal=   None    Shift=    0.000
 RMSDP=2.85D-05 MaxDP=2.33D-04 DE=-1.19D-06 OVMax= 2.93D-04

 Cycle   6  Pass 1  IDiag  3:
 E= -2.34227645589914     Delta-E=       -0.000000137288 Rises=F Damp=F
 DIIS: error= 7.30D-06 at cycle   6 NSaved=   6.
 NSaved= 6 IEnMin= 6 EnMin= -2.34227645589914     IErMin= 6 ErrMin= 7.30D-06
 ErrMax= 7.30D-06  0.00D+00 EMaxC= 1.00D-01 BMatC= 1.80D-09 BMatP= 1.37D-08
 IDIUse=1 WtCom= 1.00D+00 WtEn= 0.00D+00
 Coeff-Com:  0.786D-02-0.259D-01 0.438D-01 0.839D-01-0.792D+00 0.168D+01
 Coeff:      0.786D-02-0.259D-01 0.438D-01 0.839D-01-0.792D+00 0.168D+01
 Gap=     0.379 Goal=   None    Shift=    0.000
 RMSDP=1.16D-05 MaxDP=8.39D-05 DE=-1.37D-07 OVMax= 1.33D-04

 Cycle   7  Pass 1  IDiag  3:
 E= -2.34227647396209     Delta-E=       -0.000000018063 Rises=F Damp=F
 DIIS: error= 1.38D-06 at cycle   7 NSaved=   7.
 NSaved= 7 IEnMin= 7 EnMin= -2.34227647396209     IErMin= 7 ErrMin= 1.38D-06
 ErrMax= 1.38D-06  0.00D+00 EMaxC= 1.00D-01 BMatC= 9.59D-11 BMatP= 1.80D-09
 IDIUse=1 WtCom= 1.00D+00 WtEn= 0.00D+00
 Coeff-Com: -0.521D-02 0.176D-01-0.353D-01 0.423D-02 0.292D+00-0.859D+00
 Coeff-Com:  0.159D+01
 Coeff:     -0.521D-02 0.176D-01-0.353D-01 0.423D-02 0.292D+00-0.859D+00
 Coeff:      0.159D+01
 Gap=     0.379 Goal=   None    Shift=    0.000
 RMSDP=2.34D-06 MaxDP=1.59D-05 DE=-1.81D-08 OVMax= 2.51D-05

 Cycle   8  Pass 1  IDiag  3:
 E= -2.34227647474884     Delta-E=       -0.000000000787 Rises=F Damp=F
 DIIS: error= 2.47D-07 at cycle   8 NSaved=   8.
 NSaved= 8 IEnMin= 8 EnMin= -2.34227647474884     IErMin= 8 ErrMin= 2.47D-07
 ErrMax= 2.47D-07  0.00D+00 EMaxC= 1.00D-01 BMatC= 3.30D-12 BMatP= 9.59D-11
 IDIUse=1 WtCom= 1.00D+00 WtEn= 0.00D+00
 Coeff-Com:  0.190D-02-0.641D-02 0.131D-01-0.272D-02-0.105D+00 0.322D+00
 Coeff-Com: -0.700D+00 0.148D+01
 Coeff:      0.190D-02-0.641D-02 0.131D-01-0.272D-02-0.105D+00 0.322D+00
 Coeff:     -0.700D+00 0.148D+01
 Gap=     0.379 Goal=   None    Shift=    0.000
 RMSDP=3.51D-07 MaxDP=2.20D-06 DE=-7.87D-10 OVMax= 2.90D-06

 Cycle   9  Pass 1  IDiag  3:
 E= -2.34227647477317     Delta-E=       -0.000000000024 Rises=F Damp=F
 DIIS: error= 6.90D-08 at cycle   9 NSaved=   9.
 NSaved= 9 IEnMin= 9 EnMin= -2.34227647477317     IErMin= 9 ErrMin= 6.90D-08
 ErrMax= 6.90D-08  0.00D+00 EMaxC= 1.00D-01 BMatC= 2.43D-13 BMatP= 3.30D-12
 IDIUse=1 WtCom= 1.00D+00 WtEn= 0.00D+00
 Coeff-Com: -0.791D-03 0.268D-02-0.548D-02 0.947D-03 0.451D-01-0.138D+00
 Coeff-Com:  0.309D+00-0.814D+00 0.160D+01
 Coeff:     -0.791D-03 0.268D-02-0.548D-02 0.947D-03 0.451D-01-0.138D+00
 Coeff:      0.309D+00-0.814D+00 0.160D+01
 Gap=     0.379 Goal=   None    Shift=    0.000
 RMSDP=1.04D-07 MaxDP=6.15D-07 DE=-2.43D-11 OVMax= 7.59D-07

 Cycle  10  Pass 1  IDiag  3:
 E= -2.34227647477516     Delta-E=       -0.000000000002 Rises=F Damp=F
 DIIS: error= 1.93D-08 at cycle  10 NSaved=  10.
 NSaved=10 IEnMin=10 EnMin= -2.34227647477516     IErMin=10 ErrMin= 1.93D-08
 ErrMax= 1.93D-08  0.00D+00 EMaxC= 1.00D-01 BMatC= 1.70D-14 BMatP= 2.43D-13
 IDIUse=1 WtCom= 1.00D+00 WtEn= 0.00D+00
 Coeff-Com:  0.211D-03-0.715D-03 0.147D-02-0.104D-03-0.131D-01 0.398D-01
 Coeff-Com: -0.900D-01 0.267D+00-0.743D+00 0.154D+01
 Coeff:      0.211D-03-0.715D-03 0.147D-02-0.104D-03-0.131D-01 0.398D-01
 Coeff:     -0.900D-01 0.267D+00-0.743D+00 0.154D+01
 Gap=     0.379 Goal=   None    Shift=    0.000
 RMSDP=2.89D-08 MaxDP=2.02D-07 DE=-1.99D-12 OVMax= 2.01D-07

 Cycle  11  Pass 1  IDiag  3:
 E= -2.34227647477529     Delta-E=        0.000000000000 Rises=F Damp=F
 DIIS: error= 4.76D-09 at cycle  11 NSaved=  11.
 NSaved=11 IEnMin=11 EnMin= -2.34227647477529     IErMin=11 ErrMin= 4.76D-09
 ErrMax= 4.76D-09  0.00D+00 EMaxC= 1.00D-01 BMatC= 1.23D-15 BMatP= 1.70D-14
 IDIUse=1 WtCom= 1.00D+00 WtEn= 0.00D+00
 Coeff-Com: -0.767D-04 0.260D-03-0.537D-03 0.135D-04 0.494D-02-0.149D-01
 Coeff-Com:  0.338D-01-0.103D+00 0.318D+00-0.853D+00 0.162D+01
 Coeff:     -0.767D-04 0.260D-03-0.537D-03 0.135D-04 0.494D-02-0.149D-01
 Coeff:      0.338D-01-0.103D+00 0.318D+00-0.853D+00 0.162D+01
 Gap=     0.379 Goal=   None    Shift=    0.000
 RMSDP=7.78D-09 MaxDP=6.70D-08 DE=-1.28D-13 OVMax= 7.36D-08

 Cycle  12  Pass 2  IDiag  1:
 SCF Done:  E(RAM1) =  -2.34227647478     A.U. after   12 cycles
            NFock= 11  Conv=0.78D-08     -V/T= 0.8791
 KE=-1.936998374792D+01 PE=-1.704267110556D+02 EE= 8.516256341113D+01
 Leave Link  502 at Mon Nov 23 02:20:22 2015, MaxMem=    33554432 cpu:         0.0
 (Enter /home/Applications/g09/g09/l701.exe)
 Compute integral first derivatives.
 ... and contract with generalized density number  0.
 Leave Link  701 at Mon Nov 23 02:20:22 2015, MaxMem=    33554432 cpu:         0.0
 (Enter /home/Applications/g09/g09/l702.exe)
 L702 exits ... SP integral derivatives will be done elsewhere.
 Leave Link  702 at Mon Nov 23 02:20:22 2015, MaxMem=    33554432 cpu:         0.0
 (Enter /home/Applications/g09/g09/l703.exe)
 Compute integral first derivatives, UseDBF=F ICtDFT=           0.
 Integral derivatives from FoFJK, PRISM(SPDF).
 Calling FoFJK, ICntrl=      2127 FMM=F ISym2X=0 I1Cent= 0 IOpClX= 0 NMat=1 NMatS=1 NMatT=0.
 FoFJK:  IHMeth= 8 ICntrl=    2127 DoSepK=F KAlg= 0 I1Cent=   0 FoldK=F
 IRaf=         0 NMat=   1 IRICut=       1 DoRegI=T DoRafI=F ISym2E= 0.
 FoFCou: FMM=F IPFlag=           0 FMFlag=      100000 FMFlg1=         800
         NFxFlg=           0 DoJE=F BraDBF=F KetDBF=F FulRan=T
         wScrn=  0.000000 ICntrl=    2127 IOpCl=  0 I1Cent=           0 NGrid=           0
         NMat0=    1 NMatS0=      1 NMatT0=    0 NMatD0=    1 NMtDS0=    0 NMtDT0=    0
 Symmetry not used in FoFCou.
 Leave Link  703 at Mon Nov 23 02:20:22 2015, MaxMem=    33554432 cpu:         0.0
 (Enter /home/Applications/g09/g09/l716.exe)
 Dipole        =-2.83532832D-02-1.39865192D-01-1.40387343D-02
 ***** Axes restored to original set *****
 -------------------------------------------------------------------
 Center     Atomic                   Forces (Hartrees/Bohr)
 Number     Number              X              Y              Z
 -------------------------------------------------------------------
      1        6          -0.002046281   -0.004037877    0.001952236
      2        6          -0.003610216   -0.001517960   -0.001894668
      3        8           0.008689670   -0.004187708    0.002143848
      4        6          -0.001514516    0.005577205   -0.001020498
      5        6          -0.000124733    0.007950706   -0.000573241
      6        1          -0.000239224   -0.001074251    0.000288145
      7        1          -0.002456659    0.002050514   -0.000277285
      8        1           0.000121044   -0.000590089   -0.000175339
      9        1           0.001180914   -0.004170541   -0.000443197
 -------------------------------------------------------------------
 Cartesian Forces:  Max     0.008689670 RMS     0.003161464
 Leave Link  716 at Mon Nov 23 02:20:22 2015, MaxMem=    33554432 cpu:         0.0
 (Enter /home/Applications/g09/g09/l103.exe)

 GradGradGradGradGradGradGradGradGradGradGradGradGradGradGradGradGradGrad
 Berny optimization.
 Using GEDIIS/GDIIS optimizer.
 FormGI is forming the generalized inverse of G from B-inverse, IUseBI=4.
 Internal  Forces:  Max     0.010229893 RMS     0.002655536
 Search for a local minimum.
 Step number   3 out of a maximum of   48
 All quantities printed in internal units (Hartrees-Bohrs-Radians)
 RMS Force = .26555D-02 SwitMx=.10000D-02 MixMth= 1
 Mixed Optimization -- RFO/linear search
 Update second derivatives using D2CorX and points    1    2    3
 DE= -1.65D-03 DEPred=-2.22D-03 R= 7.42D-01
 TightC=F SS=  1.41D+00  RLast= 2.08D-01 DXNew= 8.4853D-01 6.2370D-01
 Trust test= 7.42D-01 RLast= 2.08D-01 DXMaxT set to 6.24D-01
 ITU=  1  1  0
 Use linear search instead of GDIIS.
     Eigenvalues ---    0.01360   0.01763   0.02017   0.02124   0.02543
     Eigenvalues ---    0.02889   0.13254   0.15999   0.16018   0.16259
     Eigenvalues ---    0.21454   0.28605   0.32750   0.33357   0.36858
     Eigenvalues ---    0.41382   0.42213   0.46048   0.47228   0.54786
     Eigenvalues ---    0.59177
 RFO step:  Lambda=-5.54524253D-04 EMin= 1.35991607D-02
 Quartic linear search produced a step of -0.18779.
[...]
 Coeff-Com:  0.147D-02-0.469D-02 0.998D-02-0.173D-01-0.173D-01 0.283D+00
 Coeff-Com: -0.921D+00 0.167D+01
 Coeff:      0.147D-02-0.469D-02 0.998D-02-0.173D-01-0.173D-01 0.283D+00
 Coeff:     -0.921D+00 0.167D+01
 Gap=     0.381 Goal=   None    Shift=    0.000
 RMSDP=1.03D-08 MaxDP=5.54D-08 DE=-5.26D-13 OVMax= 7.68D-08

 Cycle   9  Pass 1  IDiag  3:
 E= -2.34267396120110     Delta-E=        0.000000000000 Rises=F Damp=F
 DIIS: error= 2.04D-09 at cycle   9 NSaved=   9.
 NSaved= 9 IEnMin= 8 EnMin= -2.34267396120147     IErMin= 9 ErrMin= 2.04D-09
 ErrMax= 2.04D-09  0.00D+00 EMaxC= 1.00D-01 BMatC= 1.27D-16 BMatP= 2.24D-15
 IDIUse=1 WtCom= 1.00D+00 WtEn= 0.00D+00
 Coeff-Com: -0.766D-03 0.244D-02-0.517D-02 0.889D-02 0.955D-02-0.149D+00
 Coeff-Com:  0.489D+00-0.101D+01 0.165D+01
 Coeff:     -0.766D-03 0.244D-02-0.517D-02 0.889D-02 0.955D-02-0.149D+00
 Coeff:      0.489D+00-0.101D+01 0.165D+01
 Gap=     0.381 Goal=   None    Shift=    0.000
 RMSDP=2.67D-09 MaxDP=1.84D-08 DE= 3.69D-13 OVMax= 2.63D-08

 Cycle  10  Pass 2  IDiag  1:
 SCF Done:  E(RAM1) =  -2.34267396120     A.U. after   10 cycles
            NFock=  9  Conv=0.27D-08     -V/T= 0.8790
 KE=-1.936356875923D+01 PE=-1.703680103010D+02 EE= 8.513647536138D+01
 Leave Link  502 at Mon Nov 23 02:20:23 2015, MaxMem=    33554432 cpu:         0.0
 (Enter /home/Applications/g09/g09/l701.exe)
 Compute integral first derivatives.
 ... and contract with generalized density number  0.
 Leave Link  701 at Mon Nov 23 02:20:23 2015, MaxMem=    33554432 cpu:         0.0
 (Enter /home/Applications/g09/g09/l702.exe)
 L702 exits ... SP integral derivatives will be done elsewhere.
 Leave Link  702 at Mon Nov 23 02:20:23 2015, MaxMem=    33554432 cpu:         0.0
 (Enter /home/Applications/g09/g09/l703.exe)
 Compute integral first derivatives, UseDBF=F ICtDFT=           0.
 Integral derivatives from FoFJK, PRISM(SPDF).
 Calling FoFJK, ICntrl=      2127 FMM=F ISym2X=0 I1Cent= 0 IOpClX= 0 NMat=1 NMatS=1 NMatT=0.
 FoFJK:  IHMeth= 8 ICntrl=    2127 DoSepK=F KAlg= 0 I1Cent=   0 FoldK=F
 IRaf=         0 NMat=   1 IRICut=       1 DoRegI=T DoRafI=F ISym2E= 0.
 FoFCou: FMM=F IPFlag=           0 FMFlag=      100000 FMFlg1=         800
         NFxFlg=           0 DoJE=F BraDBF=F KetDBF=F FulRan=T
         wScrn=  0.000000 ICntrl=    2127 IOpCl=  0 I1Cent=           0 NGrid=           0
         NMat0=    1 NMatS0=      1 NMatT0=    0 NMatD0=    1 NMtDS0=    0 NMtDT0=    0
 Symmetry not used in FoFCou.
 Leave Link  703 at Mon Nov 23 02:20:23 2015, MaxMem=    33554432 cpu:         0.0
 (Enter /home/Applications/g09/g09/l716.exe)
 Dipole        = 7.90695812D-04-1.57797155D-01-3.51335203D-04
 ***** Axes restored to original set *****
 -------------------------------------------------------------------
 Center     Atomic                   Forces (Hartrees/Bohr)
 Number     Number              X              Y              Z
 -------------------------------------------------------------------
      1        6          -0.000066737    0.000036413    0.000011743
      2        6          -0.000121040    0.000050382   -0.000027430
      3        8           0.000060903   -0.000077513    0.000071420
      4        6           0.000050060   -0.000038171   -0.000122363
      5        6          -0.000015853   -0.000043525    0.000083462
      6        1           0.000044491    0.000053970   -0.000010842
      7        1           0.000013343   -0.000016693    0.000016883
      8        1           0.000014316    0.000001211   -0.000005559
      9        1           0.000020518    0.000033927   -0.000017314
 -------------------------------------------------------------------
 Cartesian Forces:  Max     0.000122363 RMS     0.000052559
 Leave Link  716 at Mon Nov 23 02:20:23 2015, MaxMem=    33554432 cpu:         0.0
 (Enter /home/Applications/g09/g09/l103.exe)

 GradGradGradGradGradGradGradGradGradGradGradGradGradGradGradGradGradGrad
 Berny optimization.
 Using GEDIIS/GDIIS optimizer.
 FormGI is forming the generalized inverse of G from B-inverse, IUseBI=4.
 Internal  Forces:  Max     0.000111341 RMS     0.000033279
 Search for a local minimum.
 Step number   8 out of a maximum of   48
 All quantities printed in internal units (Hartrees-Bohrs-Radians)
 RMS Force = .33279D-04 SwitMx=.10000D-02 MixMth= 2
 Mixed Optimization -- En-DIIS/RFO-DIIS
 Swapping is turned off.
 Update second derivatives using D2CorX and points    1    2    3    4    5
                                                      6    7    8
 DE= -6.83D-07 DEPred=-7.95D-07 R= 8.59D-01
 Trust test= 8.59D-01 RLast= 5.68D-03 DXMaxT set to 6.24D-01
 ITU=  0  0  1  1  1  1  1  0
     Eigenvalues ---    0.01436   0.02009   0.02117   0.02759   0.04549
     Eigenvalues ---    0.05705   0.08759   0.11863   0.15931   0.16030
     Eigenvalues ---    0.24136   0.28561   0.32752   0.33236   0.36832
     Eigenvalues ---    0.41864   0.44099   0.49170   0.51588   0.54318
     Eigenvalues ---    0.62932
 En-DIIS/RFO-DIIS IScMMF=        0 using points:     8    7    6    5    4
 RFO step:  Lambda=-8.81308567D-08.
 NNeg= 0 NP= 5 Switch=  2.50D-03 Rises=F DC=  4.74D-05 SmlDif=  1.00D-05
 RMS Error=  0.8125664448D-04 NUsed= 5 EDIIS=F
 DidBck=F Rises=F RFO-DIIS coefs:    0.64228    0.17834    0.13482    0.03362    0.01093
 Iteration  1 RMS(Cart)=  0.00022001 RMS(Int)=  0.00000042
 Iteration  2 RMS(Cart)=  0.00000007 RMS(Int)=  0.00000041
 ITry= 1 IFail=0 DXMaxC= 5.77D-04 DCOld= 1.00D+10 DXMaxT= 6.24D-01 DXLimC= 3.00D+00 Rises=F
 Variable       Old X    -DE/DX   Delta X   Delta X   Delta X     New X
                                 (Linear)    (Quad)   (Total)
    R1        2.60037   0.00003   0.00003  -0.00002   0.00001   2.60039
    R2        2.71741  -0.00004   0.00000  -0.00014  -0.00014   2.71727
    R3        2.02704   0.00000   0.00002  -0.00003  -0.00001   2.02704
    R4        2.61740  -0.00011  -0.00003  -0.00012  -0.00015   2.61725
    R5        2.02675  -0.00001   0.00005  -0.00013  -0.00008   2.02667
    R6        2.61710   0.00001  -0.00010   0.00008  -0.00002   2.61708
    R7        2.60050  -0.00006   0.00005  -0.00015  -0.00010   2.60040
    R8        2.02678  -0.00002   0.00000  -0.00007  -0.00007   2.02671
    R9        2.02687   0.00007   0.00008   0.00008   0.00016   2.02703
    A1        1.85460   0.00004   0.00008   0.00006   0.00014   1.85474
    A2        2.24644   0.00002   0.00003   0.00023   0.00025   2.24669
    A3        2.18215  -0.00006  -0.00010  -0.00029  -0.00039   2.18175
    A4        1.93466  -0.00003  -0.00008  -0.00003  -0.00010   1.93456
    A5        2.33279   0.00000   0.00040  -0.00042  -0.00003   2.33276
    A6        2.01573   0.00003  -0.00032   0.00045   0.00013   2.01586
    A7        1.84614   0.00000   0.00005  -0.00004   0.00001   1.84615
    A8        1.93454   0.00003   0.00005   0.00003   0.00008   1.93462
    A9        2.01600  -0.00001   0.00022  -0.00016   0.00006   2.01606
   A10        2.33264  -0.00002  -0.00027   0.00013  -0.00014   2.33250
   A11        1.85483  -0.00005  -0.00010  -0.00002  -0.00012   1.85471
   A12        2.18139   0.00004   0.00006   0.00017   0.00023   2.18162
   A13        2.24697   0.00000   0.00004  -0.00015  -0.00011   2.24685
    D1        0.00012   0.00000  -0.00010  -0.00006  -0.00016  -0.00004
    D2       -3.14148   0.00000  -0.00025   0.00006  -0.00019   3.14152
    D3        3.14125   0.00000   0.00008   0.00020   0.00027   3.14152
    D4       -0.00036   0.00001  -0.00007   0.00031   0.00024  -0.00011
    D5        0.00034  -0.00002  -0.00026  -0.00008  -0.00034   0.00001
    D6        3.14138   0.00000  -0.00006   0.00028   0.00022  -3.14159
    D7       -3.14080  -0.00002  -0.00042  -0.00032  -0.00074  -3.14155
    D8        0.00023   0.00000  -0.00023   0.00004  -0.00019   0.00004
    D9       -0.00053   0.00002   0.00041   0.00017   0.00058   0.00005
   D10        3.14107   0.00002   0.00053   0.00008   0.00061  -3.14151
   D11        0.00076  -0.00004  -0.00059  -0.00022  -0.00081  -0.00004
   D12        3.14155  -0.00001  -0.00020   0.00020   0.00000   3.14156
   D13       -0.00069   0.00004   0.00053   0.00019   0.00072   0.00002
   D14        3.14149   0.00001   0.00032  -0.00019   0.00013  -3.14157
   D15       -3.14129   0.00000   0.00005  -0.00034  -0.00029  -3.14158
   D16        0.00090  -0.00003  -0.00016  -0.00072  -0.00088   0.00002
         Item               Value     Threshold  Converged?
 Maximum Force            0.000111     0.000450     YES
 RMS     Force            0.000033     0.000300     YES
 Maximum Displacement     0.000577     0.001800     YES
 RMS     Displacement     0.000220     0.001200     YES
 Predicted change in Energy=-1.249239D-07
 Optimization completed.
    -- Stationary point found.
                           ----------------------------
                           !   Optimized Parameters   !
                           ! (Angstroms and Degrees)  !
 --------------------------                            --------------------------
 ! Name  Definition              Value          Derivative Info.                !
 --------------------------------------------------------------------------------
 ! R1    R(1,2)                  1.3761         -DE/DX =    0.0                 !
 ! R2    R(1,5)                  1.438          -DE/DX =    0.0                 !
 ! R3    R(1,9)                  1.0727         -DE/DX =    0.0                 !
 ! R4    R(2,3)                  1.3851         -DE/DX =   -0.0001              !
 ! R5    R(2,8)                  1.0725         -DE/DX =    0.0                 !
 ! R6    R(3,4)                  1.3849         -DE/DX =    0.0                 !
 ! R7    R(4,5)                  1.3761         -DE/DX =   -0.0001              !
 ! R8    R(4,7)                  1.0725         -DE/DX =    0.0                 !
 ! R9    R(5,6)                  1.0726         -DE/DX =    0.0001              !
 ! A1    A(2,1,5)              106.2609         -DE/DX =    0.0                 !
 ! A2    A(2,1,9)              128.7114         -DE/DX =    0.0                 !
 ! A3    A(5,1,9)              125.0277         -DE/DX =   -0.0001              !
 ! A4    A(1,2,3)              110.848          -DE/DX =    0.0                 !
 ! A5    A(1,2,8)              133.6589         -DE/DX =    0.0                 !
 ! A6    A(3,2,8)              115.4931         -DE/DX =    0.0                 !
 ! A7    A(2,3,4)              105.7758         -DE/DX =    0.0                 !
 ! A8    A(3,4,5)              110.8412         -DE/DX =    0.0                 !
 ! A9    A(3,4,7)              115.5082         -DE/DX =    0.0                 !
 ! A10   A(5,4,7)              133.6506         -DE/DX =    0.0                 !
 ! A11   A(1,5,4)              106.274          -DE/DX =    0.0                 !
 ! A12   A(1,5,6)              124.9843         -DE/DX =    0.0                 !
 ! A13   A(4,5,6)              128.7417         -DE/DX =    0.0                 !
 ! D1    D(5,1,2,3)              0.0069         -DE/DX =    0.0                 !
 ! D2    D(5,1,2,8)            180.0063         -DE/DX =    0.0                 !
 ! D3    D(9,1,2,3)            179.9801         -DE/DX =    0.0                 !
 ! D4    D(9,1,2,8)             -0.0204         -DE/DX =    0.0                 !
 ! D5    D(2,1,5,4)              0.0197         -DE/DX =    0.0                 !
 ! D6    D(2,1,5,6)           -180.0125         -DE/DX =    0.0                 !
 ! D7    D(9,1,5,4)           -179.9548         -DE/DX =    0.0                 !
 ! D8    D(9,1,5,6)              0.0131         -DE/DX =    0.0                 !
 ! D9    D(1,2,3,4)             -0.0305         -DE/DX =    0.0                 !
 ! D10   D(8,2,3,4)           -180.0301         -DE/DX =    0.0                 !
 ! D11   D(2,3,4,5)              0.0437         -DE/DX =    0.0                 !
 ! D12   D(2,3,4,7)            179.9978         -DE/DX =    0.0                 !
 ! D13   D(3,4,5,1)             -0.0397         -DE/DX =    0.0                 !
 ! D14   D(3,4,5,6)           -180.006          -DE/DX =    0.0                 !
 ! D15   D(7,4,5,1)           -179.9825         -DE/DX =    0.0                 !
 ! D16   D(7,4,5,6)              0.0513         -DE/DX =    0.0                 !
 --------------------------------------------------------------------------------
 Lowest energy point so far.  Saving SCF results.
 GradGradGradGradGradGradGradGradGradGradGradGradGradGradGradGradGradGrad

 Largest change from initial coordinates is atom    9       1.903 Angstoms.
 Leave Link  103 at Mon Nov 23 02:20:23 2015, MaxMem=    33554432 cpu:         0.0
 (Enter /home/Applications/g09/g09/l202.exe)
                          Input orientation:                          
 ---------------------------------------------------------------------
 Center     Atomic      Atomic             Coordinates (Angstroms)
 Number     Number       Type             X           Y           Z
 ---------------------------------------------------------------------
      1          6           0        0.964258   -0.715065    0.005006
      2          6           0       -0.358354   -1.094845    0.003927
      3          8           0       -1.189369    0.013202   -0.004234
      4          6           0       -0.349066    1.114045   -0.007615
      5          6           0        0.970289    0.722895   -0.002804
      6          1           0        1.851627    1.334170   -0.003843
      7          1           0       -0.838253    2.068493   -0.014040
      8          1           0       -0.855878   -2.044966    0.008000
      9          1           0        1.840042   -1.334402    0.010849
 ---------------------------------------------------------------------
                    Distance matrix (angstroms):
                    1          2          3          4          5
     1  C    0.000000
     2  C    1.376058   0.000000
     3  O    2.273448   1.385070   0.000000
     4  C    2.251804   2.208940   1.384910   0.000000
     5  C    1.437994   2.251559   2.273277   1.376124   0.000000
     6  H    2.233129   3.283929   3.315511   2.211678   1.072574
     7  H    3.316263   3.199583   2.085090   1.072528   2.254237
     8  H    2.254227   1.072509   2.085047   3.199446   3.316030
     9  H    1.072665   2.211421   3.315659   3.284422   2.233635
                    6          7          8          9
     6  H    0.000000
     7  H    2.788331   0.000000
     8  H    4.330044   4.113556   0.000000
     9  H    2.668637   4.330540   2.787991   0.000000
 Stoichiometry    C4H4O
 Framework group  C1[X(C4H4O)]
 Deg. of freedom    21
 Full point group                 C1      NOp   1
 RotChk:  IX=2 Diff= 5.72D-14
 Largest Abelian subgroup         C1      NOp   1
 Largest concise Abelian subgroup C1      NOp   1
                         Standard orientation:                         
 ---------------------------------------------------------------------
 Center     Atomic      Atomic             Coordinates (Angstroms)
 Number     Number       Type             X           Y           Z
 ---------------------------------------------------------------------
      1          6           0       -0.725159    0.967070    0.000033
      2          6           0       -1.102213   -0.356322   -0.000056
      3          8           0        0.007564   -1.185064    0.000182
      4          6           0        1.106683   -0.342500   -0.000284
      5          6           0        0.712806    0.976052    0.000180
      6          1           0        1.322268    1.858646    0.000085
      7          1           0        2.062154   -0.829729   -0.000137
      8          1           0       -2.051319   -0.855795   -0.000257
      9          1           0       -1.346314    1.841586   -0.000388
 ---------------------------------------------------------------------
 Rotational constants (GHZ):      9.3938384      8.9729816      4.5892943
 Leave Link  202 at Mon Nov 23 02:20:23 2015, MaxMem=    33554432 cpu:         0.0
 (Enter /home/Applications/g09/g09/l601.exe)
 Copying SCF densities to generalized density rwf, IOpCl= 0 IROHF=0.

 **********************************************************************

            Population analysis using the SCF density.

 **********************************************************************

 Orbital symmetries:
       Occupied  (A) (A) (A) (A) (A) (A) (A) (A) (A) (A) (A) (A)
                 (A)
       Virtual   (A) (A) (A) (A) (A) (A) (A) (A) (A) (A) (A)
 The electronic state is 1-A.
 Alpha  occ. eigenvalues --   -1.66293  -1.21872  -1.00356  -0.80146  -0.78854
 Alpha  occ. eigenvalues --   -0.68957  -0.59301  -0.56140  -0.55338  -0.52345
 Alpha  occ. eigenvalues --   -0.51637  -0.42273  -0.39422
 Alpha virt. eigenvalues --   -0.01337   0.01260   0.10711   0.14406   0.18128
 Alpha virt. eigenvalues --    0.18321   0.19512   0.20221   0.20831   0.21578
 Alpha virt. eigenvalues --    0.22872
          Condensed to atoms (all electrons):
               1          2          3          4          5          6
     1  C    4.471633   0.000000   0.000000   0.000000   0.000000   0.000000
     2  C    0.000000   4.352418   0.000000   0.000000   0.000000   0.000000
     3  O    0.000000   0.000000   5.884016   0.000000   0.000000   0.000000
     4  C    0.000000   0.000000   0.000000   4.352294   0.000000   0.000000
     5  C    0.000000   0.000000   0.000000   0.000000   4.471743   0.000000
     6  H    0.000000   0.000000   0.000000   0.000000   0.000000   0.619862
     7  H    0.000000   0.000000   0.000000   0.000000   0.000000   0.000000
     8  H    0.000000   0.000000   0.000000   0.000000   0.000000   0.000000
     9  H    0.000000   0.000000   0.000000   0.000000   0.000000   0.000000
               7          8          9
     1  C    0.000000   0.000000   0.000000
     2  C    0.000000   0.000000   0.000000
     3  O    0.000000   0.000000   0.000000
     4  C    0.000000   0.000000   0.000000
     5  C    0.000000   0.000000   0.000000
     6  H    0.000000   0.000000   0.000000
     7  H    0.614086   0.000000   0.000000
     8  H    0.000000   0.614097   0.000000
     9  H    0.000000   0.000000   0.619850
 Mulliken charges:
               1
     1  C   -0.471633
     2  C   -0.352418
     3  O    0.115984
     4  C   -0.352294
     5  C   -0.471743
     6  H    0.380138
     7  H    0.385914
     8  H    0.385903
     9  H    0.380150
 Sum of Mulliken charges =   0.00000
 Mulliken charges with hydrogens summed into heavy atoms:
               1
     1  C   -0.091483
     2  C    0.033485
     3  O    0.115984
     4  C    0.033619
     5  C   -0.091605
 Charge=              0.0000 electrons
 Dipole moment (field-independent basis, Debye):
    X=              0.0020    Y=             -0.4011    Z=             -0.0009  Tot=              0.4011
 N-N= 1.022524297376D+02 E-N=-1.703680102913D+02  KE=-1.936356875923D+01
 Leave Link  601 at Mon Nov 23 02:20:23 2015, MaxMem=    33554432 cpu:         0.0
 (Enter /home/Applications/g09/g09/l9999.exe)
 1\1\GINC-DUSTIN-DESKTOP\FOpt\RAM1\ZDO\C4H4O1\DUSTIN\23-Nov-2015\0\\#P 
 AM1(Input,print) Opt\\AM1-Reparam Input\\0,1\C,0.9642577585,-0.7150650
 758,0.0050056393\C,-0.3583543597,-1.0948448931,0.003927169\O,-1.189368
 9139,0.0132019451,-0.0042340156\C,-0.3490656539,1.114045248,-0.0076153
 491\C,0.9702888952,0.7228950546,-0.0028040555\H,1.8516274386,1.3341698
 781,-0.0038434175\H,-0.8382525841,2.0684932107,-0.0140395667\H,-0.8558
 77721,-2.044965557,0.0079995533\H,1.8400421402,-1.3344018105,0.0108490
 43\\Version=ES64L-G09RevD.01\State=1-A\HF=-2.342674\RMSD=2.667e-09\RMS
 F=5.256e-05\Dipole=-0.1577988,0.0004667,-0.0000323\PG=C01 [X(C4H4O1)]\
 \@


 ALL MEN WHO EXPLORE
 DEPLORE
 THAT FRUSTRATING HURDLE
 THE GIRDLE.

         -- COLIN FLETCHER
 Job cpu time:       0 days  0 hours  0 minutes  1.3 seconds.
 File lengths (MBytes):  RWF=      5 Int=      0 D2E=      0 Chk=      2 Scr=      1
 Normal termination of Gaussian 09 at Mon Nov 23 02:20:23 2015.
