 Entering Gaussian System, Link 0=g09
 Input=FuranAM1Best8.com
 Output=FuranAM1Best8.log
 Initial command:
 /home/Applications/g09/g09/l1.exe "/home/Applications/g09/scratch/Gau-2459.inp" -scrdir="/home/Applications/g09/scratch/"
 Entering Link 1 = /home/Applications/g09/g09/l1.exe PID=      2461.
  
 Copyright (c) 1988,1990,1992,1993,1995,1998,2003,2009,2013,
            Gaussian, Inc.  All Rights Reserved.
  
 This is part of the Gaussian(R) 09 program.  It is based on
 the Gaussian(R) 03 system (copyright 2003, Gaussian, Inc.),
 the Gaussian(R) 98 system (copyright 1998, Gaussian, Inc.),
 the Gaussian(R) 94 system (copyright 1995, Gaussian, Inc.),
 the Gaussian 92(TM) system (copyright 1992, Gaussian, Inc.),
 the Gaussian 90(TM) system (copyright 1990, Gaussian, Inc.),
 the Gaussian 88(TM) system (copyright 1988, Gaussian, Inc.),
 the Gaussian 86(TM) system (copyright 1986, Carnegie Mellon
 University), and the Gaussian 82(TM) system (copyright 1983,
 Carnegie Mellon University). Gaussian is a federally registered
 trademark of Gaussian, Inc.
  
 This software contains proprietary and confidential information,
 including trade secrets, belonging to Gaussian, Inc.
  
 This software is provided under written license and may be
 used, copied, transmitted, or stored only in accord with that
 written license.
  
 The following legend is applicable only to US Government
 contracts under FAR:
  
                    RESTRICTED RIGHTS LEGEND
  
 Use, reproduction and disclosure by the US Government is
 subject to restrictions as set forth in subparagraphs (a)
 and (c) of the Commercial Computer Software - Restricted
 Rights clause in FAR 52.227-19.
  
 Gaussian, Inc.
 340 Quinnipiac St., Bldg. 40, Wallingford CT 06492
  
  
 ---------------------------------------------------------------
 Warning -- This program may not be used in any manner that
 competes with the business of Gaussian, Inc. or will provide
 assistance to any competitor of Gaussian, Inc.  The licensee
 of this program is prohibited from giving any competitor of
 Gaussian, Inc. access to this program.  By using this program,
 the user acknowledges that Gaussian, Inc. is engaged in the
 business of creating and licensing software in the field of
 computational chemistry and represents and warrants to the
 licensee that it is not a competitor of Gaussian, Inc. and that
 it will not use this program in any manner prohibited above.
 ---------------------------------------------------------------
  

 Cite this work as:
 Gaussian 09, Revision D.01,
 M. J. Frisch, G. W. Trucks, H. B. Schlegel, G. E. Scuseria, 
 M. A. Robb, J. R. Cheeseman, G. Scalmani, V. Barone, B. Mennucci, 
 G. A. Petersson, H. Nakatsuji, M. Caricato, X. Li, H. P. Hratchian, 
 A. F. Izmaylov, J. Bloino, G. Zheng, J. L. Sonnenberg, M. Hada, 
 M. Ehara, K. Toyota, R. Fukuda, J. Hasegawa, M. Ishida, T. Nakajima, 
 Y. Honda, O. Kitao, H. Nakai, T. Vreven, J. A. Montgomery, Jr., 
 J. E. Peralta, F. Ogliaro, M. Bearpark, J. J. Heyd, E. Brothers, 
 K. N. Kudin, V. N. Staroverov, T. Keith, R. Kobayashi, J. Normand, 
 K. Raghavachari, A. Rendell, J. C. Burant, S. S. Iyengar, J. Tomasi, 
 M. Cossi, N. Rega, J. M. Millam, M. Klene, J. E. Knox, J. B. Cross, 
 V. Bakken, C. Adamo, J. Jaramillo, R. Gomperts, R. E. Stratmann, 
 O. Yazyev, A. J. Austin, R. Cammi, C. Pomelli, J. W. Ochterski, 
 R. L. Martin, K. Morokuma, V. G. Zakrzewski, G. A. Voth, 
 P. Salvador, J. J. Dannenberg, S. Dapprich, A. D. Daniels, 
 O. Farkas, J. B. Foresman, J. V. Ortiz, J. Cioslowski, 
 and D. J. Fox, Gaussian, Inc., Wallingford CT, 2013.
 
 ******************************************
 Gaussian 09:  ES64L-G09RevD.01 24-Apr-2013
                23-Nov-2015 
 ******************************************
 -----------------------
 #P AM1(Input,print) Opt
 -----------------------
 1/14=-1,18=20,19=15,26=1,38=1/1,3;
 2/9=110,12=2,17=6,18=5,40=1/2;
 3/5=2,16=1,25=1,41=700000,71=1,135=100,136=1/1,2,3;
 4/35=1/1;
 5/5=2,35=1,38=5/2;
 6/7=2,8=2,9=2,10=2,28=1/1;
 7//1,2,3,16;
 1/14=-1,18=20,19=15,26=1/3(2);
 2/9=110/2;
 99//99;
 2/9=110/2;
 3/5=2,16=1,25=1,41=700000,71=1,135=20,136=1/1,2,3;
 4/5=5,16=3,35=1/1;
 5/5=2,35=1,38=5/2;
 7//1,2,3,16;
 1/14=-1,18=20,19=15,26=1/3(-5);
 2/9=110/2;
 6/7=2,8=2,9=2,10=2,19=2,28=1/1;
 99/9=1/99;
 Leave Link    1 at Mon Nov 23 02:20:25 2015, MaxMem=           0 cpu:         0.0
 (Enter /home/Applications/g09/g09/l101.exe)
 -----------------
 AM1-Reparam Input
 -----------------
 Symbolic Z-matrix:
 Charge =  0 Multiplicity = 1
 6                     0.97457  -0.67882  -0.02207 
 6                    -0.3071   -1.11781  -0.03111 
 8                    -1.15526  -0.02585   0.01363 
 6                    -0.33789   1.09102  -0.01831 
 6                     0.90923   0.7423   -0.0305 
 1                     1.86009   1.33361  -0.03911 
 1                    -0.80769   2.01382  -0.00553 
 1                    -0.85568  -2.02713  -0.01534 
 1                     1.84118  -1.36841  -0.04564 
 
 NAtoms=      9 NQM=        9 NQMF=       0 NMMI=      0 NMMIF=      0
                NMic=       0 NMicF=      0.
                    Isotopes and Nuclear Properties:
 (Nuclear quadrupole moments (NQMom) in fm**2, nuclear magnetic moments (NMagM)
  in nuclear magnetons)

  Atom         1           2           3           4           5           6           7           8           9
 IAtWgt=          12          12          16          12          12           1           1           1           1
 AtmWgt=  12.0000000  12.0000000  15.9949146  12.0000000  12.0000000   1.0078250   1.0078250   1.0078250   1.0078250
 NucSpn=           0           0           0           0           0           1           1           1           1
 AtZEff=   0.0000000   0.0000000   0.0000000   0.0000000   0.0000000   0.0000000   0.0000000   0.0000000   0.0000000
 NQMom=    0.0000000   0.0000000   0.0000000   0.0000000   0.0000000   0.0000000   0.0000000   0.0000000   0.0000000
 NMagM=    0.0000000   0.0000000   0.0000000   0.0000000   0.0000000   2.7928460   2.7928460   2.7928460   2.7928460
 AtZNuc=   6.0000000   6.0000000   8.0000000   6.0000000   6.0000000   1.0000000   1.0000000   1.0000000   1.0000000
 Leave Link  101 at Mon Nov 23 02:20:25 2015, MaxMem=    33554432 cpu:         0.0
 (Enter /home/Applications/g09/g09/l103.exe)

 GradGradGradGradGradGradGradGradGradGradGradGradGradGradGradGradGradGrad
 Berny optimization.
 Initialization pass.
                           ----------------------------
                           !    Initial Parameters    !
                           ! (Angstroms and Degrees)  !
 --------------------------                            --------------------------
 ! Name  Definition              Value          Derivative Info.                !
 --------------------------------------------------------------------------------
 ! R1    R(1,2)                  1.3548         estimate D2E/DX2                !
 ! R2    R(1,5)                  1.4226         estimate D2E/DX2                !
 ! R3    R(1,9)                  1.1078         estimate D2E/DX2                !
 ! R4    R(2,3)                  1.3834         estimate D2E/DX2                !
 ! R5    R(2,8)                  1.0621         estimate D2E/DX2                !
 ! R6    R(3,4)                  1.3844         estimate D2E/DX2                !
 ! R7    R(4,5)                  1.295          estimate D2E/DX2                !
 ! R8    R(4,7)                  1.0356         estimate D2E/DX2                !
 ! R9    R(5,6)                  1.1198         estimate D2E/DX2                !
 ! A1    A(2,1,5)              106.2717         estimate D2E/DX2                !
 ! A2    A(2,1,9)              122.5632         estimate D2E/DX2                !
 ! A3    A(5,1,9)              131.1215         estimate D2E/DX2                !
 ! A4    A(1,2,3)              108.9066         estimate D2E/DX2                !
 ! A5    A(1,2,8)              139.9913         estimate D2E/DX2                !
 ! A6    A(3,2,8)              111.017          estimate D2E/DX2                !
 ! A7    A(2,3,4)              105.9069         estimate D2E/DX2                !
 ! A8    A(3,4,5)              110.5828         estimate D2E/DX2                !
 ! A9    A(3,4,7)              116.7932         estimate D2E/DX2                !
 ! A10   A(5,4,7)              132.6052         estimate D2E/DX2                !
 ! A11   A(1,5,4)              108.2499         estimate D2E/DX2                !
 ! A12   A(1,5,6)              119.2448         estimate D2E/DX2                !
 ! A13   A(4,5,6)              132.504          estimate D2E/DX2                !
 ! D1    D(5,1,2,3)             -2.5557         estimate D2E/DX2                !
 ! D2    D(5,1,2,8)           -178.6859         estimate D2E/DX2                !
 ! D3    D(9,1,2,3)            179.6011         estimate D2E/DX2                !
 ! D4    D(9,1,2,8)              3.4709         estimate D2E/DX2                !
 ! D5    D(2,1,5,4)              1.1774         estimate D2E/DX2                !
 ! D6    D(2,1,5,6)           -179.1871         estimate D2E/DX2                !
 ! D7    D(9,1,5,4)            178.7643         estimate D2E/DX2                !
 ! D8    D(9,1,5,6)             -1.6002         estimate D2E/DX2                !
 ! D9    D(1,2,3,4)              2.9436         estimate D2E/DX2                !
 ! D10   D(8,2,3,4)           -179.7205         estimate D2E/DX2                !
 ! D11   D(2,3,4,5)             -2.2252         estimate D2E/DX2                !
 ! D12   D(2,3,4,7)            179.1554         estimate D2E/DX2                !
 ! D13   D(3,4,5,1)              0.6743         estimate D2E/DX2                !
 ! D14   D(3,4,5,6)           -178.8943         estimate D2E/DX2                !
 ! D15   D(7,4,5,1)            178.9999         estimate D2E/DX2                !
 ! D16   D(7,4,5,6)             -0.5687         estimate D2E/DX2                !
 --------------------------------------------------------------------------------
 Trust Radius=3.00D-01 FncErr=1.00D-07 GrdErr=1.00D-07
 Number of steps in this run=     48 maximum allowed number of steps=    100.
 GradGradGradGradGradGradGradGradGradGradGradGradGradGradGradGradGradGrad

 Leave Link  103 at Mon Nov 23 02:20:25 2015, MaxMem=    33554432 cpu:         0.0
 (Enter /home/Applications/g09/g09/l202.exe)
                          Input orientation:                          
 ---------------------------------------------------------------------
 Center     Atomic      Atomic             Coordinates (Angstroms)
 Number     Number       Type             X           Y           Z
 ---------------------------------------------------------------------
      1          6           0        0.974568   -0.678815   -0.022067
      2          6           0       -0.307097   -1.117809   -0.031112
      3          8           0       -1.155256   -0.025852    0.013632
      4          6           0       -0.337890    1.091017   -0.018307
      5          6           0        0.909226    0.742302   -0.030496
      6          1           0        1.860092    1.333609   -0.039114
      7          1           0       -0.807685    2.013815   -0.005526
      8          1           0       -0.855676   -2.027130   -0.015341
      9          1           0        1.841180   -1.368414   -0.045644
 ---------------------------------------------------------------------
                    Distance matrix (angstroms):
                    1          2          3          4          5
     1  C    0.000000
     2  C    1.354792   0.000000
     3  O    2.227955   1.383382   0.000000
     4  C    2.203376   2.209078   1.384378   0.000000
     5  C    1.422643   2.222488   2.203201   1.295009   0.000000
     6  H    2.198703   3.272036   3.308057   2.211427   1.119761
     7  H    3.229080   3.171484   2.069158   1.035580   2.136622
     8  H    2.273278   1.062098   2.023784   3.160847   3.284031
     9  H    1.107754   2.162893   3.283994   3.286015   2.307356
                    6          7          8          9
     6  H    0.000000
     7  H    2.753333   0.000000
     8  H    4.320941   4.041242   0.000000
     9  H    2.702097   4.296227   2.776303   0.000000
 Stoichiometry    C4H4O
 Framework group  C1[X(C4H4O)]
 Deg. of freedom    21
 Full point group                 C1      NOp   1
 Largest Abelian subgroup         C1      NOp   1
 Largest concise Abelian subgroup C1      NOp   1
                         Standard orientation:                         
 ---------------------------------------------------------------------
 Center     Atomic      Atomic             Coordinates (Angstroms)
 Number     Number       Type             X           Y           Z
 ---------------------------------------------------------------------
      1          6           0       -0.541693    1.050427   -0.010902
      2          6           0       -1.148823   -0.160404    0.016400
      3          8           0       -0.180642   -1.148078   -0.013142
      4          6           0        1.035865   -0.487682    0.009035
      5          6           0        0.857776    0.795003    0.001708
      6          1           0        1.571413    1.657886   -0.002622
      7          1           0        1.887221   -1.077264    0.005389
      8          1           0       -2.123570   -0.582100    0.006820
      9          1           0       -1.108678    2.002039   -0.001896
 ---------------------------------------------------------------------
 Rotational constants (GHZ):      9.5364628      9.3930612      4.7328637
 Leave Link  202 at Mon Nov 23 02:20:25 2015, MaxMem=    33554432 cpu:         0.0
 (Enter /home/Applications/g09/g09/l301.exe)

 Semi-emprical parameters in input format:
 Method=8 CoreType=1 PeptideFC=0.0125750000 RIJScale=0.5666730000
 ****
 H       
 PQN=1 NValence=1 F0ss=0.4322380000 ZetaOverlap=1.1880780000 U=-0.4188110000
 Beta=-0.2156480000 CoreKO=1.1385450000 KON=0,0,0,1.0589200000 KON=1,0,1,1.1290450000
 KON=0,1,1,1.1706660000 KON=2,1,1,1.0589200000 EISol=-0.4188110042 EHeat=0.0830298228
 Alpha=1.5252600000
 GCore=0.0084690000,1.3383940000,2.2676710000
 GCore=0.0003530000,1.3533660000,3.6667160000
 GCore=-0.0011710000,0.6115380000,4.3212930000
 ****
 C       
 PQN=2,2 NValence=4 F0ss=0.4466820000 F0sp=0.4066640000 F0pp=0.3768030000 F2pp=0.1898720000
 G1sp=0.2679030000
 ZetaOverlap=1.8086650000,1.7840750000
 U=-1.9120180000,-1.5956620000
 Beta=-0.5629500000,-0.3031680000 DDN=0,1,0.7632320000 DDN=1,1,0.7847580000
 CoreKO=1.1124280000 KON=0,0,0,1.0889370000 KON=1,0,1,0.8219700000 KON=0,1,1,0.9893020000
 KON=2,1,1,0.7783930000 EISol=-4.4398989268 EHeat=0.2723305520 Alpha=1.3702060000
 DipHyp=1.5263761812
 GCore=0.0008320000,1.4654240000,2.8806590000
 GCore=0.0027890000,1.3245690000,3.2438410000
 GCore=-0.0012930000,1.2846020000,4.0922960000
 GCore=-0.0000880000,1.4958780000,4.9512050000
 ****
 O       
 PQN=2,2 NValence=6 F0ss=0.5666750000 F0sp=0.5060470000 F0pp=0.4958710000 F2pp=0.2150590000
 G1sp=0.4181060000
 ZetaOverlap=3.3086090000,2.5960610000
 U=-3.8586440000,-2.8743270000
 Beta=-1.1627760000,-1.1056560000 DDN=0,1,0.4676820000 DDN=1,1,0.4852320000
 CoreKO=1.0326690000 KON=0,0,0,0.8822960000 KON=1,0,1,0.5019540000 KON=0,1,1,0.8822960000
 KON=2,1,1,0.5406950000 EISol=-11.6164441184 EHeat=0.0949133088 Alpha=2.2592050000
 DipHyp=0.9353101877
 GCore=0.0202690000,1.4001430000,1.6127490000
 GCore=0.0056550000,2.0844870000,2.7600040000
 ****
 
 Standard basis: VSTO-6G (5D, 7F)
 Ernie: Thresh=  0.10000D-02 Tol=  0.10000D-05 Strict=F.
  NNHCO=     0 NNPyr=     0 NCTC=     0               EPep=         0.000000000
    EC=        68.090346632  ECS=         1.975898636   EG=         0.360323350
   EHC=         0.000000000  EAt=       -31.051283842  AtH=         1.516354808
 EPDDG=         0.000000000  ECC=        70.426568618 EAtT=        32.567638650
 There are    24 symmetry adapted cartesian basis functions of A   symmetry.
 There are    24 symmetry adapted basis functions of A   symmetry.
    24 basis functions,   144 primitive gaussians,    24 cartesian basis functions
    13 alpha electrons       13 beta electrons
       nuclear repulsion energy       102.9942072684 Hartrees.
 IExCor=    0 DFT=F Ex=HF Corr=None ExCW=0 ScaHFX=  1.000000
 ScaDFX=  1.000000  1.000000  1.000000  1.000000 ScalE2=  1.000000  1.000000
 IRadAn=      0 IRanWt=     -1 IRanGd=            0 ICorTp=0 IEmpDi=  4
 Integral buffers will be    131072 words long.
 Regular integral format.
 Two-electron integral symmetry is turned off.
 Leave Link  301 at Mon Nov 23 02:20:25 2015, MaxMem=    33554432 cpu:         0.0
 (Enter /home/Applications/g09/g09/l302.exe)
 Do NDO integrals.
 NPDir=0 NMtPBC=     1 NCelOv=     1 NCel=       1 NClECP=     1 NCelD=      1
         NCelK=      1 NCelE2=     1 NClLst=     1 CellRange=     0.0.
 One-electron integrals computed using PRISM.
 NBasis=    24 RedAO= F EigKep=  0.00D+00  NBF=    24
 NBsUse=    24 1.00D-04 EigRej=  0.00D+00 NBFU=    24
 Leave Link  302 at Mon Nov 23 02:20:25 2015, MaxMem=    33554432 cpu:         0.0
 (Enter /home/Applications/g09/g09/l303.exe)
 DipDrv:  MaxL=1.
 Leave Link  303 at Mon Nov 23 02:20:25 2015, MaxMem=    33554432 cpu:         0.0
 (Enter /home/Applications/g09/g09/l401.exe)
 Simple Huckel Guess.
 JPrj=0 DoOrth=F DoCkMO=F.
 Leave Link  401 at Mon Nov 23 02:20:25 2015, MaxMem=    33554432 cpu:         0.0
 (Enter /home/Applications/g09/g09/l502.exe)
 Closed shell SCF:
 Using DIIS extrapolation, IDIIS=  1040.
 Overlap will be assumed to be unity.
 Two-electron integral symmetry not used.
 Keep J ints in memory in canonical form, NReq=888082.
 IVT=       79475 IEndB=       79475 NGot=    33554432 MDV=    33473473
 LenX=    33473473 LenY=    33472456
 Requested convergence on RMS density matrix=1.00D-08 within 128 cycles.
 Requested convergence on MAX density matrix=1.00D-06.
 Requested convergence on             energy=1.00D-06.
 No special actions if energy rises.
 FoFCou: FMM=F IPFlag=           0 FMFlag=           0 FMFlg1=           0
         NFxFlg=           0 DoJE=F BraDBF=F KetDBF=F FulRan=T
         wScrn=  0.000000 ICntrl=     600 IOpCl=  2 I1Cent=           0 NGrid=           0
         NMat0=    1 NMatS0=     54 NMatT0=    0 NMatD0=    1 NMtDS0=    0 NMtDT0=    0
 Symmetry not used in FoFCou.

 Cycle   1  Pass 1  IDiag  1:
 E= -1.77249123334291    
 DIIS: error= 9.43D-02 at cycle   1 NSaved=   1.
 NSaved= 1 IEnMin= 1 EnMin= -1.77249123334291     IErMin= 1 ErrMin= 9.43D-02
 ErrMax= 9.43D-02  0.00D+00 EMaxC= 1.00D-01 BMatC= 2.15D-01 BMatP= 2.15D-01
 IDIUse=3 WtCom= 5.70D-02 WtEn= 9.43D-01
 Coeff-Com:  0.100D+01
 Coeff-En:   0.100D+01
 Coeff:      0.100D+01
 GapD=    2.000 DampG=2.000 DampE=0.500 DampFc=1.0000 IDamp=-1.
 RMSDP=2.59D-02 MaxDP=2.08D-01              OVMax= 0.00D+00

 Cycle   2  Pass 1  IDiag  1:
 E= -2.27484153404193     Delta-E=       -0.502350300699 Rises=F Damp=F
 DIIS: error= 2.53D-02 at cycle   2 NSaved=   2.
 NSaved= 2 IEnMin= 2 EnMin= -2.27484153404193     IErMin= 2 ErrMin= 2.53D-02
 ErrMax= 2.53D-02  0.00D+00 EMaxC= 1.00D-01 BMatC= 1.52D-02 BMatP= 2.15D-01
 IDIUse=3 WtCom= 7.47D-01 WtEn= 2.53D-01
 Coeff-Com: -0.289D+00 0.129D+01
 Coeff-En:   0.000D+00 0.100D+01
 Coeff:     -0.216D+00 0.122D+01
 RMSDP=9.66D-03 MaxDP=8.02D-02 DE=-5.02D-01 OVMax= 0.00D+00

 Cycle   3  Pass 1  IDiag  1:
 E= -2.32198472263930     Delta-E=       -0.047143188597 Rises=F Damp=F
 DIIS: error= 4.68D-03 at cycle   3 NSaved=   3.
 NSaved= 3 IEnMin= 3 EnMin= -2.32198472263930     IErMin= 3 ErrMin= 4.68D-03
 ErrMax= 4.68D-03  0.00D+00 EMaxC= 1.00D-01 BMatC= 9.19D-04 BMatP= 1.52D-02
 IDIUse=3 WtCom= 9.53D-01 WtEn= 4.68D-02
 Coeff-Com:  0.152D+00-0.779D+00 0.163D+01
 Coeff-En:   0.000D+00 0.000D+00 0.100D+01
 Coeff:      0.145D+00-0.742D+00 0.160D+01
 RMSDP=3.87D-03 MaxDP=3.48D-02 DE=-4.71D-02 OVMax= 0.00D+00

 Cycle   4  Pass 1  IDiag  3:
 E= -2.32649271348728     Delta-E=       -0.004507990848 Rises=F Damp=F
 DIIS: error= 1.08D-03 at cycle   4 NSaved=   4.
 NSaved= 4 IEnMin= 4 EnMin= -2.32649271348728     IErMin= 4 ErrMin= 1.08D-03
 ErrMax= 1.08D-03  0.00D+00 EMaxC= 1.00D-01 BMatC= 3.45D-05 BMatP= 9.19D-04
 IDIUse=3 WtCom= 9.89D-01 WtEn= 1.08D-02
 Coeff-Com: -0.238D-02-0.853D-04-0.146D+00 0.115D+01
 Coeff-En:   0.000D+00 0.000D+00 0.000D+00 0.100D+01
 Coeff:     -0.235D-02-0.844D-04-0.144D+00 0.115D+01
 Gap=     0.395 Goal=   None    Shift=    0.000
 RMSDP=7.58D-04 MaxDP=8.28D-03 DE=-4.51D-03 OVMax= 6.44D-03

 Cycle   5  Pass 1  IDiag  3:
 E= -2.32666571261652     Delta-E=       -0.000172999129 Rises=F Damp=F
 DIIS: error= 2.56D-04 at cycle   5 NSaved=   5.
 NSaved= 5 IEnMin= 5 EnMin= -2.32666571261652     IErMin= 5 ErrMin= 2.56D-04
 ErrMax= 2.56D-04  0.00D+00 EMaxC= 1.00D-01 BMatC= 2.51D-06 BMatP= 3.45D-05
 IDIUse=3 WtCom= 9.97D-01 WtEn= 2.56D-03
 Coeff-Com: -0.343D-02 0.245D-01-0.216D-01-0.323D+00 0.132D+01
 Coeff-En:   0.000D+00 0.000D+00 0.000D+00 0.000D+00 0.100D+01
 Coeff:     -0.342D-02 0.244D-01-0.215D-01-0.322D+00 0.132D+01
 Gap=     0.394 Goal=   None    Shift=    0.000
 RMSDP=2.37D-04 MaxDP=2.03D-03 DE=-1.73D-04 OVMax= 2.62D-03

 Cycle   6  Pass 1  IDiag  3:
 E= -2.32668189026612     Delta-E=       -0.000016177650 Rises=F Damp=F
 DIIS: error= 8.62D-05 at cycle   6 NSaved=   6.
 NSaved= 6 IEnMin= 6 EnMin= -2.32668189026612     IErMin= 6 ErrMin= 8.62D-05
 ErrMax= 8.62D-05  0.00D+00 EMaxC= 1.00D-01 BMatC= 3.43D-07 BMatP= 2.51D-06
 IDIUse=1 WtCom= 1.00D+00 WtEn= 0.00D+00
 Coeff-Com:  0.113D-02-0.710D-02 0.190D-01 0.530D-02-0.520D+00 0.150D+01
 Coeff:      0.113D-02-0.710D-02 0.190D-01 0.530D-02-0.520D+00 0.150D+01
 Gap=     0.394 Goal=   None    Shift=    0.000
 RMSDP=1.18D-04 MaxDP=1.00D-03 DE=-1.62D-05 OVMax= 1.45D-03

 Cycle   7  Pass 1  IDiag  3:
 E= -2.32668463748480     Delta-E=       -0.000002747219 Rises=F Damp=F
 DIIS: error= 3.86D-05 at cycle   7 NSaved=   7.
 NSaved= 7 IEnMin= 7 EnMin= -2.32668463748480     IErMin= 7 ErrMin= 3.86D-05
 ErrMax= 3.86D-05  0.00D+00 EMaxC= 1.00D-01 BMatC= 2.89D-08 BMatP= 3.43D-07
 IDIUse=1 WtCom= 1.00D+00 WtEn= 0.00D+00
 Coeff-Com: -0.141D-03 0.956D-03-0.533D-02 0.895D-02 0.209D+00-0.848D+00
 Coeff-Com:  0.163D+01
 Coeff:     -0.141D-03 0.956D-03-0.533D-02 0.895D-02 0.209D+00-0.848D+00
 Coeff:      0.163D+01
 Gap=     0.395 Goal=   None    Shift=    0.000
 RMSDP=4.07D-05 MaxDP=3.44D-04 DE=-2.75D-06 OVMax= 5.00D-04

 Cycle   8  Pass 1  IDiag  3:
 E= -2.32668491036586     Delta-E=       -0.000000272881 Rises=F Damp=F
 DIIS: error= 1.24D-05 at cycle   8 NSaved=   8.
 NSaved= 8 IEnMin= 8 EnMin= -2.32668491036586     IErMin= 8 ErrMin= 1.24D-05
 ErrMax= 1.24D-05  0.00D+00 EMaxC= 1.00D-01 BMatC= 2.28D-09 BMatP= 2.89D-08
 IDIUse=1 WtCom= 1.00D+00 WtEn= 0.00D+00
 Coeff-Com:  0.381D-04-0.312D-03 0.282D-02-0.611D-02-0.134D+00 0.565D+00
 Coeff-Com: -0.126D+01 0.184D+01
 Coeff:      0.381D-04-0.312D-03 0.282D-02-0.611D-02-0.134D+00 0.565D+00
 Coeff:     -0.126D+01 0.184D+01
 Gap=     0.395 Goal=   None    Shift=    0.000
 RMSDP=1.36D-05 MaxDP=1.27D-04 DE=-2.73D-07 OVMax= 1.67D-04

 Cycle   9  Pass 1  IDiag  3:
 E= -2.32668493457412     Delta-E=       -0.000000024208 Rises=F Damp=F
 DIIS: error= 1.78D-06 at cycle   9 NSaved=   9.
 NSaved= 9 IEnMin= 9 EnMin= -2.32668493457412     IErMin= 9 ErrMin= 1.78D-06
 ErrMax= 1.78D-06  0.00D+00 EMaxC= 1.00D-01 BMatC= 1.01D-10 BMatP= 2.28D-09
 IDIUse=1 WtCom= 1.00D+00 WtEn= 0.00D+00
 Coeff-Com: -0.968D-05 0.871D-04-0.772D-03 0.117D-02 0.434D-01-0.179D+00
 Coeff-Com:  0.408D+00-0.746D+00 0.147D+01
 Coeff:     -0.968D-05 0.871D-04-0.772D-03 0.117D-02 0.434D-01-0.179D+00
 Coeff:      0.408D+00-0.746D+00 0.147D+01
 Gap=     0.395 Goal=   None    Shift=    0.000
 RMSDP=2.45D-06 MaxDP=2.14D-05 DE=-2.42D-08 OVMax= 2.88D-05

 Cycle  10  Pass 1  IDiag  3:
 E= -2.32668493538640     Delta-E=       -0.000000000812 Rises=F Damp=F
 DIIS: error= 2.98D-07 at cycle  10 NSaved=  10.
 NSaved=10 IEnMin=10 EnMin= -2.32668493538640     IErMin=10 ErrMin= 2.98D-07
 ErrMax= 2.98D-07  0.00D+00 EMaxC= 1.00D-01 BMatC= 4.47D-12 BMatP= 1.01D-10
 IDIUse=1 WtCom= 1.00D+00 WtEn= 0.00D+00
 Coeff-Com:  0.163D-05-0.178D-04 0.219D-03-0.378D-03-0.130D-01 0.544D-01
 Coeff-Com: -0.127D+00 0.250D+00-0.638D+00 0.147D+01
 Coeff:      0.163D-05-0.178D-04 0.219D-03-0.378D-03-0.130D-01 0.544D-01
 Coeff:     -0.127D+00 0.250D+00-0.638D+00 0.147D+01
 Gap=     0.395 Goal=   None    Shift=    0.000
 RMSDP=3.43D-07 MaxDP=2.40D-06 DE=-8.12D-10 OVMax= 3.27D-06

 Cycle  11  Pass 1  IDiag  3:
 E= -2.32668493541064     Delta-E=       -0.000000000024 Rises=F Damp=F
 DIIS: error= 7.96D-08 at cycle  11 NSaved=  11.
 NSaved=11 IEnMin=11 EnMin= -2.32668493541064     IErMin=11 ErrMin= 7.96D-08
 ErrMax= 7.96D-08  0.00D+00 EMaxC= 1.00D-01 BMatC= 1.89D-13 BMatP= 4.47D-12
 IDIUse=1 WtCom= 1.00D+00 WtEn= 0.00D+00
 Coeff-Com: -0.325D-06 0.619D-05-0.831D-04 0.107D-03 0.549D-02-0.226D-01
 Coeff-Com:  0.526D-01-0.104D+00 0.275D+00-0.737D+00 0.153D+01
 Coeff:     -0.325D-06 0.619D-05-0.831D-04 0.107D-03 0.549D-02-0.226D-01
 Coeff:      0.526D-01-0.104D+00 0.275D+00-0.737D+00 0.153D+01
 Gap=     0.395 Goal=   None    Shift=    0.000
 RMSDP=6.16D-08 MaxDP=4.36D-07 DE=-2.42D-11 OVMax= 3.20D-07

 Cycle  12  Pass 1  IDiag  3:
 E= -2.32668493541171     Delta-E=       -0.000000000001 Rises=F Damp=F
 DIIS: error= 1.49D-08 at cycle  12 NSaved=  12.
 NSaved=12 IEnMin=12 EnMin= -2.32668493541171     IErMin=12 ErrMin= 1.49D-08
 ErrMax= 1.49D-08  0.00D+00 EMaxC= 1.00D-01 BMatC= 7.76D-15 BMatP= 1.89D-13
 IDIUse=1 WtCom= 1.00D+00 WtEn= 0.00D+00
 Coeff-Com:  0.234D-06-0.290D-05 0.321D-04-0.377D-04-0.209D-02 0.857D-02
 Coeff-Com: -0.200D-01 0.396D-01-0.105D+00 0.292D+00-0.738D+00 0.153D+01
 Coeff:      0.234D-06-0.290D-05 0.321D-04-0.377D-04-0.209D-02 0.857D-02
 Coeff:     -0.200D-01 0.396D-01-0.105D+00 0.292D+00-0.738D+00 0.153D+01
 Gap=     0.395 Goal=   None    Shift=    0.000
 RMSDP=1.38D-08 MaxDP=8.56D-08 DE=-1.07D-12 OVMax= 7.12D-08

 Cycle  13  Pass 1  IDiag  3:
 E= -2.32668493541162     Delta-E=        0.000000000000 Rises=F Damp=F
 DIIS: error= 3.60D-09 at cycle  13 NSaved=  13.
 NSaved=13 IEnMin=12 EnMin= -2.32668493541171     IErMin=13 ErrMin= 3.60D-09
 ErrMax= 3.60D-09  0.00D+00 EMaxC= 1.00D-01 BMatC= 4.20D-16 BMatP= 7.76D-15
 IDIUse=1 WtCom= 1.00D+00 WtEn= 0.00D+00
 Coeff-Com: -0.118D-06 0.148D-05-0.161D-04 0.174D-04 0.107D-02-0.437D-02
 Coeff-Com:  0.102D-01-0.203D-01 0.542D-01-0.151D+00 0.392D+00-0.922D+00
 Coeff-Com:  0.164D+01
 Coeff:     -0.118D-06 0.148D-05-0.161D-04 0.174D-04 0.107D-02-0.437D-02
 Coeff:      0.102D-01-0.203D-01 0.542D-01-0.151D+00 0.392D+00-0.922D+00
 Coeff:      0.164D+01
 Gap=     0.395 Goal=   None    Shift=    0.000
 RMSDP=3.72D-09 MaxDP=3.34D-08 DE= 8.53D-14 OVMax= 3.21D-08

 Cycle  14  Pass 2  IDiag  1:
 SCF Done:  E(RAM1) =  -2.32668493541     A.U. after   14 cycles
            NFock= 13  Conv=0.37D-08     -V/T= 0.8803
 KE=-1.944232340252D+01 PE=-1.716750249440D+02 EE= 8.579645614272D+01
 Leave Link  502 at Mon Nov 23 02:20:25 2015, MaxMem=    33554432 cpu:         0.0
 (Enter /home/Applications/g09/g09/l601.exe)
 Copying SCF densities to generalized density rwf, IOpCl= 0 IROHF=0.

 **********************************************************************

            Population analysis using the SCF density.

 **********************************************************************

 Orbital symmetries:
       Occupied  (A) (A) (A) (A) (A) (A) (A) (A) (A) (A) (A) (A)
                 (A)
       Virtual   (A) (A) (A) (A) (A) (A) (A) (A) (A) (A) (A)
 The electronic state is 1-A.
 Alpha  occ. eigenvalues --   -1.66510  -1.23933  -1.02236  -0.79960  -0.78696
 Alpha  occ. eigenvalues --   -0.69274  -0.59683  -0.55892  -0.54990  -0.52081
 Alpha  occ. eigenvalues --   -0.50490  -0.42410  -0.40068
 Alpha virt. eigenvalues --   -0.00615   0.02365   0.11090   0.14826   0.18231
 Alpha virt. eigenvalues --    0.19332   0.19564   0.19892   0.21325   0.21841
 Alpha virt. eigenvalues --    0.24099
          Condensed to atoms (all electrons):
               1          2          3          4          5          6
     1  C    4.481144   0.000000   0.000000   0.000000   0.000000   0.000000
     2  C    0.000000   4.346665   0.000000   0.000000   0.000000   0.000000
     3  O    0.000000   0.000000   5.910398   0.000000   0.000000   0.000000
     4  C    0.000000   0.000000   0.000000   4.323142   0.000000   0.000000
     5  C    0.000000   0.000000   0.000000   0.000000   4.467992   0.000000
     6  H    0.000000   0.000000   0.000000   0.000000   0.000000   0.614371
     7  H    0.000000   0.000000   0.000000   0.000000   0.000000   0.000000
     8  H    0.000000   0.000000   0.000000   0.000000   0.000000   0.000000
     9  H    0.000000   0.000000   0.000000   0.000000   0.000000   0.000000
               7          8          9
     1  C    0.000000   0.000000   0.000000
     2  C    0.000000   0.000000   0.000000
     3  O    0.000000   0.000000   0.000000
     4  C    0.000000   0.000000   0.000000
     5  C    0.000000   0.000000   0.000000
     6  H    0.000000   0.000000   0.000000
     7  H    0.623980   0.000000   0.000000
     8  H    0.000000   0.615301   0.000000
     9  H    0.000000   0.000000   0.617006
 Mulliken charges:
               1
     1  C   -0.481144
     2  C   -0.346665
     3  O    0.089602
     4  C   -0.323142
     5  C   -0.467992
     6  H    0.385629
     7  H    0.376020
     8  H    0.384699
     9  H    0.382994
 Sum of Mulliken charges =   0.00000
 Mulliken charges with hydrogens summed into heavy atoms:
               1
     1  C   -0.098150
     2  C    0.038034
     3  O    0.089602
     4  C    0.052878
     5  C   -0.082363
 Charge=              0.0000 electrons
 Dipole moment (field-independent basis, Debye):
    X=             -0.1491    Y=             -0.1120    Z=             -0.0186  Tot=              0.1874
 N-N= 1.029942072684D+02 E-N=-1.716750249283D+02  KE=-1.944232340252D+01
 Leave Link  601 at Mon Nov 23 02:20:25 2015, MaxMem=    33554432 cpu:         0.0
 (Enter /home/Applications/g09/g09/l701.exe)
 Compute integral first derivatives.
 ... and contract with generalized density number  0.
 Leave Link  701 at Mon Nov 23 02:20:25 2015, MaxMem=    33554432 cpu:         0.0
 (Enter /home/Applications/g09/g09/l702.exe)
 L702 exits ... SP integral derivatives will be done elsewhere.
 Leave Link  702 at Mon Nov 23 02:20:26 2015, MaxMem=    33554432 cpu:         0.0
 (Enter /home/Applications/g09/g09/l703.exe)
 Compute integral first derivatives, UseDBF=F ICtDFT=           0.
 Integral derivatives from FoFJK, PRISM(SPDF).
 Calling FoFJK, ICntrl=      2127 FMM=F ISym2X=0 I1Cent= 0 IOpClX= 0 NMat=1 NMatS=1 NMatT=0.
 FoFJK:  IHMeth= 8 ICntrl=    2127 DoSepK=F KAlg= 0 I1Cent=   0 FoldK=F
 IRaf=         0 NMat=   1 IRICut=       1 DoRegI=T DoRafI=F ISym2E= 0.
 FoFCou: FMM=F IPFlag=           0 FMFlag=      100000 FMFlg1=         800
         NFxFlg=           0 DoJE=F BraDBF=F KetDBF=F FulRan=T
         wScrn=  0.000000 ICntrl=    2127 IOpCl=  0 I1Cent=           0 NGrid=           0
         NMat0=    1 NMatS0=      1 NMatT0=    0 NMatD0=    1 NMtDS0=    0 NMtDT0=    0
 Symmetry not used in FoFCou.
 Leave Link  703 at Mon Nov 23 02:20:26 2015, MaxMem=    33554432 cpu:         0.0
 (Enter /home/Applications/g09/g09/l716.exe)
 Dipole        =-5.86772781D-02-4.40565027D-02-7.30214151D-03
 ***** Axes restored to original set *****
 -------------------------------------------------------------------
 Center     Atomic                   Forces (Hartrees/Bohr)
 Number     Number              X              Y              Z
 -------------------------------------------------------------------
      1        6           0.043777515   -0.051025599   -0.006310034
      2        6          -0.023102901   -0.000357135    0.007502848
      3        8          -0.036037796   -0.000910207   -0.004418939
      4        6          -0.079115325    0.017479085    0.003860174
      5        6           0.148373489    0.008171866   -0.000708539
      6        1          -0.024662297   -0.010161836   -0.000068285
      7        1          -0.019420370    0.027439280   -0.000026975
      8        1           0.001830706   -0.011846685   -0.001056870
      9        1          -0.011643021    0.021211231    0.001226619
 -------------------------------------------------------------------
 Cartesian Forces:  Max     0.148373489 RMS     0.037369092
 Leave Link  716 at Mon Nov 23 02:20:26 2015, MaxMem=    33554432 cpu:         0.0
 (Enter /home/Applications/g09/g09/l103.exe)

 GradGradGradGradGradGradGradGradGradGradGradGradGradGradGradGradGradGrad
 Berny optimization.
 FormGI is forming the generalized inverse of G from B-inverse, IUseBI=4.
 Internal  Forces:  Max     0.114700071 RMS     0.023145141
 Search for a local minimum.
 Step number   1 out of a maximum of   48
 All quantities printed in internal units (Hartrees-Bohrs-Radians)
 RMS Force = .23145D-01 SwitMx=.10000D-02 MixMth= 1
 Mixed Optimization -- RFO/linear search
 Second derivative matrix not updated -- first step.
 ITU=  0
     Eigenvalues ---    0.02080   0.02139   0.02534   0.02600   0.02790
     Eigenvalues ---    0.03149   0.15970   0.15983   0.15995   0.16000
     Eigenvalues ---    0.21996   0.22862   0.31588   0.32839   0.38247
     Eigenvalues ---    0.39680   0.41942   0.44996   0.46400   0.51809
     Eigenvalues ---    0.65298
 RFO step:  Lambda=-3.57185839D-02 EMin= 2.07977955D-02
 Linear search not attempted -- first point.
 Iteration  1 RMS(Cart)=  0.04036876 RMS(Int)=  0.00082863
 Iteration  2 RMS(Cart)=  0.00073870 RMS(Int)=  0.00047382
 Iteration  3 RMS(Cart)=  0.00000070 RMS(Int)=  0.00047382
 ITry= 1 IFail=0 DXMaxC= 1.25D-01 DCOld= 1.00D+10 DXMaxT= 3.00D-01 DXLimC= 3.00D+00 Rises=F
 Variable       Old X    -DE/DX   Delta X   Delta X   Delta X     New X
                                 (Linear)    (Quad)   (Total)
    R1        2.56019   0.04094   0.00000   0.06364   0.06363   2.62382
    R2        2.68841   0.02543   0.00000   0.06029   0.06057   2.74898
    R3        2.09335  -0.02234   0.00000  -0.06135  -0.06135   2.03200
    R4        2.61421   0.02683   0.00000   0.04264   0.04236   2.65658
    R5        2.00707   0.00918   0.00000   0.02196   0.02196   2.02903
    R6        2.61610   0.02108   0.00000   0.04366   0.04349   2.65959
    R7        2.44721   0.11470   0.00000   0.16652   0.16668   2.61390
    R8        1.95696   0.03326   0.00000   0.07308   0.07308   2.03004
    R9        2.11604  -0.02631   0.00000  -0.07482  -0.07482   2.04122
    A1        1.85479   0.00016   0.00000  -0.00690  -0.00684   1.84795
    A2        2.13913   0.00973   0.00000   0.05387   0.05371   2.19284
    A3        2.28850  -0.00984   0.00000  -0.04606  -0.04622   2.24228
    A4        1.90078   0.01937   0.00000   0.04559   0.04498   1.94575
    A5        2.44331  -0.01726   0.00000  -0.06081  -0.06090   2.38241
    A6        1.93761  -0.00199   0.00000   0.01735   0.01730   1.95491
    A7        1.84842  -0.00114   0.00000  -0.01810  -0.01892   1.82950
    A8        1.93003  -0.00354   0.00000   0.01164   0.01145   1.94149
    A9        2.03843  -0.00298   0.00000  -0.02993  -0.02994   2.00849
   A10        2.31440   0.00656   0.00000   0.01880   0.01879   2.33319
   A11        1.88932  -0.01469   0.00000  -0.02954  -0.02924   1.86008
   A12        2.08121   0.01199   0.00000   0.03853   0.03837   2.11959
   A13        2.31263   0.00270   0.00000  -0.00895  -0.00911   2.30352
    D1       -0.04461   0.00226   0.00000   0.04282   0.04360  -0.00100
    D2       -3.11866  -0.00088   0.00000  -0.00756  -0.00635  -3.12500
    D3        3.13463   0.00129   0.00000   0.02149   0.02120  -3.12736
    D4        0.06058  -0.00185   0.00000  -0.02889  -0.02875   0.03182
    D5        0.02055  -0.00162   0.00000  -0.02321  -0.02251  -0.00196
    D6       -3.12740  -0.00107   0.00000  -0.01626  -0.01569   3.14009
    D7        3.12003   0.00009   0.00000   0.00380   0.00379   3.12381
    D8       -0.02793   0.00064   0.00000   0.01075   0.01061  -0.01732
    D9        0.05138  -0.00243   0.00000  -0.04724  -0.04789   0.00349
   D10       -3.13671  -0.00119   0.00000  -0.01627  -0.01445   3.13202
   D11       -0.03884   0.00220   0.00000   0.03426   0.03404  -0.00480
   D12        3.12685   0.00082   0.00000   0.01547   0.01568  -3.14065
   D13        0.01177  -0.00042   0.00000  -0.00719  -0.00749   0.00428
   D14       -3.12229  -0.00110   0.00000  -0.01564  -0.01555  -3.13784
   D15        3.12414   0.00104   0.00000   0.01465   0.01454   3.13868
   D16       -0.00993   0.00035   0.00000   0.00620   0.00648  -0.00344
         Item               Value     Threshold  Converged?
 Maximum Force            0.114700     0.000450     NO 
 RMS     Force            0.023145     0.000300     NO 
 Maximum Displacement     0.124949     0.001800     NO 
 RMS     Displacement     0.040238     0.001200     NO 
 Predicted change in Energy=-1.924235D-02
 Lowest energy point so far.  Saving SCF results.
 GradGradGradGradGradGradGradGradGradGradGradGradGradGradGradGradGradGrad

 Leave Link  103 at Mon Nov 23 02:20:26 2015, MaxMem=    33554432 cpu:         0.0
 (Enter /home/Applications/g09/g09/l202.exe)
                          Input orientation:                          
 ---------------------------------------------------------------------
 Center     Atomic      Atomic             Coordinates (Angstroms)
 Number     Number       Type             X           Y           Z
 ---------------------------------------------------------------------
      1          6           0        1.003202   -0.713149   -0.031291
      2          6           0       -0.324690   -1.118600   -0.019058
      3          8           0       -1.199001   -0.017842   -0.005461
      4          6           0       -0.357664    1.110356   -0.014430
      5          6           0        0.975346    0.741274   -0.026507
      6          1           0        1.885903    1.322314   -0.032571
      7          1           0       -0.865346    2.057028   -0.005040
      8          1           0       -0.853705   -2.052834   -0.004315
      9          1           0        1.857417   -1.365823   -0.055302
 ---------------------------------------------------------------------
                    Distance matrix (angstroms):
                    1          2          3          4          5
     1  C    0.000000
     2  C    1.388466   0.000000
     3  O    2.309506   1.405799   0.000000
     4  C    2.275393   2.229205   1.407394   0.000000
     5  C    1.454698   2.269202   2.303146   1.383215   0.000000
     6  H    2.218619   3.293169   3.363537   2.253630   1.080166
     7  H    3.341563   3.221353   2.101526   1.074251   2.262701
     8  H    2.289887   1.073716   2.064079   3.201863   3.339604
     9  H    1.075288   2.196367   3.340842   3.322607   2.284455
                    6          7          8          9
     6  H    0.000000
     7  H    2.847794   0.000000
     8  H    4.347168   4.109878   0.000000
     9  H    2.688384   4.374000   2.797278   0.000000
 Stoichiometry    C4H4O
 Framework group  C1[X(C4H4O)]
 Deg. of freedom    21
 Full point group                 C1      NOp   1
 RotChk:  IX=0 Diff= 5.91D-01
 Largest Abelian subgroup         C1      NOp   1
 Largest concise Abelian subgroup C1      NOp   1
                         Standard orientation:                         
 ---------------------------------------------------------------------
 Center     Atomic      Atomic             Coordinates (Angstroms)
 Number     Number       Type             X           Y           Z
 ---------------------------------------------------------------------
      1          6           0       -0.963983    0.756146   -0.000784
      2          6           0       -0.978196   -0.632245    0.001066
      3          8           0        0.324592   -1.160462   -0.000070
      4          6           0        1.169481   -0.034888    0.002007
      5          6           0        0.439203    1.139830   -0.001862
      6          1           0        0.739660    2.177363   -0.004749
      7          1           0        2.220973   -0.254841    0.000570
      8          1           0       -1.725102   -1.403530   -0.009866
      9          1           0       -1.831289    1.391647    0.012036
 ---------------------------------------------------------------------
 Rotational constants (GHZ):      9.2449484      8.7422308      4.4933118
 Leave Link  202 at Mon Nov 23 02:20:26 2015, MaxMem=    33554432 cpu:         0.0
 (Enter /home/Applications/g09/g09/l301.exe)

 Semi-emprical parameters in input format:
 Method=8 CoreType=1 PeptideFC=0.0125750000 RIJScale=0.5666730000
 ****
 H       
 PQN=1 NValence=1 F0ss=0.4322380000 ZetaOverlap=1.1880780000 U=-0.4188110000
 Beta=-0.2156480000 CoreKO=1.1385450000 KON=0,0,0,1.0589200000 KON=1,0,1,1.1290450000
 KON=0,1,1,1.1706660000 KON=2,1,1,1.0589200000 EISol=-0.4188110042 EHeat=0.0830298228
 Alpha=1.5252600000
 GCore=0.0084690000,1.3383940000,2.2676710000
 GCore=0.0003530000,1.3533660000,3.6667160000
 GCore=-0.0011710000,0.6115380000,4.3212930000
 ****
 C       
 PQN=2,2 NValence=4 F0ss=0.4466820000 F0sp=0.4066640000 F0pp=0.3768030000 F2pp=0.1898720000
 G1sp=0.2679030000
 ZetaOverlap=1.8086650000,1.7840750000
 U=-1.9120180000,-1.5956620000
 Beta=-0.5629500000,-0.3031680000 DDN=0,1,0.7632320000 DDN=1,1,0.7847580000
 CoreKO=1.1124280000 KON=0,0,0,1.0889370000 KON=1,0,1,0.8219700000 KON=0,1,1,0.9893020000
 KON=2,1,1,0.7783930000 EISol=-4.4398989268 EHeat=0.2723305520 Alpha=1.3702060000
 DipHyp=1.5263761812
 GCore=0.0008320000,1.4654240000,2.8806590000
 GCore=0.0027890000,1.3245690000,3.2438410000
 GCore=-0.0012930000,1.2846020000,4.0922960000
 GCore=-0.0000880000,1.4958780000,4.9512050000
 ****
 O       
 PQN=2,2 NValence=6 F0ss=0.5666750000 F0sp=0.5060470000 F0pp=0.4958710000 F2pp=0.2150590000
 G1sp=0.4181060000
 ZetaOverlap=3.3086090000,2.5960610000
 U=-3.8586440000,-2.8743270000
 Beta=-1.1627760000,-1.1056560000 DDN=0,1,0.4676820000 DDN=1,1,0.4852320000
 CoreKO=1.0326690000 KON=0,0,0,0.8822960000 KON=1,0,1,0.5019540000 KON=0,1,1,0.8822960000
 KON=2,1,1,0.5406950000 EISol=-11.6164441184 EHeat=0.0949133088 Alpha=2.2592050000
 DipHyp=0.9353101877
 GCore=0.0202690000,1.4001430000,1.6127490000
 GCore=0.0056550000,2.0844870000,2.7600040000
 ****
 
 Standard basis: VSTO-6G (5D, 7F)
 Ernie: Thresh=  0.10000D-02 Tol=  0.10000D-05 Strict=F.
  NNHCO=     0 NNPyr=     0 NCTC=     0               EPep=         0.000000000
    EC=        66.985962292  ECS=         1.804534171   EG=         0.349914850
   EHC=         0.000000000  EAt=       -31.051283842  AtH=         1.516354808
 EPDDG=         0.000000000  ECC=        69.140411314 EAtT=        32.567638650
 There are    24 symmetry adapted cartesian basis functions of A   symmetry.
 There are    24 symmetry adapted basis functions of A   symmetry.
    24 basis functions,   144 primitive gaussians,    24 cartesian basis functions
    13 alpha electrons       13 beta electrons
       nuclear repulsion energy       101.7080499640 Hartrees.
 IExCor=    0 DFT=F Ex=HF Corr=None ExCW=0 ScaHFX=  1.000000
 ScaDFX=  1.000000  1.000000  1.000000  1.000000 ScalE2=  1.000000  1.000000
 IRadAn=      0 IRanWt=     -1 IRanGd=            0 ICorTp=0 IEmpDi=  4
 Integral buffers will be    131072 words long.
 Regular integral format.
 Two-electron integral symmetry is turned off.
 Leave Link  301 at Mon Nov 23 02:20:26 2015, MaxMem=    33554432 cpu:         0.0
 (Enter /home/Applications/g09/g09/l302.exe)
 Do NDO integrals.
 NPDir=0 NMtPBC=     1 NCelOv=     1 NCel=       1 NClECP=     1 NCelD=      1
         NCelK=      1 NCelE2=     1 NClLst=     1 CellRange=     0.0.
 One-electron integrals computed using PRISM.
 NBasis=    24 RedAO= F EigKep=  0.00D+00  NBF=    24
 NBsUse=    24 1.00D-04 EigRej=  0.00D+00 NBFU=    24
 Leave Link  302 at Mon Nov 23 02:20:26 2015, MaxMem=    33554432 cpu:         0.0
 (Enter /home/Applications/g09/g09/l303.exe)
 DipDrv:  MaxL=1.
 Leave Link  303 at Mon Nov 23 02:20:26 2015, MaxMem=    33554432 cpu:         0.0
 (Enter /home/Applications/g09/g09/l401.exe)
 Initial guess from the checkpoint file:  "/home/Applications/g09/scratch/Gau-2461.chk"
 B after Tr=     0.000000    0.000000    0.000000
         Rot=    0.977277   -0.000013   -0.000050   -0.211964 Ang= -24.47 deg.
 Guess basis will be translated and rotated to current coordinates.
 JPrj=0 DoOrth=T DoCkMO=T.
 Leave Link  401 at Mon Nov 23 02:20:26 2015, MaxMem=    33554432 cpu:         0.0
 (Enter /home/Applications/g09/g09/l502.exe)
 Closed shell SCF:
 Using DIIS extrapolation, IDIIS=  1040.
 Overlap will be assumed to be unity.
 Two-electron integral symmetry not used.
 Keep J ints in memory in canonical form, NReq=888082.
 IVT=       79475 IEndB=       79475 NGot=    33554432 MDV=    33473473
 LenX=    33473473 LenY=    33472456
 Requested convergence on RMS density matrix=1.00D-08 within 128 cycles.
 Requested convergence on MAX density matrix=1.00D-06.
 Requested convergence on             energy=1.00D-06.
 No special actions if energy rises.
 FoFCou: FMM=F IPFlag=           0 FMFlag=           0 FMFlg1=           0
         NFxFlg=           0 DoJE=F BraDBF=F KetDBF=F FulRan=T
         wScrn=  0.000000 ICntrl=     600 IOpCl=  2 I1Cent=           0 NGrid=           0
         NMat0=    1 NMatS0=     54 NMatT0=    0 NMatD0=    1 NMtDS0=    0 NMtDT0=    0
 Symmetry not used in FoFCou.

 Cycle   1  Pass 1  IDiag  1:
 E= -2.33629991988472    
 DIIS: error= 6.32D-03 at cycle   1 NSaved=   1.
 NSaved= 1 IEnMin= 1 EnMin= -2.33629991988472     IErMin= 1 ErrMin= 6.32D-03
 ErrMax= 6.32D-03  0.00D+00 EMaxC= 1.00D-01 BMatC= 1.19D-03 BMatP= 1.19D-03
 IDIUse=3 WtCom= 9.37D-01 WtEn= 6.32D-02
 Coeff-Com:  0.100D+01
 Coeff-En:   0.100D+01
 Coeff:      0.100D+01
 GapD=    2.000 DampG=2.000 DampE=1.000 DampFc=2.0000 IDamp=-1.
 RMSDP=2.16D-03 MaxDP=1.19D-02              OVMax= 0.00D+00

 Cycle   2  Pass 1  IDiag  3:
 E= -2.33948439925800     Delta-E=       -0.003184479373 Rises=F Damp=F
 DIIS: error= 1.91D-03 at cycle   2 NSaved=   2.
 NSaved= 2 IEnMin= 2 EnMin= -2.33948439925800     IErMin= 2 ErrMin= 1.91D-03
 ErrMax= 1.91D-03  0.00D+00 EMaxC= 1.00D-01 BMatC= 1.13D-04 BMatP= 1.19D-03
 IDIUse=3 WtCom= 9.81D-01 WtEn= 1.91D-02
 Coeff-Com: -0.381D+00 0.138D+01
 Coeff-En:   0.000D+00 0.100D+01
 Coeff:     -0.374D+00 0.137D+01
 Gap=     0.376 Goal=   None    Shift=    0.000
 RMSDP=1.09D-03 MaxDP=4.49D-03 DE=-3.18D-03 OVMax= 4.86D-03

 Cycle   3  Pass 1  IDiag  3:
 E= -2.33992061846939     Delta-E=       -0.000436219211 Rises=F Damp=F
 DIIS: error= 3.57D-04 at cycle   3 NSaved=   3.
 NSaved= 3 IEnMin= 3 EnMin= -2.33992061846939     IErMin= 3 ErrMin= 3.57D-04
 ErrMax= 3.57D-04  0.00D+00 EMaxC= 1.00D-01 BMatC= 4.19D-06 BMatP= 1.13D-04
 IDIUse=3 WtCom= 9.96D-01 WtEn= 3.57D-03
 Coeff-Com:  0.168D+00-0.694D+00 0.153D+01
 Coeff-En:   0.000D+00 0.000D+00 0.100D+01
 Coeff:      0.167D+00-0.691D+00 0.152D+01
 Gap=     0.376 Goal=   None    Shift=    0.000
 RMSDP=3.28D-04 MaxDP=1.74D-03 DE=-4.36D-04 OVMax= 2.51D-03

 Cycle   4  Pass 1  IDiag  3:
 E= -2.33994742973316     Delta-E=       -0.000026811264 Rises=F Damp=F
 DIIS: error= 8.94D-05 at cycle   4 NSaved=   4.
 NSaved= 4 IEnMin= 4 EnMin= -2.33994742973316     IErMin= 4 ErrMin= 8.94D-05
 ErrMax= 8.94D-05  0.00D+00 EMaxC= 1.00D-01 BMatC= 2.75D-07 BMatP= 4.19D-06
 IDIUse=1 WtCom= 1.00D+00 WtEn= 0.00D+00
 Coeff-Com: -0.824D-01 0.351D+00-0.936D+00 0.167D+01
 Coeff:     -0.824D-01 0.351D+00-0.936D+00 0.167D+01
 Gap=     0.376 Goal=   None    Shift=    0.000
 RMSDP=1.11D-04 MaxDP=6.36D-04 DE=-2.68D-05 OVMax= 1.02D-03

 Cycle   5  Pass 1  IDiag  3:
 E= -2.33994963486970     Delta-E=       -0.000002205137 Rises=F Damp=F
 DIIS: error= 2.00D-05 at cycle   5 NSaved=   5.
 NSaved= 5 IEnMin= 5 EnMin= -2.33994963486970     IErMin= 5 ErrMin= 2.00D-05
 ErrMax= 2.00D-05  0.00D+00 EMaxC= 1.00D-01 BMatC= 1.51D-08 BMatP= 2.75D-07
 IDIUse=1 WtCom= 1.00D+00 WtEn= 0.00D+00
 Coeff-Com:  0.431D-01-0.183D+00 0.494D+00-0.995D+00 0.164D+01
 Coeff:      0.431D-01-0.183D+00 0.494D+00-0.995D+00 0.164D+01
 Gap=     0.376 Goal=   None    Shift=    0.000
 RMSDP=2.79D-05 MaxDP=1.94D-04 DE=-2.21D-06 OVMax= 2.71D-04

 Cycle   6  Pass 1  IDiag  3:
 E= -2.33994977337517     Delta-E=       -0.000000138505 Rises=F Damp=F
 DIIS: error= 6.68D-06 at cycle   6 NSaved=   6.
 NSaved= 6 IEnMin= 6 EnMin= -2.33994977337517     IErMin= 6 ErrMin= 6.68D-06
 ErrMax= 6.68D-06  0.00D+00 EMaxC= 1.00D-01 BMatC= 1.46D-09 BMatP= 1.51D-08
 IDIUse=1 WtCom= 1.00D+00 WtEn= 0.00D+00
 Coeff-Com: -0.184D-01 0.775D-01-0.209D+00 0.438D+00-0.959D+00 0.167D+01
 Coeff:     -0.184D-01 0.775D-01-0.209D+00 0.438D+00-0.959D+00 0.167D+01
 Gap=     0.376 Goal=   None    Shift=    0.000
 RMSDP=9.86D-06 MaxDP=7.33D-05 DE=-1.39D-07 OVMax= 1.12D-04

 Cycle   7  Pass 1  IDiag  3:
 E= -2.33994978801498     Delta-E=       -0.000000014640 Rises=F Damp=F
 DIIS: error= 1.87D-06 at cycle   7 NSaved=   7.
 NSaved= 7 IEnMin= 7 EnMin= -2.33994978801498     IErMin= 7 ErrMin= 1.87D-06
 ErrMax= 1.87D-06  0.00D+00 EMaxC= 1.00D-01 BMatC= 1.13D-10 BMatP= 1.46D-09
 IDIUse=1 WtCom= 1.00D+00 WtEn= 0.00D+00
 Coeff-Com:  0.590D-02-0.247D-01 0.666D-01-0.143D+00 0.360D+00-0.860D+00
 Coeff-Com:  0.159D+01
 Coeff:      0.590D-02-0.247D-01 0.666D-01-0.143D+00 0.360D+00-0.860D+00
 Coeff:      0.159D+01
 Gap=     0.376 Goal=   None    Shift=    0.000
 RMSDP=2.67D-06 MaxDP=2.06D-05 DE=-1.46D-08 OVMax= 3.23D-05

 Cycle   8  Pass 1  IDiag  3:
 E= -2.33994978909577     Delta-E=       -0.000000001081 Rises=F Damp=F
 DIIS: error= 5.22D-07 at cycle   8 NSaved=   8.
 NSaved= 8 IEnMin= 8 EnMin= -2.33994978909577     IErMin= 8 ErrMin= 5.22D-07
 ErrMax= 5.22D-07  0.00D+00 EMaxC= 1.00D-01 BMatC= 8.49D-12 BMatP= 1.13D-10
 IDIUse=1 WtCom= 1.00D+00 WtEn= 0.00D+00
 Coeff-Com: -0.108D-02 0.446D-02-0.119D-01 0.267D-01-0.832D-01 0.248D+00
 Coeff-Com: -0.710D+00 0.153D+01
 Coeff:     -0.108D-02 0.446D-02-0.119D-01 0.267D-01-0.832D-01 0.248D+00
 Coeff:     -0.710D+00 0.153D+01
 Gap=     0.376 Goal=   None    Shift=    0.000
 RMSDP=7.38D-07 MaxDP=5.83D-06 DE=-1.08D-09 OVMax= 8.78D-06

 Cycle   9  Pass 1  IDiag  3:
 E= -2.33994978917690     Delta-E=       -0.000000000081 Rises=F Damp=F
 DIIS: error= 1.30D-07 at cycle   9 NSaved=   9.
 NSaved= 9 IEnMin= 9 EnMin= -2.33994978917690     IErMin= 9 ErrMin= 1.30D-07
 ErrMax= 1.30D-07  0.00D+00 EMaxC= 1.00D-01 BMatC= 6.62D-13 BMatP= 8.49D-12
 IDIUse=1 WtCom= 1.00D+00 WtEn= 0.00D+00
 Coeff-Com:  0.173D-03-0.695D-03 0.179D-02-0.420D-02 0.163D-01-0.547D-01
 Coeff-Com:  0.200D+00-0.685D+00 0.153D+01
 Coeff:      0.173D-03-0.695D-03 0.179D-02-0.420D-02 0.163D-01-0.547D-01
 Coeff:      0.200D+00-0.685D+00 0.153D+01
 Gap=     0.376 Goal=   None    Shift=    0.000
 RMSDP=1.93D-07 MaxDP=1.38D-06 DE=-8.11D-11 OVMax= 1.84D-06

 Cycle  10  Pass 1  IDiag  3:
 E= -2.33994978918292     Delta-E=       -0.000000000006 Rises=F Damp=F
 DIIS: error= 2.83D-08 at cycle  10 NSaved=  10.
 NSaved=10 IEnMin=10 EnMin= -2.33994978918292     IErMin=10 ErrMin= 2.83D-08
 ErrMax= 2.83D-08  0.00D+00 EMaxC= 1.00D-01 BMatC= 4.47D-14 BMatP= 6.62D-13
 IDIUse=1 WtCom= 1.00D+00 WtEn= 0.00D+00
 Coeff-Com: -0.736D-04 0.295D-03-0.752D-03 0.172D-02-0.638D-02 0.203D-01
 Coeff-Com: -0.765D-01 0.294D+00-0.852D+00 0.162D+01
 Coeff:     -0.736D-04 0.295D-03-0.752D-03 0.172D-02-0.638D-02 0.203D-01
 Coeff:     -0.765D-01 0.294D+00-0.852D+00 0.162D+01
 Gap=     0.376 Goal=   None    Shift=    0.000
 RMSDP=4.94D-08 MaxDP=3.12D-07 DE=-6.03D-12 OVMax= 4.11D-07

 Cycle  11  Pass 1  IDiag  3:
 E= -2.33994978918346     Delta-E=       -0.000000000001 Rises=F Damp=F
 DIIS: error= 5.76D-09 at cycle  11 NSaved=  11.
 NSaved=11 IEnMin=11 EnMin= -2.33994978918346     IErMin=11 ErrMin= 5.76D-09
 ErrMax= 5.76D-09  0.00D+00 EMaxC= 1.00D-01 BMatC= 1.84D-15 BMatP= 4.47D-14
 IDIUse=1 WtCom= 1.00D+00 WtEn= 0.00D+00
 Coeff-Com:  0.227D-04-0.911D-04 0.230D-03-0.509D-03 0.174D-02-0.523D-02
 Coeff-Com:  0.194D-01-0.789D-01 0.255D+00-0.645D+00 0.145D+01
 Coeff:      0.227D-04-0.911D-04 0.230D-03-0.509D-03 0.174D-02-0.523D-02
 Coeff:      0.194D-01-0.789D-01 0.255D+00-0.645D+00 0.145D+01
 Gap=     0.376 Goal=   None    Shift=    0.000
 RMSDP=8.55D-09 MaxDP=4.41D-08 DE=-5.40D-13 OVMax= 7.33D-08

 Cycle  12  Pass 2  IDiag  1:
 SCF Done:  E(RAM1) =  -2.33994978918     A.U. after   12 cycles
            NFock= 11  Conv=0.86D-08     -V/T= 0.8787
 KE=-1.928484954419D+01 PE=-1.694608731512D+02 EE= 8.469772294219D+01
 Leave Link  502 at Mon Nov 23 02:20:26 2015, MaxMem=    33554432 cpu:         0.0
 (Enter /home/Applications/g09/g09/l701.exe)
 Compute integral first derivatives.
 ... and contract with generalized density number  0.
 Leave Link  701 at Mon Nov 23 02:20:26 2015, MaxMem=    33554432 cpu:         0.0
 (Enter /home/Applications/g09/g09/l702.exe)
 L702 exits ... SP integral derivatives will be done elsewhere.
 Leave Link  702 at Mon Nov 23 02:20:26 2015, MaxMem=    33554432 cpu:         0.0
 (Enter /home/Applications/g09/g09/l703.exe)
 Compute integral first derivatives, UseDBF=F ICtDFT=           0.
 Integral derivatives from FoFJK, PRISM(SPDF).
 Calling FoFJK, ICntrl=      2127 FMM=F ISym2X=0 I1Cent= 0 IOpClX= 0 NMat=1 NMatS=1 NMatT=0.
 FoFJK:  IHMeth= 8 ICntrl=    2127 DoSepK=F KAlg= 0 I1Cent=   0 FoldK=F
 IRaf=         0 NMat=   1 IRICut=       1 DoRegI=T DoRafI=F ISym2E= 0.
 FoFCou: FMM=F IPFlag=           0 FMFlag=      100000 FMFlg1=         800
         NFxFlg=           0 DoJE=F BraDBF=F KetDBF=F FulRan=T
         wScrn=  0.000000 ICntrl=    2127 IOpCl=  0 I1Cent=           0 NGrid=           0
         NMat0=    1 NMatS0=      1 NMatT0=    0 NMatD0=    1 NMtDS0=    0 NMtDT0=    0
 Symmetry not used in FoFCou.
 Leave Link  703 at Mon Nov 23 02:20:26 2015, MaxMem=    33554432 cpu:         0.0
 (Enter /home/Applications/g09/g09/l716.exe)
 Dipole        = 4.29181265D-03-1.43566780D-01-1.45514801D-03
 ***** Axes restored to original set *****
 -------------------------------------------------------------------
 Center     Atomic                   Forces (Hartrees/Bohr)
 Number     Number              X              Y              Z
 -------------------------------------------------------------------
      1        6          -0.029050723    0.004849063   -0.000773366
      2        6          -0.000352851    0.021349783    0.001244158
      3        8           0.035929147    0.004114109   -0.000884296
      4        6           0.003948599   -0.018381348    0.000729485
      5        6          -0.009058483   -0.015169581   -0.000255010
      6        1          -0.007744325    0.000717476    0.000023301
      7        1           0.001081739   -0.002047294   -0.000158327
      8        1           0.004771117   -0.001214930   -0.000521279
      9        1           0.000475781    0.005782723    0.000595333
 -------------------------------------------------------------------
 Cartesian Forces:  Max     0.035929147 RMS     0.011262518
 Leave Link  716 at Mon Nov 23 02:20:26 2015, MaxMem=    33554432 cpu:         0.0
 (Enter /home/Applications/g09/g09/l103.exe)

 GradGradGradGradGradGradGradGradGradGradGradGradGradGradGradGradGradGrad
 Berny optimization.
 Using GEDIIS/GDIIS optimizer.
 FormGI is forming the generalized inverse of G from B-inverse, IUseBI=4.
 Internal  Forces:  Max     0.024162099 RMS     0.008482986
 Search for a local minimum.
 Step number   2 out of a maximum of   48
 All quantities printed in internal units (Hartrees-Bohrs-Radians)
 RMS Force = .84830D-02 SwitMx=.10000D-02 MixMth= 1
 Mixed Optimization -- RFO/linear search
 Update second derivatives using D2CorX and points    1    2
 DE= -1.33D-02 DEPred=-1.92D-02 R= 6.89D-01
 TightC=F SS=  1.41D+00  RLast= 2.80D-01 DXNew= 5.0454D-01 8.3880D-01
 Trust test= 6.89D-01 RLast= 2.80D-01 DXMaxT set to 5.05D-01
 ITU=  1  0
 Use linear search instead of GDIIS.
     Eigenvalues ---    0.02103   0.02158   0.02523   0.02601   0.02778
     Eigenvalues ---    0.03159   0.15114   0.15997   0.16000   0.16036
     Eigenvalues ---    0.21987   0.23266   0.30494   0.32593   0.38241
     Eigenvalues ---    0.40131   0.41450   0.44948   0.48751   0.52646
     Eigenvalues ---    0.86503
 RFO step:  Lambda=-2.92820262D-03 EMin= 2.10338497D-02
 Quartic linear search produced a step of -0.18820.
 Iteration  1 RMS(Cart)=  0.01593455 RMS(Int)=  0.00016970
 Iteration  2 RMS(Cart)=  0.00017097 RMS(Int)=  0.00009206
 Iteration  3 RMS(Cart)=  0.00000001 RMS(Int)=  0.00009206
 ITry= 1 IFail=0 DXMaxC= 4.35D-02 DCOld= 1.00D+10 DXMaxT= 5.05D-01 DXLimC= 3.00D+00 Rises=F
 Variable       Old X    -DE/DX   Delta X   Delta X   Delta X     New X
                                 (Linear)    (Quad)   (Total)
    R1        2.62382  -0.02409  -0.01198  -0.01922  -0.03118   2.59264
    R2        2.74898  -0.01775  -0.01140  -0.01835  -0.02983   2.71915
    R3        2.03200  -0.00315   0.01155  -0.02307  -0.01153   2.02047
    R4        2.65658  -0.02187  -0.00797  -0.02544  -0.03333   2.62325
    R5        2.02903  -0.00130  -0.00413   0.00282  -0.00131   2.02772
    R6        2.65959  -0.02416  -0.00819  -0.02958  -0.03773   2.62186
    R7        2.61390  -0.02237  -0.03137   0.01672  -0.01470   2.59919
    R8        2.03004  -0.00232  -0.01375   0.01414   0.00039   2.03043
    R9        2.04122  -0.00614   0.01408  -0.03432  -0.02024   2.02098
    A1        1.84795   0.00215   0.00129   0.00799   0.00924   1.85719
    A2        2.19284   0.00389  -0.01011   0.03237   0.02230   2.21515
    A3        2.24228  -0.00603   0.00870  -0.04024  -0.03151   2.21077
    A4        1.94575  -0.00441  -0.00846  -0.00380  -0.01212   1.93363
    A5        2.38241  -0.00261   0.01146  -0.03108  -0.01962   2.36280
    A6        1.95491   0.00703  -0.00326   0.03503   0.03177   1.98668
    A7        1.82950   0.00564   0.00356   0.01289   0.01665   1.84615
    A8        1.94149  -0.00257  -0.00216  -0.00752  -0.00966   1.93182
    A9        2.00849   0.00127   0.00563  -0.00195   0.00369   2.01218
   A10        2.33319   0.00130  -0.00354   0.00952   0.00599   2.33918
   A11        1.86008  -0.00081   0.00550  -0.00951  -0.00411   1.85597
   A12        2.11959   0.00527  -0.00722   0.03450   0.02734   2.14692
   A13        2.30352  -0.00447   0.00171  -0.02500  -0.02323   2.28030
    D1       -0.00100   0.00012  -0.00821   0.00550  -0.00286  -0.00386
    D2       -3.12500  -0.00024   0.00119  -0.00697  -0.00597  -3.13097
    D3       -3.12736  -0.00002  -0.00399  -0.00132  -0.00532  -3.13268
    D4        0.03182  -0.00038   0.00541  -0.01379  -0.00843   0.02340
    D5       -0.00196   0.00002   0.00424  -0.00031   0.00381   0.00185
    D6        3.14009  -0.00005   0.00295  -0.00125   0.00159  -3.14151
    D7        3.12381   0.00028  -0.00071   0.00764   0.00690   3.13071
    D8       -0.01732   0.00021  -0.00200   0.00670   0.00467  -0.01265
    D9        0.00349  -0.00020   0.00901  -0.00829   0.00082   0.00431
   D10        3.13202   0.00000   0.00272   0.00035   0.00276   3.13478
   D11       -0.00480   0.00021  -0.00641   0.00808   0.00173  -0.00307
   D12       -3.14065   0.00003  -0.00295   0.00165  -0.00133   3.14120
   D13        0.00428  -0.00016   0.00141  -0.00496  -0.00349   0.00079
   D14       -3.13784  -0.00007   0.00293  -0.00387  -0.00101  -3.13885
   D15        3.13868   0.00007  -0.00274   0.00301   0.00033   3.13901
   D16       -0.00344   0.00015  -0.00122   0.00411   0.00281  -0.00063
         Item               Value     Threshold  Converged?
 Maximum Force            0.024162     0.000450     NO 
 RMS     Force            0.008483     0.000300     NO 
 Maximum Displacement     0.043534     0.001800     NO 
 RMS     Displacement     0.015996     0.001200     NO 
 Predicted change in Energy=-2.214709D-03
 Lowest energy point so far.  Saving SCF results.
 GradGradGradGradGradGradGradGradGradGradGradGradGradGradGradGradGradGrad

 Leave Link  103 at Mon Nov 23 02:20:26 2015, MaxMem=    33554432 cpu:         0.0
 (Enter /home/Applications/g09/g09/l202.exe)
                          Input orientation:                          
 ---------------------------------------------------------------------
 Center     Atomic      Atomic             Coordinates (Angstroms)
 Number     Number       Type             X           Y           Z
 ---------------------------------------------------------------------
      1          6           0        0.984574   -0.712882   -0.030760
      2          6           0       -0.328496   -1.110377   -0.019173
      3          8           0       -1.175964   -0.011023   -0.004501
      4          6           0       -0.348948    1.102949   -0.012976
      5          6           0        0.973733    0.725989   -0.028341
      6          1           0        1.866102    1.315358   -0.035775
      7          1           0       -0.855267    2.050585   -0.003812
      8          1           0       -0.841029   -2.053011   -0.007912
      9          1           0        1.846757   -1.344866   -0.050726
 ---------------------------------------------------------------------
                    Distance matrix (angstroms):
                    1          2          3          4          5
     1  C    0.000000
     2  C    1.371965   0.000000
     3  O    2.271831   1.388163   0.000000
     4  C    2.252962   2.213429   1.387429   0.000000
     5  C    1.438914   2.251250   2.272653   1.375435   0.000000
     6  H    2.211532   3.271197   3.318799   2.225328   1.069454
     7  H    3.320014   3.204592   2.086403   1.074457   2.258407
     8  H    2.264794   1.073022   2.069277   3.194096   3.319129
     9  H    1.069188   2.188083   3.304257   3.288517   2.247468
                    6          7          8          9
     6  H    0.000000
     7  H    2.819119   0.000000
     8  H    4.321486   4.103623   0.000000
     9  H    2.660336   4.339611   2.779838   0.000000
 Stoichiometry    C4H4O
 Framework group  C1[X(C4H4O)]
 Deg. of freedom    21
 Full point group                 C1      NOp   1
 RotChk:  IX=0 Diff= 3.01D-01
 Largest Abelian subgroup         C1      NOp   1
 Largest concise Abelian subgroup C1      NOp   1
                         Standard orientation:                         
 ---------------------------------------------------------------------
 Center     Atomic      Atomic             Coordinates (Angstroms)
 Number     Number       Type             X           Y           Z
 ---------------------------------------------------------------------
      1          6           0       -0.779872    0.922011   -0.001502
      2          6           0       -1.080466   -0.416616    0.001626
      3          8           0        0.077832   -1.181690   -0.000337
      4          6           0        1.128462   -0.275525    0.000914
      5          6           0        0.655955    1.016201   -0.000384
      6          1           0        1.178618    1.949235   -0.002195
      7          1           0        2.110539   -0.711395    0.000033
      8          1           0       -1.983151   -0.996685   -0.005755
      9          1           0       -1.473138    1.735938    0.006687
 ---------------------------------------------------------------------
 Rotational constants (GHZ):      9.3814403      8.9826098      4.5888598
 Leave Link  202 at Mon Nov 23 02:20:26 2015, MaxMem=    33554432 cpu:         0.0
 (Enter /home/Applications/g09/g09/l301.exe)

 Semi-emprical parameters in input format:
 Method=8 CoreType=1 PeptideFC=0.0125750000 RIJScale=0.5666730000
 ****
 H       
 PQN=1 NValence=1 F0ss=0.4322380000 ZetaOverlap=1.1880780000 U=-0.4188110000
 Beta=-0.2156480000 CoreKO=1.1385450000 KON=0,0,0,1.0589200000 KON=1,0,1,1.1290450000
 KON=0,1,1,1.1706660000 KON=2,1,1,1.0589200000 EISol=-0.4188110042 EHeat=0.0830298228
 Alpha=1.5252600000
 GCore=0.0084690000,1.3383940000,2.2676710000
 GCore=0.0003530000,1.3533660000,3.6667160000
 GCore=-0.0011710000,0.6115380000,4.3212930000
 ****
 C       
 PQN=2,2 NValence=4 F0ss=0.4466820000 F0sp=0.4066640000 F0pp=0.3768030000 F2pp=0.1898720000
 G1sp=0.2679030000
 ZetaOverlap=1.8086650000,1.7840750000
 U=-1.9120180000,-1.5956620000
 Beta=-0.5629500000,-0.3031680000 DDN=0,1,0.7632320000 DDN=1,1,0.7847580000
 CoreKO=1.1124280000 KON=0,0,0,1.0889370000 KON=1,0,1,0.8219700000 KON=0,1,1,0.9893020000
 KON=2,1,1,0.7783930000 EISol=-4.4398989268 EHeat=0.2723305520 Alpha=1.3702060000
 DipHyp=1.5263761812
 GCore=0.0008320000,1.4654240000,2.8806590000
 GCore=0.0027890000,1.3245690000,3.2438410000
 GCore=-0.0012930000,1.2846020000,4.0922960000
 GCore=-0.0000880000,1.4958780000,4.9512050000
 ****
 O       
 PQN=2,2 NValence=6 F0ss=0.5666750000 F0sp=0.5060470000 F0pp=0.4958710000 F2pp=0.2150590000
 G1sp=0.4181060000
 ZetaOverlap=3.3086090000,2.5960610000
 U=-3.8586440000,-2.8743270000
 Beta=-1.1627760000,-1.1056560000 DDN=0,1,0.4676820000 DDN=1,1,0.4852320000
 CoreKO=1.0326690000 KON=0,0,0,0.8822960000 KON=1,0,1,0.5019540000 KON=0,1,1,0.8822960000
 KON=2,1,1,0.5406950000 EISol=-11.6164441184 EHeat=0.0949133088 Alpha=2.2592050000
 DipHyp=0.9353101877
 GCore=0.0202690000,1.4001430000,1.6127490000
 GCore=0.0056550000,2.0844870000,2.7600040000
 ****
 
 Standard basis: VSTO-6G (5D, 7F)
 Ernie: Thresh=  0.10000D-02 Tol=  0.10000D-05 Strict=F.
  NNHCO=     0 NNPyr=     0 NCTC=     0               EPep=         0.000000000
    EC=        67.453012248  ECS=         1.873666741   EG=         0.358468569
   EHC=         0.000000000  EAt=       -31.051283842  AtH=         1.516354808
 EPDDG=         0.000000000  ECC=        69.685147558 EAtT=        32.567638650
 There are    24 symmetry adapted cartesian basis functions of A   symmetry.
 There are    24 symmetry adapted basis functions of A   symmetry.
    24 basis functions,   144 primitive gaussians,    24 cartesian basis functions
    13 alpha electrons       13 beta electrons
       nuclear repulsion energy       102.2527862083 Hartrees.
 IExCor=    0 DFT=F Ex=HF Corr=None ExCW=0 ScaHFX=  1.000000
 ScaDFX=  1.000000  1.000000  1.000000  1.000000 ScalE2=  1.000000  1.000000
 IRadAn=      0 IRanWt=     -1 IRanGd=            0 ICorTp=0 IEmpDi=  4
 Integral buffers will be    131072 words long.
 Regular integral format.
 Two-electron integral symmetry is turned off.
 Leave Link  301 at Mon Nov 23 02:20:26 2015, MaxMem=    33554432 cpu:         0.0
 (Enter /home/Applications/g09/g09/l302.exe)
 Do NDO integrals.
 NPDir=0 NMtPBC=     1 NCelOv=     1 NCel=       1 NClECP=     1 NCelD=      1
         NCelK=      1 NCelE2=     1 NClLst=     1 CellRange=     0.0.
 One-electron integrals computed using PRISM.
 NBasis=    24 RedAO= F EigKep=  0.00D+00  NBF=    24
 NBsUse=    24 1.00D-04 EigRej=  0.00D+00 NBFU=    24
 Leave Link  302 at Mon Nov 23 02:20:26 2015, MaxMem=    33554432 cpu:         0.0
 (Enter /home/Applications/g09/g09/l303.exe)
 DipDrv:  MaxL=1.
 Leave Link  303 at Mon Nov 23 02:20:26 2015, MaxMem=    33554432 cpu:         0.0
 (Enter /home/Applications/g09/g09/l401.exe)
 Initial guess from the checkpoint file:  "/home/Applications/g09/scratch/Gau-2461.chk"
 B after Tr=     0.000000    0.000000    0.000000
         Rot=    0.994538    0.000002   -0.000009    0.104371 Ang=  11.98 deg.
 Guess basis will be translated and rotated to current coordinates.
 JPrj=0 DoOrth=T DoCkMO=T.
 Leave Link  401 at Mon Nov 23 02:20:26 2015, MaxMem=    33554432 cpu:         0.0
 (Enter /home/Applications/g09/g09/l502.exe)
 Closed shell SCF:
 Using DIIS extrapolation, IDIIS=  1040.
 Overlap will be assumed to be unity.
 Two-electron integral symmetry not used.
 Keep J ints in memory in canonical form, NReq=888082.
 IVT=       79475 IEndB=       79475 NGot=    33554432 MDV=    33473473
 LenX=    33473473 LenY=    33472456
 Requested convergence on RMS density matrix=1.00D-08 within 128 cycles.
 Requested convergence on MAX density matrix=1.00D-06.
 Requested convergence on             energy=1.00D-06.
 No special actions if energy rises.
 FoFCou: FMM=F IPFlag=           0 FMFlag=           0 FMFlg1=           0
         NFxFlg=           0 DoJE=F BraDBF=F KetDBF=F FulRan=T
         wScrn=  0.000000 ICntrl=     600 IOpCl=  2 I1Cent=           0 NGrid=           0
         NMat0=    1 NMatS0=     54 NMatT0=    0 NMatD0=    1 NMtDS0=    0 NMtDT0=    0
 Symmetry not used in FoFCou.

 Cycle   1  Pass 1  IDiag  1:
 E= -2.34192216134002    
 DIIS: error= 2.62D-03 at cycle   1 NSaved=   1.
 NSaved= 1 IEnMin= 1 EnMin= -2.34192216134002     IErMin= 1 ErrMin= 2.62D-03
 ErrMax= 2.62D-03  0.00D+00 EMaxC= 1.00D-01 BMatC= 1.58D-04 BMatP= 1.58D-04
 IDIUse=3 WtCom= 9.74D-01 WtEn= 2.62D-02
 Coeff-Com:  0.100D+01
 Coeff-En:   0.100D+01
 Coeff:      0.100D+01
 GapD=    2.000 DampG=2.000 DampE=1.000 DampFc=2.0000 IDamp=-1.
 RMSDP=7.69D-04 MaxDP=4.68D-03              OVMax= 0.00D+00

 Cycle   2  Pass 1  IDiag  3:
 E= -2.34229820141070     Delta-E=       -0.000376040071 Rises=F Damp=F
 DIIS: error= 5.20D-04 at cycle   2 NSaved=   2.
 NSaved= 2 IEnMin= 2 EnMin= -2.34229820141070     IErMin= 2 ErrMin= 5.20D-04
 ErrMax= 5.20D-04  0.00D+00 EMaxC= 1.00D-01 BMatC= 1.19D-05 BMatP= 1.58D-04
 IDIUse=3 WtCom= 9.95D-01 WtEn= 5.20D-03
 Coeff-Com: -0.270D+00 0.127D+01
 Coeff-En:   0.000D+00 0.100D+01
 Coeff:     -0.268D+00 0.127D+01
 Gap=     0.381 Goal=   None    Shift=    0.000
 RMSDP=3.51D-04 MaxDP=2.09D-03 DE=-3.76D-04 OVMax= 2.97D-03

 Cycle   3  Pass 1  IDiag  3:
 E= -2.34234700391862     Delta-E=       -0.000048802508 Rises=F Damp=F
 DIIS: error= 1.74D-04 at cycle   3 NSaved=   3.
 NSaved= 3 IEnMin= 3 EnMin= -2.34234700391862     IErMin= 3 ErrMin= 1.74D-04
 ErrMax= 1.74D-04  0.00D+00 EMaxC= 1.00D-01 BMatC= 1.00D-06 BMatP= 1.19D-05
 IDIUse=3 WtCom= 9.98D-01 WtEn= 1.74D-03
 Coeff-Com:  0.872D-01-0.541D+00 0.145D+01
 Coeff-En:   0.000D+00 0.000D+00 0.100D+01
 Coeff:      0.871D-01-0.540D+00 0.145D+01
 Gap=     0.381 Goal=   None    Shift=    0.000
 RMSDP=1.81D-04 MaxDP=1.44D-03 DE=-4.88D-05 OVMax= 2.18D-03

 Cycle   4  Pass 1  IDiag  3:
 E= -2.34235517029663     Delta-E=       -0.000008166378 Rises=F Damp=F
 DIIS: error= 9.13D-05 at cycle   4 NSaved=   4.
 NSaved= 4 IEnMin= 4 EnMin= -2.34235517029663     IErMin= 4 ErrMin= 9.13D-05
 ErrMax= 9.13D-05  0.00D+00 EMaxC= 1.00D-01 BMatC= 1.64D-07 BMatP= 1.00D-06
 IDIUse=1 WtCom= 1.00D+00 WtEn= 0.00D+00
 Coeff-Com:  0.796D-03 0.492D-01-0.564D+00 0.151D+01
 Coeff:      0.796D-03 0.492D-01-0.564D+00 0.151D+01
 Gap=     0.381 Goal=   None    Shift=    0.000
 RMSDP=1.01D-04 MaxDP=8.29D-04 DE=-8.17D-06 OVMax= 1.22D-03

 Cycle   5  Pass 1  IDiag  3:
 E= -2.34235692431885     Delta-E=       -0.000001754022 Rises=F Damp=F
 DIIS: error= 3.29D-05 at cycle   5 NSaved=   5.
 NSaved= 5 IEnMin= 5 EnMin= -2.34235692431885     IErMin= 5 ErrMin= 3.29D-05
 ErrMax= 3.29D-05  0.00D+00 EMaxC= 1.00D-01 BMatC= 2.04D-08 BMatP= 1.64D-07
 IDIUse=1 WtCom= 1.00D+00 WtEn= 0.00D+00
 Coeff-Com: -0.921D-02 0.353D-01 0.120D+00-0.849D+00 0.170D+01
 Coeff:     -0.921D-02 0.353D-01 0.120D+00-0.849D+00 0.170D+01
 Gap=     0.381 Goal=   None    Shift=    0.000
 RMSDP=4.56D-05 MaxDP=3.95D-04 DE=-1.75D-06 OVMax= 5.73D-04

 Cycle   6  Pass 1  IDiag  3:
 E= -2.34235715494147     Delta-E=       -0.000000230623 Rises=F Damp=F
 DIIS: error= 4.83D-06 at cycle   6 NSaved=   6.
 NSaved= 6 IEnMin= 6 EnMin= -2.34235715494147     IErMin= 6 ErrMin= 4.83D-06
 ErrMax= 4.83D-06  0.00D+00 EMaxC= 1.00D-01 BMatC= 7.23D-10 BMatP= 2.04D-08
 IDIUse=1 WtCom= 1.00D+00 WtEn= 0.00D+00
 Coeff-Com:  0.455D-02-0.212D-01-0.225D-01 0.320D+00-0.796D+00 0.152D+01
 Coeff:      0.455D-02-0.212D-01-0.225D-01 0.320D+00-0.796D+00 0.152D+01
 Gap=     0.381 Goal=   None    Shift=    0.000
 RMSDP=5.84D-06 MaxDP=4.95D-05 DE=-2.31D-07 OVMax= 6.19D-05

 Cycle   7  Pass 1  IDiag  3:
 E= -2.34235716016077     Delta-E=       -0.000000005219 Rises=F Damp=F
 DIIS: error= 7.44D-07 at cycle   7 NSaved=   7.
 NSaved= 7 IEnMin= 7 EnMin= -2.34235716016077     IErMin= 7 ErrMin= 7.44D-07
 ErrMax= 7.44D-07  0.00D+00 EMaxC= 1.00D-01 BMatC= 3.16D-11 BMatP= 7.23D-10
 IDIUse=1 WtCom= 1.00D+00 WtEn= 0.00D+00
 Coeff-Com: -0.155D-02 0.733D-02 0.582D-02-0.102D+00 0.263D+00-0.616D+00
 Coeff-Com:  0.144D+01
 Coeff:     -0.155D-02 0.733D-02 0.582D-02-0.102D+00 0.263D+00-0.616D+00
 Coeff:      0.144D+01
 Gap=     0.381 Goal=   None    Shift=    0.000
 RMSDP=9.93D-07 MaxDP=6.88D-06 DE=-5.22D-09 OVMax= 9.13D-06

 Cycle   8  Pass 1  IDiag  3:
 E= -2.34235716035236     Delta-E=       -0.000000000192 Rises=F Damp=F
 DIIS: error= 1.36D-07 at cycle   8 NSaved=   8.
 NSaved= 8 IEnMin= 8 EnMin= -2.34235716035236     IErMin= 8 ErrMin= 1.36D-07
 ErrMax= 1.36D-07  0.00D+00 EMaxC= 1.00D-01 BMatC= 1.10D-12 BMatP= 3.16D-11
 IDIUse=1 WtCom= 1.00D+00 WtEn= 0.00D+00
 Coeff-Com:  0.500D-03-0.234D-02-0.237D-02 0.354D-01-0.903D-01 0.217D+00
 Coeff-Com: -0.608D+00 0.145D+01
 Coeff:      0.500D-03-0.234D-02-0.237D-02 0.354D-01-0.903D-01 0.217D+00
 Coeff:     -0.608D+00 0.145D+01
 Gap=     0.381 Goal=   None    Shift=    0.000
 RMSDP=1.75D-07 MaxDP=9.38D-07 DE=-1.92D-10 OVMax= 1.31D-06

 Cycle   9  Pass 1  IDiag  3:
 E= -2.34235716035933     Delta-E=       -0.000000000007 Rises=F Damp=F
 DIIS: error= 3.07D-08 at cycle   9 NSaved=   9.
 NSaved= 9 IEnMin= 9 EnMin= -2.34235716035933     IErMin= 9 ErrMin= 3.07D-08
 ErrMax= 3.07D-08  0.00D+00 EMaxC= 1.00D-01 BMatC= 5.58D-14 BMatP= 1.10D-12
 IDIUse=1 WtCom= 1.00D+00 WtEn= 0.00D+00
 Coeff-Com: -0.220D-03 0.103D-02 0.993D-03-0.154D-01 0.395D-01-0.957D-01
 Coeff-Com:  0.277D+00-0.792D+00 0.159D+01
 Coeff:     -0.220D-03 0.103D-02 0.993D-03-0.154D-01 0.395D-01-0.957D-01
 Coeff:      0.277D+00-0.792D+00 0.159D+01
 Gap=     0.381 Goal=   None    Shift=    0.000
 RMSDP=4.47D-08 MaxDP=2.94D-07 DE=-6.96D-12 OVMax= 2.50D-07

 Cycle  10  Pass 1  IDiag  3:
 E= -2.34235716035961     Delta-E=        0.000000000000 Rises=F Damp=F
 DIIS: error= 5.47D-09 at cycle  10 NSaved=  10.
 NSaved=10 IEnMin=10 EnMin= -2.34235716035961     IErMin=10 ErrMin= 5.47D-09
 ErrMax= 5.47D-09  0.00D+00 EMaxC= 1.00D-01 BMatC= 2.47D-15 BMatP= 5.58D-14
 IDIUse=1 WtCom= 1.00D+00 WtEn= 0.00D+00
 Coeff-Com:  0.910D-04-0.430D-03-0.401D-03 0.635D-02-0.163D-01 0.399D-01
 Coeff-Com: -0.116D+00 0.344D+00-0.816D+00 0.156D+01
 Coeff:      0.910D-04-0.430D-03-0.401D-03 0.635D-02-0.163D-01 0.399D-01
 Coeff:     -0.116D+00 0.344D+00-0.816D+00 0.156D+01
 Gap=     0.381 Goal=   None    Shift=    0.000
 RMSDP=9.93D-09 MaxDP=6.11D-08 DE=-2.84D-13 OVMax= 7.91D-08

 Cycle  11  Pass 2  IDiag  1:
 SCF Done:  E(RAM1) =  -2.34235716036     A.U. after   11 cycles
            NFock= 10  Conv=0.99D-08     -V/T= 0.8790
 KE=-1.936220521462D+01 PE=-1.703697508036D+02 EE= 8.513681264952D+01
 Leave Link  502 at Mon Nov 23 02:20:26 2015, MaxMem=    33554432 cpu:         0.0
 (Enter /home/Applications/g09/g09/l701.exe)
 Compute integral first derivatives.
 ... and contract with generalized density number  0.
 Leave Link  701 at Mon Nov 23 02:20:26 2015, MaxMem=    33554432 cpu:         0.0
 (Enter /home/Applications/g09/g09/l702.exe)
 L702 exits ... SP integral derivatives will be done elsewhere.
 Leave Link  702 at Mon Nov 23 02:20:26 2015, MaxMem=    33554432 cpu:         0.0
 (Enter /home/Applications/g09/g09/l703.exe)
 Compute integral first derivatives, UseDBF=F ICtDFT=           0.
 Integral derivatives from FoFJK, PRISM(SPDF).
 Calling FoFJK, ICntrl=      2127 FMM=F ISym2X=0 I1Cent= 0 IOpClX= 0 NMat=1 NMatS=1 NMatT=0.
 FoFJK:  IHMeth= 8 ICntrl=    2127 DoSepK=F KAlg= 0 I1Cent=   0 FoldK=F
 IRaf=         0 NMat=   1 IRICut=       1 DoRegI=T DoRafI=F ISym2E= 0.
 FoFCou: FMM=F IPFlag=           0 FMFlag=      100000 FMFlg1=         800
         NFxFlg=           0 DoJE=F BraDBF=F KetDBF=F FulRan=T
         wScrn=  0.000000 ICntrl=    2127 IOpCl=  0 I1Cent=           0 NGrid=           0
         NMat0=    1 NMatS0=      1 NMatT0=    0 NMatD0=    1 NMtDS0=    0 NMtDT0=    0
 Symmetry not used in FoFCou.
 Leave Link  703 at Mon Nov 23 02:20:26 2015, MaxMem=    33554432 cpu:         0.0
 (Enter /home/Applications/g09/g09/l716.exe)
 Dipole        =-1.09204371D-02-1.71967466D-01-1.25900016D-03
 ***** Axes restored to original set *****
 -------------------------------------------------------------------
 Center     Atomic                   Forces (Hartrees/Bohr)
 Number     Number              X              Y              Z
 -------------------------------------------------------------------
      1        6          -0.001325926   -0.001831217   -0.001167287
      2        6          -0.008178063    0.002426129    0.001282988
      3        8           0.002075409    0.001760099   -0.000440493
      4        6          -0.000440543   -0.001174927    0.000304040
      5        6           0.000208892   -0.003251417    0.000201896
      6        1           0.000462782    0.003789740   -0.000061258
      7        1           0.001044688   -0.001188804   -0.000083941
      8        1           0.002120614   -0.001100715   -0.000378496
      9        1           0.004032148    0.000571111    0.000342551
 -------------------------------------------------------------------
 Cartesian Forces:  Max     0.008178063 RMS     0.002280794
 Leave Link  716 at Mon Nov 23 02:20:26 2015, MaxMem=    33554432 cpu:         0.0
 (Enter /home/Applications/g09/g09/l103.exe)

 GradGradGradGradGradGradGradGradGradGradGradGradGradGradGradGradGradGrad
 Berny optimization.
 Using GEDIIS/GDIIS optimizer.
 FormGI is forming the generalized inverse of G from B-inverse, IUseBI=4.
 Internal  Forces:  Max     0.003924428 RMS     0.001542404
 Search for a local minimum.
 Step number   3 out of a maximum of   48
 All quantities printed in internal units (Hartrees-Bohrs-Radians)
 RMS Force = .15424D-02 SwitMx=.10000D-02 MixMth= 1
 Mixed Optimization -- RFO/linear search
 Update second derivatives using D2CorX and points    1    2    3
 DE= -2.41D-03 DEPred=-2.21D-03 R= 1.09D+00
 TightC=F SS=  1.41D+00  RLast= 1.01D-01 DXNew= 8.4853D-01 3.0388D-01
 Trust test= 1.09D+00 RLast= 1.01D-01 DXMaxT set to 5.05D-01
 ITU=  1  1  0
 Use linear search instead of GDIIS.
     Eigenvalues ---    0.02117   0.02152   0.02515   0.02594   0.02759
     Eigenvalues ---    0.03160   0.12240   0.16000   0.16000   0.16063
     Eigenvalues ---    0.21978   0.23427   0.32006   0.33891   0.38253
     Eigenvalues ---    0.40032   0.42130   0.45040   0.47255   0.56624
     Eigenvalues ---    0.84773
 RFO step:  Lambda=-4.50729360D-04 EMin= 2.11706320D-02
 Quartic linear search produced a step of  0.07298.
 Iteration  1 RMS(Cart)=  0.00849039 RMS(Int)=  0.00011316
 Iteration  2 RMS(Cart)=  0.00009540 RMS(Int)=  0.00006584
 Iteration  3 RMS(Cart)=  0.00000000 RMS(Int)=  0.00006584
 ITry= 1 IFail=0 DXMaxC= 2.18D-02 DCOld= 1.00D+10 DXMaxT= 5.05D-01 DXLimC= 3.00D+00 Rises=F
 Variable       Old X    -DE/DX   Delta X   Delta X   Delta X     New X
                                 (Linear)    (Quad)   (Total)
    R1        2.59264   0.00392  -0.00228   0.00883   0.00655   2.59919
    R2        2.71915   0.00010  -0.00218   0.00077  -0.00141   2.71775
    R3        2.02047   0.00291  -0.00084   0.00844   0.00760   2.02807
    R4        2.62325  -0.00113  -0.00243  -0.00265  -0.00508   2.61817
    R5        2.02772  -0.00005  -0.00010   0.00016   0.00006   2.02778
    R6        2.62186  -0.00183  -0.00275  -0.00532  -0.00807   2.61379
    R7        2.59919  -0.00114  -0.00107   0.00006  -0.00101   2.59818
    R8        2.03043  -0.00154   0.00003  -0.00286  -0.00283   2.02760
    R9        2.02098   0.00248  -0.00148   0.00691   0.00543   2.02640
    A1        1.85719  -0.00100   0.00067  -0.00219  -0.00154   1.85565
    A2        2.21515   0.00338   0.00163   0.02187   0.02348   2.23862
    A3        2.21077  -0.00237  -0.00230  -0.01953  -0.02186   2.18892
    A4        1.93363  -0.00041  -0.00088   0.00045  -0.00047   1.93317
    A5        2.36280  -0.00222  -0.00143  -0.01764  -0.01909   2.34370
    A6        1.98668   0.00263   0.00232   0.01734   0.01964   2.00632
    A7        1.84615   0.00004   0.00122  -0.00115   0.00006   1.84621
    A8        1.93182   0.00164  -0.00071   0.00534   0.00463   1.93645
[...]
 Coeff:      0.200D-02-0.644D-02 0.117D-01 0.169D-01-0.190D+00 0.555D+00
 Coeff:     -0.115D+01 0.176D+01
 Gap=     0.381 Goal=   None    Shift=    0.000
 RMSDP=2.43D-08 MaxDP=1.93D-07 DE=-1.01D-12 OVMax= 2.76D-07

 Cycle   9  Pass 1  IDiag  3:
 E= -2.34267396304416     Delta-E=        0.000000000000 Rises=F Damp=F
 DIIS: error= 4.65D-09 at cycle   9 NSaved=   9.
 NSaved= 9 IEnMin= 9 EnMin= -2.34267396304416     IErMin= 9 ErrMin= 4.65D-09
 ErrMax= 4.65D-09  0.00D+00 EMaxC= 1.00D-01 BMatC= 5.50D-16 BMatP= 8.40D-15
 IDIUse=1 WtCom= 1.00D+00 WtEn= 0.00D+00
 Coeff-Com: -0.905D-03 0.291D-02-0.526D-02-0.833D-02 0.890D-01-0.260D+00
 Coeff-Com:  0.550D+00-0.100D+01 0.163D+01
 Coeff:     -0.905D-03 0.291D-02-0.526D-02-0.833D-02 0.890D-01-0.260D+00
 Coeff:      0.550D+00-0.100D+01 0.163D+01
 Gap=     0.381 Goal=   None    Shift=    0.000
 RMSDP=6.05D-09 MaxDP=4.92D-08 DE=-1.14D-13 OVMax= 6.94D-08

 Cycle  10  Pass 2  IDiag  1:
 SCF Done:  E(RAM1) =  -2.34267396304     A.U. after   10 cycles
            NFock=  9  Conv=0.61D-08     -V/T= 0.8790
 KE=-1.936360943185D+01 PE=-1.703685696072D+02 EE= 8.513675838437D+01
 Leave Link  502 at Mon Nov 23 02:20:26 2015, MaxMem=    33554432 cpu:         0.0
 (Enter /home/Applications/g09/g09/l701.exe)
 Compute integral first derivatives.
 ... and contract with generalized density number  0.
 Leave Link  701 at Mon Nov 23 02:20:26 2015, MaxMem=    33554432 cpu:         0.0
 (Enter /home/Applications/g09/g09/l702.exe)
 L702 exits ... SP integral derivatives will be done elsewhere.
 Leave Link  702 at Mon Nov 23 02:20:26 2015, MaxMem=    33554432 cpu:         0.0
 (Enter /home/Applications/g09/g09/l703.exe)
 Compute integral first derivatives, UseDBF=F ICtDFT=           0.
 Integral derivatives from FoFJK, PRISM(SPDF).
 Calling FoFJK, ICntrl=      2127 FMM=F ISym2X=0 I1Cent= 0 IOpClX= 0 NMat=1 NMatS=1 NMatT=0.
 FoFJK:  IHMeth= 8 ICntrl=    2127 DoSepK=F KAlg= 0 I1Cent=   0 FoldK=F
 IRaf=         0 NMat=   1 IRICut=       1 DoRegI=T DoRafI=F ISym2E= 0.
 FoFCou: FMM=F IPFlag=           0 FMFlag=      100000 FMFlg1=         800
         NFxFlg=           0 DoJE=F BraDBF=F KetDBF=F FulRan=T
         wScrn=  0.000000 ICntrl=    2127 IOpCl=  0 I1Cent=           0 NGrid=           0
         NMat0=    1 NMatS0=      1 NMatT0=    0 NMatD0=    1 NMtDS0=    0 NMtDT0=    0
 Symmetry not used in FoFCou.
 Leave Link  703 at Mon Nov 23 02:20:26 2015, MaxMem=    33554432 cpu:         0.0
 (Enter /home/Applications/g09/g09/l716.exe)
 Dipole        = 2.72772966D-04-1.57294738D-01-3.29192826D-05
 ***** Axes restored to original set *****
 -------------------------------------------------------------------
 Center     Atomic                   Forces (Hartrees/Bohr)
 Number     Number              X              Y              Z
 -------------------------------------------------------------------
      1        6           0.000074863    0.000050666   -0.000059168
      2        6          -0.000085039    0.000029360    0.000018970
      3        8           0.000142348   -0.000085385    0.000040584
      4        6          -0.000016630    0.000131455   -0.000071474
      5        6          -0.000035652   -0.000034522    0.000068690
      6        1          -0.000027668   -0.000011150   -0.000014792
      7        1          -0.000005369   -0.000007108    0.000011122
      8        1          -0.000007979   -0.000039353   -0.000018078
      9        1          -0.000038874   -0.000033962    0.000024145
 -------------------------------------------------------------------
 Cartesian Forces:  Max     0.000142348 RMS     0.000056330
 Leave Link  716 at Mon Nov 23 02:20:26 2015, MaxMem=    33554432 cpu:         0.0
 (Enter /home/Applications/g09/g09/l103.exe)

 GradGradGradGradGradGradGradGradGradGradGradGradGradGradGradGradGradGrad
 Berny optimization.
 Using GEDIIS/GDIIS optimizer.
 FormGI is forming the generalized inverse of G from B-inverse, IUseBI=4.
 Internal  Forces:  Max     0.000086799 RMS     0.000031542
 Search for a local minimum.
 Step number   7 out of a maximum of   48
 All quantities printed in internal units (Hartrees-Bohrs-Radians)
 RMS Force = .31542D-04 SwitMx=.10000D-02 MixMth= 2
 Mixed Optimization -- En-DIIS/RFO-DIIS
 Swapping is turned off.
 Update second derivatives using D2CorX and points    1    2    3    4    5
                                                      6    7
 DE= -2.37D-06 DEPred=-2.39D-06 R= 9.93D-01
 TightC=F SS=  1.41D+00  RLast= 8.46D-03 DXNew= 8.4853D-01 2.5374D-02
 Trust test= 9.93D-01 RLast= 8.46D-03 DXMaxT set to 5.05D-01
 ITU=  1  1  1  1  1  1  0
     Eigenvalues ---    0.02110   0.02347   0.02497   0.02774   0.03149
     Eigenvalues ---    0.05506   0.08368   0.15238   0.16031   0.16059
     Eigenvalues ---    0.22034   0.26143   0.31925   0.35009   0.38277
     Eigenvalues ---    0.40085   0.40878   0.44933   0.48951   0.57524
     Eigenvalues ---    0.85118
 En-DIIS/RFO-DIIS IScMMF=        0 using points:     7    6    5    4
 RFO step:  Lambda=-8.36337747D-08.
 NNeg= 0 NP= 4 Switch=  2.50D-03 Rises=F DC=  2.50D-05 SmlDif=  1.00D-05
 RMS Error=  0.7782820417D-04 NUsed= 4 EDIIS=F
 DidBck=F Rises=F RFO-DIIS coefs:    0.88240    0.06396    0.03588    0.01776
 Iteration  1 RMS(Cart)=  0.00020061 RMS(Int)=  0.00000026
 Iteration  2 RMS(Cart)=  0.00000006 RMS(Int)=  0.00000025
 ITry= 1 IFail=0 DXMaxC= 6.75D-04 DCOld= 1.00D+10 DXMaxT= 5.05D-01 DXLimC= 3.00D+00 Rises=F
 Variable       Old X    -DE/DX   Delta X   Delta X   Delta X     New X
                                 (Linear)    (Quad)   (Total)
    R1        2.60031   0.00001  -0.00002   0.00007   0.00005   2.60036
    R2        2.71743   0.00002   0.00000   0.00007   0.00007   2.71750
    R3        2.02708  -0.00001   0.00000   0.00000   0.00000   2.02708
    R4        2.61744  -0.00008   0.00002  -0.00016  -0.00014   2.61729
    R5        2.02663   0.00004   0.00001   0.00011   0.00011   2.02674
    R6        2.61704   0.00002  -0.00015   0.00023   0.00008   2.61712
    R7        2.60043  -0.00001  -0.00002   0.00002   0.00000   2.60043
    R8        2.02677   0.00000   0.00004  -0.00006  -0.00002   2.02675
    R9        2.02710  -0.00003  -0.00003  -0.00003  -0.00006   2.02703
    A1        1.85476   0.00000   0.00002  -0.00003  -0.00001   1.85474
    A2        2.24738  -0.00005   0.00005  -0.00045  -0.00040   2.24698
    A3        2.18105   0.00005  -0.00006   0.00048   0.00042   2.18146
    A4        1.93467  -0.00004  -0.00008  -0.00005  -0.00012   1.93454
    A5        2.33275   0.00001   0.00007   0.00003   0.00010   2.33285
    A6        2.01577   0.00003   0.00000   0.00002   0.00003   2.01580
    A7        1.84594   0.00009   0.00008   0.00019   0.00027   1.84621
    A8        1.93486  -0.00008  -0.00001  -0.00024  -0.00026   1.93460
    A9        2.01603   0.00003  -0.00003   0.00009   0.00006   2.01609
   A10        2.33230   0.00005   0.00005   0.00015   0.00020   2.33250
   A11        1.85455   0.00003   0.00000   0.00013   0.00013   1.85468
   A12        2.18167  -0.00001  -0.00006  -0.00006  -0.00012   2.18155
   A13        2.24696  -0.00002   0.00006  -0.00007  -0.00001   2.24695
    D1        0.00007   0.00000   0.00000  -0.00004  -0.00005   0.00002
    D2       -3.14103   0.00000   0.00013  -0.00023  -0.00010  -3.14112
    D3       -3.14084  -0.00001   0.00006  -0.00051  -0.00045  -3.14129
    D4        0.00125  -0.00001   0.00020  -0.00070  -0.00050   0.00075
    D5        0.00019  -0.00002  -0.00006  -0.00034  -0.00040  -0.00021
    D6        3.14123   0.00000  -0.00002   0.00013   0.00010   3.14133
    D7        3.14113   0.00000  -0.00012   0.00010  -0.00002   3.14111
    D8       -0.00102   0.00001  -0.00009   0.00058   0.00049  -0.00053
    D9       -0.00030   0.00001   0.00006   0.00041   0.00047   0.00017
   D10        3.14090   0.00001  -0.00005   0.00056   0.00051   3.14141
   D11        0.00042  -0.00002  -0.00010  -0.00064  -0.00074  -0.00032
   D12        3.14152   0.00000  -0.00004  -0.00013  -0.00017   3.14135
   D13       -0.00038   0.00002   0.00010   0.00062   0.00071   0.00033
   D14       -3.14139   0.00001   0.00006   0.00012   0.00018  -3.14121
   D15       -3.14136   0.00000   0.00002  -0.00002   0.00001  -3.14135
   D16        0.00082  -0.00002  -0.00001  -0.00051  -0.00052   0.00030
         Item               Value     Threshold  Converged?
 Maximum Force            0.000087     0.000450     YES
 RMS     Force            0.000032     0.000300     YES
 Maximum Displacement     0.000675     0.001800     YES
 RMS     Displacement     0.000201     0.001200     YES
 Predicted change in Energy=-1.141413D-07
 Optimization completed.
    -- Stationary point found.
                           ----------------------------
                           !   Optimized Parameters   !
                           ! (Angstroms and Degrees)  !
 --------------------------                            --------------------------
 ! Name  Definition              Value          Derivative Info.                !
 --------------------------------------------------------------------------------
 ! R1    R(1,2)                  1.376          -DE/DX =    0.0                 !
 ! R2    R(1,5)                  1.438          -DE/DX =    0.0                 !
 ! R3    R(1,9)                  1.0727         -DE/DX =    0.0                 !
 ! R4    R(2,3)                  1.3851         -DE/DX =   -0.0001              !
 ! R5    R(2,8)                  1.0724         -DE/DX =    0.0                 !
 ! R6    R(3,4)                  1.3849         -DE/DX =    0.0                 !
 ! R7    R(4,5)                  1.3761         -DE/DX =    0.0                 !
 ! R8    R(4,7)                  1.0725         -DE/DX =    0.0                 !
 ! R9    R(5,6)                  1.0727         -DE/DX =    0.0                 !
 ! A1    A(2,1,5)              106.2698         -DE/DX =    0.0                 !
 ! A2    A(2,1,9)              128.7653         -DE/DX =    0.0                 !
 ! A3    A(5,1,9)              124.9649         -DE/DX =    0.0001              !
 ! A4    A(1,2,3)              110.8482         -DE/DX =    0.0                 !
 ! A5    A(1,2,8)              133.6566         -DE/DX =    0.0                 !
 ! A6    A(3,2,8)              115.4952         -DE/DX =    0.0                 !
 ! A7    A(2,3,4)              105.7647         -DE/DX =    0.0001              !
 ! A8    A(3,4,5)              110.8593         -DE/DX =   -0.0001              !
 ! A9    A(3,4,7)              115.5099         -DE/DX =    0.0                 !
 ! A10   A(5,4,7)              133.6308         -DE/DX =    0.0                 !
 ! A11   A(1,5,4)              106.258          -DE/DX =    0.0                 !
 ! A12   A(1,5,6)              125.0006         -DE/DX =    0.0                 !
 ! A13   A(4,5,6)              128.7413         -DE/DX =    0.0                 !
 ! D1    D(5,1,2,3)              0.0039         -DE/DX =    0.0                 !
 ! D2    D(5,1,2,8)           -179.9677         -DE/DX =    0.0                 !
 ! D3    D(9,1,2,3)           -179.9567         -DE/DX =    0.0                 !
 ! D4    D(9,1,2,8)              0.0716         -DE/DX =    0.0                 !
 ! D5    D(2,1,5,4)              0.0108         -DE/DX =    0.0                 !
 ! D6    D(2,1,5,6)            179.979          -DE/DX =    0.0                 !
 ! D7    D(9,1,5,4)            179.9734         -DE/DX =    0.0                 !
 ! D8    D(9,1,5,6)             -0.0584         -DE/DX =    0.0                 !
 ! D9    D(1,2,3,4)             -0.017          -DE/DX =    0.0                 !
 ! D10   D(8,2,3,4)            179.9603         -DE/DX =    0.0                 !
 ! D11   D(2,3,4,5)              0.0242         -DE/DX =    0.0                 !
 ! D12   D(2,3,4,7)            179.9958         -DE/DX =    0.0                 !
 ! D13   D(3,4,5,1)             -0.022          -DE/DX =    0.0                 !
 ! D14   D(3,4,5,6)           -179.9885         -DE/DX =    0.0                 !
 ! D15   D(7,4,5,1)           -179.9865         -DE/DX =    0.0                 !
 ! D16   D(7,4,5,6)              0.0469         -DE/DX =    0.0                 !
 --------------------------------------------------------------------------------
 Lowest energy point so far.  Saving SCF results.
 GradGradGradGradGradGradGradGradGradGradGradGradGradGradGradGradGradGrad

 Largest change from initial coordinates is atom    6       0.268 Angstoms.
 Leave Link  103 at Mon Nov 23 02:20:26 2015, MaxMem=    33554432 cpu:         0.0
 (Enter /home/Applications/g09/g09/l202.exe)
                          Input orientation:                          
 ---------------------------------------------------------------------
 Center     Atomic      Atomic             Coordinates (Angstroms)
 Number     Number       Type             X           Y           Z
 ---------------------------------------------------------------------
      1          6           0        0.977134   -0.722694   -0.032760
      2          6           0       -0.343446   -1.109034   -0.016734
      3          8           0       -1.179884   -0.005102   -0.003568
      4          6           0       -0.344911    1.099724   -0.011381
      5          6           0        0.976269    0.715304   -0.029438
      6          1           0        1.854522    1.331138   -0.038947
      7          1           0       -0.838566    2.051845   -0.002956
      8          1           0       -0.836147   -2.061592   -0.012179
      9          1           0        1.856492   -1.336866   -0.046011
 ---------------------------------------------------------------------
                    Distance matrix (angstroms):
                    1          2          3          4          5
     1  C    0.000000
     2  C    1.376025   0.000000
     3  O    2.273437   1.385088   0.000000
     4  C    2.251547   2.208764   1.384876   0.000000
     5  C    1.438002   2.251670   2.273467   1.376089   0.000000
     6  H    2.233399   3.284203   3.315782   2.211745   1.072693
     7  H    3.315979   3.199451   2.085073   1.072521   2.254033
     8  H    2.254121   1.072447   2.085037   3.199255   3.316067
     9  H    1.072685   2.211898   3.315868   3.283952   2.233040
                    6          7          8          9
     6  H    0.000000
     7  H    2.788088   0.000000
     8  H    4.330246   4.113448   0.000000
     9  H    2.668013   4.329960   2.788670   0.000000
 Stoichiometry    C4H4O
 Framework group  C1[X(C4H4O)]
 Deg. of freedom    21
 Full point group                 C1      NOp   1
 RotChk:  IX=2 Diff= 5.02D-14
 Largest Abelian subgroup         C1      NOp   1
 Largest concise Abelian subgroup C1      NOp   1
                         Standard orientation:                         
 ---------------------------------------------------------------------
 Center     Atomic      Atomic             Coordinates (Angstroms)
 Number     Number       Type             X           Y           Z
 ---------------------------------------------------------------------
      1          6           0       -0.717681    0.972520   -0.000038
      2          6           0       -1.104929   -0.347891   -0.000038
      3          8           0       -0.001570   -1.185188    0.000144
      4          6           0        1.103833   -0.350942   -0.000134
      5          6           0        0.720320    0.970625    0.000062
      6          1           0        1.336759    1.848504   -0.000236
      7          1           0        2.055617   -0.845318    0.000031
      8          1           0       -2.057827   -0.839956   -0.000531
      9          1           0       -1.331251    1.852398    0.000476
 ---------------------------------------------------------------------
 Rotational constants (GHZ):      9.3949945      8.9721667      4.5893569
 Leave Link  202 at Mon Nov 23 02:20:26 2015, MaxMem=    33554432 cpu:         0.0
 (Enter /home/Applications/g09/g09/l601.exe)
 Copying SCF densities to generalized density rwf, IOpCl= 0 IROHF=0.

 **********************************************************************

            Population analysis using the SCF density.

 **********************************************************************

 Orbital symmetries:
       Occupied  (A) (A) (A) (A) (A) (A) (A) (A) (A) (A) (A) (A)
                 (A)
       Virtual   (A) (A) (A) (A) (A) (A) (A) (A) (A) (A) (A)
 The electronic state is 1-A.
 Alpha  occ. eigenvalues --   -1.66293  -1.21875  -1.00354  -0.80149  -0.78852
 Alpha  occ. eigenvalues --   -0.68957  -0.59301  -0.56138  -0.55339  -0.52345
 Alpha  occ. eigenvalues --   -0.51634  -0.42273  -0.39422
 Alpha virt. eigenvalues --   -0.01336   0.01261   0.10714   0.14403   0.18131
 Alpha virt. eigenvalues --    0.18323   0.19513   0.20221   0.20827   0.21577
 Alpha virt. eigenvalues --    0.22872
          Condensed to atoms (all electrons):
               1          2          3          4          5          6
     1  C    4.471589   0.000000   0.000000   0.000000   0.000000   0.000000
     2  C    0.000000   4.352370   0.000000   0.000000   0.000000   0.000000
     3  O    0.000000   0.000000   5.884031   0.000000   0.000000   0.000000
     4  C    0.000000   0.000000   0.000000   4.352181   0.000000   0.000000
     5  C    0.000000   0.000000   0.000000   0.000000   4.471930   0.000000
     6  H    0.000000   0.000000   0.000000   0.000000   0.000000   0.619830
     7  H    0.000000   0.000000   0.000000   0.000000   0.000000   0.000000
     8  H    0.000000   0.000000   0.000000   0.000000   0.000000   0.000000
     9  H    0.000000   0.000000   0.000000   0.000000   0.000000   0.000000
               7          8          9
     1  C    0.000000   0.000000   0.000000
     2  C    0.000000   0.000000   0.000000
     3  O    0.000000   0.000000   0.000000
     4  C    0.000000   0.000000   0.000000
     5  C    0.000000   0.000000   0.000000
     6  H    0.000000   0.000000   0.000000
     7  H    0.614116   0.000000   0.000000
     8  H    0.000000   0.614111   0.000000
     9  H    0.000000   0.000000   0.619843
 Mulliken charges:
               1
     1  C   -0.471589
     2  C   -0.352370
     3  O    0.115969
     4  C   -0.352181
     5  C   -0.471930
     6  H    0.380170
     7  H    0.385884
     8  H    0.385889
     9  H    0.380157
 Sum of Mulliken charges =   0.00000
 Mulliken charges with hydrogens summed into heavy atoms:
               1
     1  C   -0.091432
     2  C    0.033520
     3  O    0.115969
     4  C    0.033703
     5  C   -0.091760
 Charge=              0.0000 electrons
 Dipole moment (field-independent basis, Debye):
    X=              0.0007    Y=             -0.3998    Z=             -0.0001  Tot=              0.3998
 N-N= 1.022527466916D+02 E-N=-1.703685696313D+02  KE=-1.936360943185D+01
 Leave Link  601 at Mon Nov 23 02:20:26 2015, MaxMem=    33554432 cpu:         0.0
 (Enter /home/Applications/g09/g09/l9999.exe)
 1\1\GINC-DUSTIN-DESKTOP\FOpt\RAM1\ZDO\C4H4O1\DUSTIN\23-Nov-2015\0\\#P 
 AM1(Input,print) Opt\\AM1-Reparam Input\\0,1\C,0.9771337062,-0.7226939
 862,-0.0327598958\C,-0.3434457314,-1.10903363,-0.0167342563\O,-1.17988
 44826,-0.0051022556,-0.003567878\C,-0.344911134,1.0997236409,-0.011380
 9852\C,0.9762686504,0.7153042939,-0.0294381465\H,1.8545217999,1.331137
 5085,-0.0389474684\H,-0.8385658679,2.0518448762,-0.0029556114\H,-0.836
 1473815,-2.061591875,-0.0121793304\H,1.8564924408,-1.3368655727,-0.046
 0114281\\Version=ES64L-G09RevD.01\State=1-A\HF=-2.342674\RMSD=6.051e-0
 9\RMSF=5.633e-05\Dipole=-0.1572811,0.0003808,0.0020516\PG=C01 [X(C4H4O
 1)]\\@


 Until you make peace with who you are,
 you'll never be content with what you have.
                           -- Doris Mortman
 Job cpu time:       0 days  0 hours  0 minutes  1.2 seconds.
 File lengths (MBytes):  RWF=      5 Int=      0 D2E=      0 Chk=      2 Scr=      1
 Normal termination of Gaussian 09 at Mon Nov 23 02:20:26 2015.
