 Entering Gaussian System, Link 0=g09
 Input=FuranAM1Best3.com
 Output=FuranAM1Best3.log
 Initial command:
 /home/Applications/g09/g09/l1.exe "/home/Applications/g09/scratch/Gau-2432.inp" -scrdir="/home/Applications/g09/scratch/"
 Entering Link 1 = /home/Applications/g09/g09/l1.exe PID=      2434.
  
 Copyright (c) 1988,1990,1992,1993,1995,1998,2003,2009,2013,
            Gaussian, Inc.  All Rights Reserved.
  
 This is part of the Gaussian(R) 09 program.  It is based on
 the Gaussian(R) 03 system (copyright 2003, Gaussian, Inc.),
 the Gaussian(R) 98 system (copyright 1998, Gaussian, Inc.),
 the Gaussian(R) 94 system (copyright 1995, Gaussian, Inc.),
 the Gaussian 92(TM) system (copyright 1992, Gaussian, Inc.),
 the Gaussian 90(TM) system (copyright 1990, Gaussian, Inc.),
 the Gaussian 88(TM) system (copyright 1988, Gaussian, Inc.),
 the Gaussian 86(TM) system (copyright 1986, Carnegie Mellon
 University), and the Gaussian 82(TM) system (copyright 1983,
 Carnegie Mellon University). Gaussian is a federally registered
 trademark of Gaussian, Inc.
  
 This software contains proprietary and confidential information,
 including trade secrets, belonging to Gaussian, Inc.
  
 This software is provided under written license and may be
 used, copied, transmitted, or stored only in accord with that
 written license.
  
 The following legend is applicable only to US Government
 contracts under FAR:
  
                    RESTRICTED RIGHTS LEGEND
  
 Use, reproduction and disclosure by the US Government is
 subject to restrictions as set forth in subparagraphs (a)
 and (c) of the Commercial Computer Software - Restricted
 Rights clause in FAR 52.227-19.
  
 Gaussian, Inc.
 340 Quinnipiac St., Bldg. 40, Wallingford CT 06492
  
  
 ---------------------------------------------------------------
 Warning -- This program may not be used in any manner that
 competes with the business of Gaussian, Inc. or will provide
 assistance to any competitor of Gaussian, Inc.  The licensee
 of this program is prohibited from giving any competitor of
 Gaussian, Inc. access to this program.  By using this program,
 the user acknowledges that Gaussian, Inc. is engaged in the
 business of creating and licensing software in the field of
 computational chemistry and represents and warrants to the
 licensee that it is not a competitor of Gaussian, Inc. and that
 it will not use this program in any manner prohibited above.
 ---------------------------------------------------------------
  

 Cite this work as:
 Gaussian 09, Revision D.01,
 M. J. Frisch, G. W. Trucks, H. B. Schlegel, G. E. Scuseria, 
 M. A. Robb, J. R. Cheeseman, G. Scalmani, V. Barone, B. Mennucci, 
 G. A. Petersson, H. Nakatsuji, M. Caricato, X. Li, H. P. Hratchian, 
 A. F. Izmaylov, J. Bloino, G. Zheng, J. L. Sonnenberg, M. Hada, 
 M. Ehara, K. Toyota, R. Fukuda, J. Hasegawa, M. Ishida, T. Nakajima, 
 Y. Honda, O. Kitao, H. Nakai, T. Vreven, J. A. Montgomery, Jr., 
 J. E. Peralta, F. Ogliaro, M. Bearpark, J. J. Heyd, E. Brothers, 
 K. N. Kudin, V. N. Staroverov, T. Keith, R. Kobayashi, J. Normand, 
 K. Raghavachari, A. Rendell, J. C. Burant, S. S. Iyengar, J. Tomasi, 
 M. Cossi, N. Rega, J. M. Millam, M. Klene, J. E. Knox, J. B. Cross, 
 V. Bakken, C. Adamo, J. Jaramillo, R. Gomperts, R. E. Stratmann, 
 O. Yazyev, A. J. Austin, R. Cammi, C. Pomelli, J. W. Ochterski, 
 R. L. Martin, K. Morokuma, V. G. Zakrzewski, G. A. Voth, 
 P. Salvador, J. J. Dannenberg, S. Dapprich, A. D. Daniels, 
 O. Farkas, J. B. Foresman, J. V. Ortiz, J. Cioslowski, 
 and D. J. Fox, Gaussian, Inc., Wallingford CT, 2013.
 
 ******************************************
 Gaussian 09:  ES64L-G09RevD.01 24-Apr-2013
                23-Nov-2015 
 ******************************************
 -----------------------
 #P AM1(Input,print) Opt
 -----------------------
 1/14=-1,18=20,19=15,26=1,38=1/1,3;
 2/9=110,12=2,17=6,18=5,40=1/2;
 3/5=2,16=1,25=1,41=700000,71=1,135=100,136=1/1,2,3;
 4/35=1/1;
 5/5=2,35=1,38=5/2;
 6/7=2,8=2,9=2,10=2,28=1/1;
 7//1,2,3,16;
 1/14=-1,18=20,19=15,26=1/3(2);
 2/9=110/2;
 99//99;
 2/9=110/2;
 3/5=2,16=1,25=1,41=700000,71=1,135=20,136=1/1,2,3;
 4/5=5,16=3,35=1/1;
 5/5=2,35=1,38=5/2;
 7//1,2,3,16;
 1/14=-1,18=20,19=15,26=1/3(-5);
 2/9=110/2;
 6/7=2,8=2,9=2,10=2,19=2,28=1/1;
 99/9=1/99;
 Leave Link    1 at Mon Nov 23 02:20:19 2015, MaxMem=           0 cpu:         0.0
 (Enter /home/Applications/g09/g09/l101.exe)
 -----------------
 AM1-Reparam Input
 -----------------
 Symbolic Z-matrix:
 Charge =  0 Multiplicity = 1
 6                     0.9094   -0.6969    0.01482 
 6                    -0.30871  -1.09901  -0.038 
 8                    -1.17182   0.00156   0.03153 
 6                    -0.32402   1.12522  -0.0302 
 6                     0.99832   0.72233   0.00237 
 1                     1.80577   1.35203   0.03651 
 1                    -0.80071   2.03294  -0.02119 
 1                    -0.83306  -2.02832  -0.04883 
 1                     1.81452  -1.40457   0.03825 
 
 NAtoms=      9 NQM=        9 NQMF=       0 NMMI=      0 NMMIF=      0
                NMic=       0 NMicF=      0.
                    Isotopes and Nuclear Properties:
 (Nuclear quadrupole moments (NQMom) in fm**2, nuclear magnetic moments (NMagM)
  in nuclear magnetons)

  Atom         1           2           3           4           5           6           7           8           9
 IAtWgt=          12          12          16          12          12           1           1           1           1
 AtmWgt=  12.0000000  12.0000000  15.9949146  12.0000000  12.0000000   1.0078250   1.0078250   1.0078250   1.0078250
 NucSpn=           0           0           0           0           0           1           1           1           1
 AtZEff=   0.0000000   0.0000000   0.0000000   0.0000000   0.0000000   0.0000000   0.0000000   0.0000000   0.0000000
 NQMom=    0.0000000   0.0000000   0.0000000   0.0000000   0.0000000   0.0000000   0.0000000   0.0000000   0.0000000
 NMagM=    0.0000000   0.0000000   0.0000000   0.0000000   0.0000000   2.7928460   2.7928460   2.7928460   2.7928460
 AtZNuc=   6.0000000   6.0000000   8.0000000   6.0000000   6.0000000   1.0000000   1.0000000   1.0000000   1.0000000
 Leave Link  101 at Mon Nov 23 02:20:19 2015, MaxMem=    33554432 cpu:         0.0
 (Enter /home/Applications/g09/g09/l103.exe)

 GradGradGradGradGradGradGradGradGradGradGradGradGradGradGradGradGradGrad
 Berny optimization.
 Initialization pass.
                           ----------------------------
                           !    Initial Parameters    !
                           ! (Angstroms and Degrees)  !
 --------------------------                            --------------------------
 ! Name  Definition              Value          Derivative Info.                !
 --------------------------------------------------------------------------------
 ! R1    R(1,2)                  1.2838         estimate D2E/DX2                !
 ! R2    R(1,5)                  1.4221         estimate D2E/DX2                !
 ! R3    R(1,9)                  1.1492         estimate D2E/DX2                !
 ! R4    R(2,3)                  1.4004         estimate D2E/DX2                !
 ! R5    R(2,8)                  1.0671         estimate D2E/DX2                !
 ! R6    R(3,4)                  1.409          estimate D2E/DX2                !
 ! R7    R(4,5)                  1.3827         estimate D2E/DX2                !
 ! R8    R(4,7)                  1.0253         estimate D2E/DX2                !
 ! R9    R(5,6)                  1.0245         estimate D2E/DX2                !
 ! A1    A(2,1,5)              111.8114         estimate D2E/DX2                !
 ! A2    A(2,1,9)              123.7289         estimate D2E/DX2                !
 ! A3    A(5,1,9)              124.4373         estimate D2E/DX2                !
 ! A4    A(1,2,3)              109.6689         estimate D2E/DX2                !
 ! A5    A(1,2,8)              137.6808         estimate D2E/DX2                !
 ! A6    A(3,2,8)              112.4628         estimate D2E/DX2                !
 ! A7    A(2,3,4)              104.6984         estimate D2E/DX2                !
 ! A8    A(3,4,5)              110.0008         estimate D2E/DX2                !
 ! A9    A(3,4,7)              115.2075         estimate D2E/DX2                !
 ! A10   A(5,4,7)              134.6169         estimate D2E/DX2                !
 ! A11   A(1,5,4)              103.3674         estimate D2E/DX2                !
 ! A12   A(1,5,6)              131.4828         estimate D2E/DX2                !
 ! A13   A(4,5,6)              125.1267         estimate D2E/DX2                !
 ! D1    D(5,1,2,3)             -5.3548         estimate D2E/DX2                !
 ! D2    D(5,1,2,8)           -179.7577         estimate D2E/DX2                !
 ! D3    D(9,1,2,3)            176.2995         estimate D2E/DX2                !
 ! D4    D(9,1,2,8)              1.8965         estimate D2E/DX2                !
 ! D5    D(2,1,5,4)              1.4724         estimate D2E/DX2                !
 ! D6    D(2,1,5,6)            179.7481         estimate D2E/DX2                !
 ! D7    D(9,1,5,4)            179.8043         estimate D2E/DX2                !
 ! D8    D(9,1,5,6)             -1.9201         estimate D2E/DX2                !
 ! D9    D(1,2,3,4)              6.8743         estimate D2E/DX2                !
 ! D10   D(8,2,3,4)           -177.2003         estimate D2E/DX2                !
 ! D11   D(2,3,4,5)             -5.9585         estimate D2E/DX2                !
 ! D12   D(2,3,4,7)            178.1348         estimate D2E/DX2                !
 ! D13   D(3,4,5,1)              2.9706         estimate D2E/DX2                !
 ! D14   D(3,4,5,6)           -175.45           estimate D2E/DX2                !
 ! D15   D(7,4,5,1)            177.765          estimate D2E/DX2                !
 ! D16   D(7,4,5,6)             -0.6556         estimate D2E/DX2                !
 --------------------------------------------------------------------------------
 Trust Radius=3.00D-01 FncErr=1.00D-07 GrdErr=1.00D-07
 Number of steps in this run=     48 maximum allowed number of steps=    100.
 GradGradGradGradGradGradGradGradGradGradGradGradGradGradGradGradGradGrad

 Leave Link  103 at Mon Nov 23 02:20:19 2015, MaxMem=    33554432 cpu:         0.0
 (Enter /home/Applications/g09/g09/l202.exe)
                          Input orientation:                          
 ---------------------------------------------------------------------
 Center     Atomic      Atomic             Coordinates (Angstroms)
 Number     Number       Type             X           Y           Z
 ---------------------------------------------------------------------
      1          6           0        0.909396   -0.696902    0.014819
      2          6           0       -0.308709   -1.099010   -0.038001
      3          8           0       -1.171816    0.001564    0.031529
      4          6           0       -0.324015    1.125218   -0.030203
      5          6           0        0.998324    0.722325    0.002373
      6          1           0        1.805774    1.352034    0.036505
      7          1           0       -0.800712    2.032944   -0.021192
      8          1           0       -0.833057   -2.028317   -0.048827
      9          1           0        1.814520   -1.404572    0.038249
 ---------------------------------------------------------------------
                    Distance matrix (angstroms):
                    1          2          3          4          5
     1  C    0.000000
     2  C    1.283846   0.000000
     3  O    2.195354   1.400375   0.000000
     4  C    2.200784   2.224294   1.408963   0.000000
     5  C    1.422065   2.242148   2.286887   1.382738   0.000000
     6  H    2.236538   3.237932   3.269531   2.142871   1.024536
     7  H    3.221463   3.170408   2.065672   1.025323   2.225940
     8  H    2.193823   1.067085   2.059522   3.194410   3.304937
     9  H    1.149172   2.146458   3.300828   3.313285   2.278410
                    6          7          8          9
     6  H    0.000000
     7  H    2.694575   0.000000
     8  H    4.289229   4.061484   0.000000
     9  H    2.756620   4.319663   2.721453   0.000000
 Stoichiometry    C4H4O
 Framework group  C1[X(C4H4O)]
 Deg. of freedom    21
 Full point group                 C1      NOp   1
 Largest Abelian subgroup         C1      NOp   1
 Largest concise Abelian subgroup C1      NOp   1
                         Standard orientation:                         
 ---------------------------------------------------------------------
 Center     Atomic      Atomic             Coordinates (Angstroms)
 Number     Number       Type             X           Y           Z
 ---------------------------------------------------------------------
      1          6           0        0.555216    1.000991    0.013633
      2          6           0        1.142437   -0.139701   -0.033846
      3          8           0        0.189761   -1.163599    0.037524
      4          6           0       -1.052213   -0.501605   -0.029107
      5          6           0       -0.860491    0.867492   -0.001151
      6          1           0       -1.608462    1.566998    0.028932
      7          1           0       -1.874528   -1.113972   -0.019499
      8          1           0        2.142154   -0.512769   -0.041314
      9          1           0        1.113057    2.005468    0.034506
 ---------------------------------------------------------------------
 Rotational constants (GHZ):      9.4640473      9.2241990      4.6758141
 Leave Link  202 at Mon Nov 23 02:20:19 2015, MaxMem=    33554432 cpu:         0.0
 (Enter /home/Applications/g09/g09/l301.exe)

 Semi-emprical parameters in input format:
 Method=8 CoreType=1 PeptideFC=0.0125750000 RIJScale=0.5666730000
 ****
 H       
 PQN=1 NValence=1 F0ss=0.4322380000 ZetaOverlap=1.1880780000 U=-0.4188110000
 Beta=-0.2156480000 CoreKO=1.1385450000 KON=0,0,0,1.0589200000 KON=1,0,1,1.1290450000
 KON=0,1,1,1.1706660000 KON=2,1,1,1.0589200000 EISol=-0.4188110042 EHeat=0.0830298228
 Alpha=1.5252600000
 GCore=0.0084690000,1.3383940000,2.2676710000
 GCore=0.0003530000,1.3533660000,3.6667160000
 GCore=-0.0011710000,0.6115380000,4.3212930000
 ****
 C       
 PQN=2,2 NValence=4 F0ss=0.4466820000 F0sp=0.4066640000 F0pp=0.3768030000 F2pp=0.1898720000
 G1sp=0.2679030000
 ZetaOverlap=1.8086650000,1.7840750000
 U=-1.9120180000,-1.5956620000
 Beta=-0.5629500000,-0.3031680000 DDN=0,1,0.7632320000 DDN=1,1,0.7847580000
 CoreKO=1.1124280000 KON=0,0,0,1.0889370000 KON=1,0,1,0.8219700000 KON=0,1,1,0.9893020000
 KON=2,1,1,0.7783930000 EISol=-4.4398989268 EHeat=0.2723305520 Alpha=1.3702060000
 DipHyp=1.5263761812
 GCore=0.0008320000,1.4654240000,2.8806590000
 GCore=0.0027890000,1.3245690000,3.2438410000
 GCore=-0.0012930000,1.2846020000,4.0922960000
 GCore=-0.0000880000,1.4958780000,4.9512050000
 ****
 O       
 PQN=2,2 NValence=6 F0ss=0.5666750000 F0sp=0.5060470000 F0pp=0.4958710000 F2pp=0.2150590000
 G1sp=0.4181060000
 ZetaOverlap=3.3086090000,2.5960610000
 U=-3.8586440000,-2.8743270000
 Beta=-1.1627760000,-1.1056560000 DDN=0,1,0.4676820000 DDN=1,1,0.4852320000
 CoreKO=1.0326690000 KON=0,0,0,0.8822960000 KON=1,0,1,0.5019540000 KON=0,1,1,0.8822960000
 KON=2,1,1,0.5406950000 EISol=-11.6164441184 EHeat=0.0949133088 Alpha=2.2592050000
 DipHyp=0.9353101877
 GCore=0.0202690000,1.4001430000,1.6127490000
 GCore=0.0056550000,2.0844870000,2.7600040000
 ****
 
 Standard basis: VSTO-6G (5D, 7F)
 Ernie: Thresh=  0.10000D-02 Tol=  0.10000D-05 Strict=F.
  NNHCO=     0 NNPyr=     0 NCTC=     0               EPep=         0.000000000
    EC=        67.841807916  ECS=         1.963632581   EG=         0.349305749
   EHC=         0.000000000  EAt=       -31.051283842  AtH=         1.516354808
 EPDDG=         0.000000000  ECC=        70.154746246 EAtT=        32.567638650
 There are    24 symmetry adapted cartesian basis functions of A   symmetry.
 There are    24 symmetry adapted basis functions of A   symmetry.
    24 basis functions,   144 primitive gaussians,    24 cartesian basis functions
    13 alpha electrons       13 beta electrons
       nuclear repulsion energy       102.7223848968 Hartrees.
 IExCor=    0 DFT=F Ex=HF Corr=None ExCW=0 ScaHFX=  1.000000
 ScaDFX=  1.000000  1.000000  1.000000  1.000000 ScalE2=  1.000000  1.000000
 IRadAn=      0 IRanWt=     -1 IRanGd=            0 ICorTp=0 IEmpDi=  4
 Integral buffers will be    131072 words long.
 Regular integral format.
 Two-electron integral symmetry is turned off.
 Leave Link  301 at Mon Nov 23 02:20:19 2015, MaxMem=    33554432 cpu:         0.0
 (Enter /home/Applications/g09/g09/l302.exe)
 Do NDO integrals.
 NPDir=0 NMtPBC=     1 NCelOv=     1 NCel=       1 NClECP=     1 NCelD=      1
         NCelK=      1 NCelE2=     1 NClLst=     1 CellRange=     0.0.
 One-electron integrals computed using PRISM.
 NBasis=    24 RedAO= F EigKep=  0.00D+00  NBF=    24
 NBsUse=    24 1.00D-04 EigRej=  0.00D+00 NBFU=    24
 Leave Link  302 at Mon Nov 23 02:20:19 2015, MaxMem=    33554432 cpu:         0.0
 (Enter /home/Applications/g09/g09/l303.exe)
 DipDrv:  MaxL=1.
 Leave Link  303 at Mon Nov 23 02:20:19 2015, MaxMem=    33554432 cpu:         0.0
 (Enter /home/Applications/g09/g09/l401.exe)
 Simple Huckel Guess.
 JPrj=0 DoOrth=F DoCkMO=F.
 Leave Link  401 at Mon Nov 23 02:20:19 2015, MaxMem=    33554432 cpu:         0.0
 (Enter /home/Applications/g09/g09/l502.exe)
 Closed shell SCF:
 Using DIIS extrapolation, IDIIS=  1040.
 Overlap will be assumed to be unity.
 Two-electron integral symmetry not used.
 Keep J ints in memory in canonical form, NReq=888082.
 IVT=       79475 IEndB=       79475 NGot=    33554432 MDV=    33473473
 LenX=    33473473 LenY=    33472456
 Requested convergence on RMS density matrix=1.00D-08 within 128 cycles.
 Requested convergence on MAX density matrix=1.00D-06.
 Requested convergence on             energy=1.00D-06.
 No special actions if energy rises.
 FoFCou: FMM=F IPFlag=           0 FMFlag=           0 FMFlg1=           0
         NFxFlg=           0 DoJE=F BraDBF=F KetDBF=F FulRan=T
         wScrn=  0.000000 ICntrl=     600 IOpCl=  2 I1Cent=           0 NGrid=           0
         NMat0=    1 NMatS0=     54 NMatT0=    0 NMatD0=    1 NMtDS0=    0 NMtDT0=    0
 Symmetry not used in FoFCou.

 Cycle   1  Pass 1  IDiag  1:
 E= -1.77154241306424    
 DIIS: error= 9.48D-02 at cycle   1 NSaved=   1.
 NSaved= 1 IEnMin= 1 EnMin= -1.77154241306424     IErMin= 1 ErrMin= 9.48D-02
 ErrMax= 9.48D-02  0.00D+00 EMaxC= 1.00D-01 BMatC= 2.12D-01 BMatP= 2.12D-01
 IDIUse=3 WtCom= 5.22D-02 WtEn= 9.48D-01
 Coeff-Com:  0.100D+01
 Coeff-En:   0.100D+01
 Coeff:      0.100D+01
 GapD=    2.000 DampG=2.000 DampE=0.500 DampFc=1.0000 IDamp=-1.
 RMSDP=2.59D-02 MaxDP=2.04D-01              OVMax= 0.00D+00

 Cycle   2  Pass 1  IDiag  1:
 E= -2.27016107446690     Delta-E=       -0.498618661403 Rises=F Damp=F
 DIIS: error= 2.48D-02 at cycle   2 NSaved=   2.
 NSaved= 2 IEnMin= 2 EnMin= -2.27016107446690     IErMin= 2 ErrMin= 2.48D-02
 ErrMax= 2.48D-02  0.00D+00 EMaxC= 1.00D-01 BMatC= 1.50D-02 BMatP= 2.12D-01
 IDIUse=3 WtCom= 7.52D-01 WtEn= 2.48D-01
 Coeff-Com: -0.287D+00 0.129D+01
 Coeff-En:   0.000D+00 0.100D+01
 Coeff:     -0.216D+00 0.122D+01
 RMSDP=9.54D-03 MaxDP=7.83D-02 DE=-4.99D-01 OVMax= 0.00D+00

 Cycle   3  Pass 1  IDiag  1:
 E= -2.31622805559988     Delta-E=       -0.046066981133 Rises=F Damp=F
 DIIS: error= 4.50D-03 at cycle   3 NSaved=   3.
 NSaved= 3 IEnMin= 3 EnMin= -2.31622805559988     IErMin= 3 ErrMin= 4.50D-03
 ErrMax= 4.50D-03  0.00D+00 EMaxC= 1.00D-01 BMatC= 9.01D-04 BMatP= 1.50D-02
 IDIUse=3 WtCom= 9.55D-01 WtEn= 4.50D-02
 Coeff-Com:  0.152D+00-0.778D+00 0.163D+01
 Coeff-En:   0.000D+00 0.000D+00 0.100D+01
 Coeff:      0.145D+00-0.743D+00 0.160D+01
 RMSDP=3.82D-03 MaxDP=3.34D-02 DE=-4.61D-02 OVMax= 0.00D+00

 Cycle   4  Pass 1  IDiag  3:
 E= -2.32064241831198     Delta-E=       -0.004414362712 Rises=F Damp=F
 DIIS: error= 1.09D-03 at cycle   4 NSaved=   4.
 NSaved= 4 IEnMin= 4 EnMin= -2.32064241831198     IErMin= 4 ErrMin= 1.09D-03
 ErrMax= 1.09D-03  0.00D+00 EMaxC= 1.00D-01 BMatC= 3.46D-05 BMatP= 9.01D-04
 IDIUse=3 WtCom= 9.89D-01 WtEn= 1.09D-02
 Coeff-Com: -0.468D-02 0.102D-01-0.165D+00 0.116D+01
 Coeff-En:   0.000D+00 0.000D+00 0.000D+00 0.100D+01
 Coeff:     -0.463D-02 0.101D-01-0.164D+00 0.116D+01
 Gap=     0.386 Goal=   None    Shift=    0.000
 RMSDP=7.67D-04 MaxDP=8.22D-03 DE=-4.41D-03 OVMax= 5.65D-03

 Cycle   5  Pass 1  IDiag  3:
 E= -2.32081866893876     Delta-E=       -0.000176250627 Rises=F Damp=F
 DIIS: error= 2.79D-04 at cycle   5 NSaved=   5.
 NSaved= 5 IEnMin= 5 EnMin= -2.32081866893876     IErMin= 5 ErrMin= 2.79D-04
 ErrMax= 2.79D-04  0.00D+00 EMaxC= 1.00D-01 BMatC= 2.62D-06 BMatP= 3.46D-05
 IDIUse=3 WtCom= 9.97D-01 WtEn= 2.79D-03
 Coeff-Com: -0.289D-02 0.222D-01-0.196D-01-0.306D+00 0.131D+01
 Coeff-En:   0.000D+00 0.000D+00 0.000D+00 0.000D+00 0.100D+01
 Coeff:     -0.288D-02 0.221D-01-0.195D-01-0.305D+00 0.131D+01
 Gap=     0.386 Goal=   None    Shift=    0.000
 RMSDP=2.49D-04 MaxDP=2.23D-03 DE=-1.76D-04 OVMax= 2.86D-03

 Cycle   6  Pass 1  IDiag  3:
 E= -2.32083658184989     Delta-E=       -0.000017912911 Rises=F Damp=F
 DIIS: error= 9.88D-05 at cycle   6 NSaved=   6.
 NSaved= 6 IEnMin= 6 EnMin= -2.32083658184989     IErMin= 6 ErrMin= 9.88D-05
 ErrMax= 9.88D-05  0.00D+00 EMaxC= 1.00D-01 BMatC= 4.27D-07 BMatP= 2.62D-06
 IDIUse=1 WtCom= 1.00D+00 WtEn= 0.00D+00
 Coeff-Com:  0.112D-02-0.714D-02 0.220D-01-0.151D-01-0.536D+00 0.154D+01
 Coeff:      0.112D-02-0.714D-02 0.220D-01-0.151D-01-0.536D+00 0.154D+01
 Gap=     0.386 Goal=   None    Shift=    0.000
 RMSDP=1.41D-04 MaxDP=1.20D-03 DE=-1.79D-05 OVMax= 1.72D-03

 Cycle   7  Pass 1  IDiag  3:
 E= -2.32084026960204     Delta-E=       -0.000003687752 Rises=F Damp=F
 DIIS: error= 4.41D-05 at cycle   7 NSaved=   7.
 NSaved= 7 IEnMin= 7 EnMin= -2.32084026960204     IErMin= 7 ErrMin= 4.41D-05
 ErrMax= 4.41D-05  0.00D+00 EMaxC= 1.00D-01 BMatC= 3.79D-08 BMatP= 4.27D-07
 IDIUse=1 WtCom= 1.00D+00 WtEn= 0.00D+00
 Coeff-Com: -0.134D-03 0.885D-03-0.676D-02 0.214D-01 0.215D+00-0.892D+00
 Coeff-Com:  0.166D+01
 Coeff:     -0.134D-03 0.885D-03-0.676D-02 0.214D-01 0.215D+00-0.892D+00
 Coeff:      0.166D+01
 Gap=     0.386 Goal=   None    Shift=    0.000
 RMSDP=4.96D-05 MaxDP=4.12D-04 DE=-3.69D-06 OVMax= 6.07D-04

 Cycle   8  Pass 1  IDiag  3:
 E= -2.32084064164158     Delta-E=       -0.000000372040 Rises=F Damp=F
 DIIS: error= 1.29D-05 at cycle   8 NSaved=   8.
 NSaved= 8 IEnMin= 8 EnMin= -2.32084064164158     IErMin= 8 ErrMin= 1.29D-05
 ErrMax= 1.29D-05  0.00D+00 EMaxC= 1.00D-01 BMatC= 2.66D-09 BMatP= 3.79D-08
 IDIUse=1 WtCom= 1.00D+00 WtEn= 0.00D+00
 Coeff-Com:  0.307D-04-0.252D-03 0.330D-02-0.123D-01-0.123D+00 0.533D+00
 Coeff-Com: -0.116D+01 0.176D+01
 Coeff:      0.307D-04-0.252D-03 0.330D-02-0.123D-01-0.123D+00 0.533D+00
 Coeff:     -0.116D+01 0.176D+01
 Gap=     0.386 Goal=   None    Shift=    0.000
 RMSDP=1.41D-05 MaxDP=1.30D-04 DE=-3.72D-07 OVMax= 1.66D-04

 Cycle   9  Pass 1  IDiag  3:
 E= -2.32084066835144     Delta-E=       -0.000000026710 Rises=F Damp=F
 DIIS: error= 2.02D-06 at cycle   9 NSaved=   9.
 NSaved= 9 IEnMin= 9 EnMin= -2.32084066835144     IErMin= 9 ErrMin= 2.02D-06
 ErrMax= 2.02D-06  0.00D+00 EMaxC= 1.00D-01 BMatC= 1.24D-10 BMatP= 2.66D-09
 IDIUse=1 WtCom= 1.00D+00 WtEn= 0.00D+00
 Coeff-Com: -0.795D-05 0.688D-04-0.973D-03 0.342D-02 0.412D-01-0.175D+00
 Coeff-Com:  0.385D+00-0.738D+00 0.148D+01
 Coeff:     -0.795D-05 0.688D-04-0.973D-03 0.342D-02 0.412D-01-0.175D+00
 Coeff:      0.385D+00-0.738D+00 0.148D+01
 Gap=     0.386 Goal=   None    Shift=    0.000
 RMSDP=2.71D-06 MaxDP=2.35D-05 DE=-2.67D-08 OVMax= 3.06D-05

 Cycle  10  Pass 1  IDiag  3:
 E= -2.32084066932742     Delta-E=       -0.000000000976 Rises=F Damp=F
 DIIS: error= 2.90D-07 at cycle  10 NSaved=  10.
 NSaved=10 IEnMin=10 EnMin= -2.32084066932742     IErMin=10 ErrMin= 2.90D-07
 ErrMax= 2.90D-07  0.00D+00 EMaxC= 1.00D-01 BMatC= 4.87D-12 BMatP= 1.24D-10
 IDIUse=1 WtCom= 1.00D+00 WtEn= 0.00D+00
 Coeff-Com:  0.215D-05-0.200D-04 0.352D-03-0.128D-02-0.154D-01 0.659D-01
 Coeff-Com: -0.146D+00 0.295D+00-0.709D+00 0.151D+01
 Coeff:      0.215D-05-0.200D-04 0.352D-03-0.128D-02-0.154D-01 0.659D-01
 Coeff:     -0.146D+00 0.295D+00-0.709D+00 0.151D+01
 Gap=     0.386 Goal=   None    Shift=    0.000
 RMSDP=3.46D-07 MaxDP=1.84D-06 DE=-9.76D-10 OVMax= 2.79D-06

 Cycle  11  Pass 1  IDiag  3:
 E= -2.32084066935404     Delta-E=       -0.000000000027 Rises=F Damp=F
 DIIS: error= 6.46D-08 at cycle  11 NSaved=  11.
 NSaved=11 IEnMin=11 EnMin= -2.32084066935404     IErMin=11 ErrMin= 6.46D-08
 ErrMax= 6.46D-08  0.00D+00 EMaxC= 1.00D-01 BMatC= 2.15D-13 BMatP= 4.87D-12
 IDIUse=1 WtCom= 1.00D+00 WtEn= 0.00D+00
 Coeff-Com: -0.437D-06 0.718D-05-0.154D-03 0.538D-03 0.732D-02-0.309D-01
 Coeff-Com:  0.683D-01-0.137D+00 0.335D+00-0.804D+00 0.156D+01
 Coeff:     -0.437D-06 0.718D-05-0.154D-03 0.538D-03 0.732D-02-0.309D-01
 Coeff:      0.683D-01-0.137D+00 0.335D+00-0.804D+00 0.156D+01
 Gap=     0.386 Goal=   None    Shift=    0.000
 RMSDP=6.91D-08 MaxDP=3.92D-07 DE=-2.66D-11 OVMax= 3.74D-07

 Cycle  12  Pass 1  IDiag  3:
 E= -2.32084066935549     Delta-E=       -0.000000000001 Rises=F Damp=F
 DIIS: error= 1.44D-08 at cycle  12 NSaved=  12.
 NSaved=12 IEnMin=12 EnMin= -2.32084066935549     IErMin=12 ErrMin= 1.44D-08
 ErrMax= 1.44D-08  0.00D+00 EMaxC= 1.00D-01 BMatC= 1.10D-14 BMatP= 2.15D-13
 IDIUse=1 WtCom= 1.00D+00 WtEn= 0.00D+00
 Coeff-Com:  0.239D-06-0.310D-05 0.575D-04-0.195D-03-0.277D-02 0.116D-01
 Coeff-Com: -0.256D-01 0.517D-01-0.126D+00 0.311D+00-0.756D+00 0.154D+01
 Coeff:      0.239D-06-0.310D-05 0.575D-04-0.195D-03-0.277D-02 0.116D-01
 Coeff:     -0.256D-01 0.517D-01-0.126D+00 0.311D+00-0.756D+00 0.154D+01
 Gap=     0.386 Goal=   None    Shift=    0.000
 RMSDP=1.78D-08 MaxDP=1.21D-07 DE=-1.45D-12 OVMax= 1.21D-07

 Cycle  13  Pass 1  IDiag  3:
 E= -2.32084066935559     Delta-E=        0.000000000000 Rises=F Damp=F
 DIIS: error= 3.64D-09 at cycle  13 NSaved=  13.
 NSaved=13 IEnMin=13 EnMin= -2.32084066935559     IErMin=13 ErrMin= 3.64D-09
 ErrMax= 3.64D-09  0.00D+00 EMaxC= 1.00D-01 BMatC= 6.72D-16 BMatP= 1.10D-14
 IDIUse=1 WtCom= 1.00D+00 WtEn= 0.00D+00
 Coeff-Com: -0.916D-07 0.112D-05-0.185D-04 0.603D-04 0.914D-03-0.381D-02
 Coeff-Com:  0.841D-02-0.170D-01 0.416D-01-0.103D+00 0.267D+00-0.707D+00
 Coeff-Com:  0.151D+01
 Coeff:     -0.916D-07 0.112D-05-0.185D-04 0.603D-04 0.914D-03-0.381D-02
 Coeff:      0.841D-02-0.170D-01 0.416D-01-0.103D+00 0.267D+00-0.707D+00
 Coeff:      0.151D+01
 Gap=     0.386 Goal=   None    Shift=    0.000
 RMSDP=4.63D-09 MaxDP=3.23D-08 DE=-9.95D-14 OVMax= 3.39D-08

 Cycle  14  Pass 2  IDiag  1:
 SCF Done:  E(RAM1) =  -2.32084066936     A.U. after   14 cycles
            NFock= 13  Conv=0.46D-08     -V/T= 0.8804
 KE=-1.941224276982D+01 PE=-1.711549462417D+02 EE= 8.552396344537D+01
 Leave Link  502 at Mon Nov 23 02:20:19 2015, MaxMem=    33554432 cpu:         0.0
 (Enter /home/Applications/g09/g09/l601.exe)
 Copying SCF densities to generalized density rwf, IOpCl= 0 IROHF=0.

 **********************************************************************

            Population analysis using the SCF density.

 **********************************************************************

 Orbital symmetries:
       Occupied  (A) (A) (A) (A) (A) (A) (A) (A) (A) (A) (A) (A)
                 (A)
       Virtual   (A) (A) (A) (A) (A) (A) (A) (A) (A) (A) (A)
 The electronic state is 1-A.
 Alpha  occ. eigenvalues --   -1.65182  -1.24136  -1.02228  -0.80505  -0.78089
 Alpha  occ. eigenvalues --   -0.69314  -0.59190  -0.56005  -0.55458  -0.52964
 Alpha  occ. eigenvalues --   -0.50155  -0.42667  -0.40069
 Alpha virt. eigenvalues --   -0.01451   0.02193   0.10608   0.14603   0.18178
 Alpha virt. eigenvalues --    0.18541   0.19081   0.20358   0.20994   0.22278
 Alpha virt. eigenvalues --    0.23792
          Condensed to atoms (all electrons):
               1          2          3          4          5          6
     1  C    4.446355   0.000000   0.000000   0.000000   0.000000   0.000000
     2  C    0.000000   4.340245   0.000000   0.000000   0.000000   0.000000
     3  O    0.000000   0.000000   5.920275   0.000000   0.000000   0.000000
     4  C    0.000000   0.000000   0.000000   4.338024   0.000000   0.000000
     5  C    0.000000   0.000000   0.000000   0.000000   4.474257   0.000000
     6  H    0.000000   0.000000   0.000000   0.000000   0.000000   0.624983
     7  H    0.000000   0.000000   0.000000   0.000000   0.000000   0.000000
     8  H    0.000000   0.000000   0.000000   0.000000   0.000000   0.000000
     9  H    0.000000   0.000000   0.000000   0.000000   0.000000   0.000000
               7          8          9
     1  C    0.000000   0.000000   0.000000
     2  C    0.000000   0.000000   0.000000
     3  O    0.000000   0.000000   0.000000
     4  C    0.000000   0.000000   0.000000
     5  C    0.000000   0.000000   0.000000
     6  H    0.000000   0.000000   0.000000
     7  H    0.622346   0.000000   0.000000
     8  H    0.000000   0.617693   0.000000
     9  H    0.000000   0.000000   0.615820
 Mulliken charges:
               1
     1  C   -0.446355
     2  C   -0.340245
     3  O    0.079725
     4  C   -0.338024
     5  C   -0.474257
     6  H    0.375017
     7  H    0.377654
     8  H    0.382307
     9  H    0.384180
 Sum of Mulliken charges =   0.00000
 Mulliken charges with hydrogens summed into heavy atoms:
               1
     1  C   -0.062175
     2  C    0.042061
     3  O    0.079725
     4  C    0.039630
     5  C   -0.099240
 Charge=              0.0000 electrons
 Dipole moment (field-independent basis, Debye):
    X=              0.3644    Y=             -0.1549    Z=              0.1127  Tot=              0.4117
 N-N= 1.027223848968D+02 E-N=-1.711549462272D+02  KE=-1.941224276982D+01
 Leave Link  601 at Mon Nov 23 02:20:19 2015, MaxMem=    33554432 cpu:         0.0
 (Enter /home/Applications/g09/g09/l701.exe)
 Compute integral first derivatives.
 ... and contract with generalized density number  0.
 Leave Link  701 at Mon Nov 23 02:20:19 2015, MaxMem=    33554432 cpu:         0.0
 (Enter /home/Applications/g09/g09/l702.exe)
 L702 exits ... SP integral derivatives will be done elsewhere.
 Leave Link  702 at Mon Nov 23 02:20:19 2015, MaxMem=    33554432 cpu:         0.0
 (Enter /home/Applications/g09/g09/l703.exe)
 Compute integral first derivatives, UseDBF=F ICtDFT=           0.
 Integral derivatives from FoFJK, PRISM(SPDF).
 Calling FoFJK, ICntrl=      2127 FMM=F ISym2X=0 I1Cent= 0 IOpClX= 0 NMat=1 NMatS=1 NMatT=0.
 FoFJK:  IHMeth= 8 ICntrl=    2127 DoSepK=F KAlg= 0 I1Cent=   0 FoldK=F
 IRaf=         0 NMat=   1 IRICut=       1 DoRegI=T DoRafI=F ISym2E= 0.
 FoFCou: FMM=F IPFlag=           0 FMFlag=      100000 FMFlg1=         800
         NFxFlg=           0 DoJE=F BraDBF=F KetDBF=F FulRan=T
         wScrn=  0.000000 ICntrl=    2127 IOpCl=  0 I1Cent=           0 NGrid=           0
         NMat0=    1 NMatS0=      1 NMatT0=    0 NMatD0=    1 NMtDS0=    0 NMtDT0=    0
 Symmetry not used in FoFCou.
 Leave Link  703 at Mon Nov 23 02:20:19 2015, MaxMem=    33554432 cpu:         0.0
 (Enter /home/Applications/g09/g09/l716.exe)
 Dipole        = 1.43361158D-01-6.09268799D-02 4.43375319D-02
 ***** Axes restored to original set *****
 -------------------------------------------------------------------
 Center     Atomic                   Forces (Hartrees/Bohr)
 Number     Number              X              Y              Z
 -------------------------------------------------------------------
      1        6           0.174638328   -0.033136990   -0.001977029
      2        6          -0.116404750   -0.020987111    0.009674196
      3        8          -0.003907556    0.019961466   -0.014166895
      4        6           0.004733561   -0.040627005    0.010832229
      5        6          -0.047436650    0.001656360   -0.001036600
      6        1           0.035193565    0.017876634   -0.000073416
      7        1          -0.016989782    0.033046945   -0.001098020
      8        1          -0.002147091   -0.007427866   -0.001214096
      9        1          -0.027679626    0.029637567   -0.000940369
 -------------------------------------------------------------------
 Cartesian Forces:  Max     0.174638328 RMS     0.045129535
 Leave Link  716 at Mon Nov 23 02:20:19 2015, MaxMem=    33554432 cpu:         0.0
 (Enter /home/Applications/g09/g09/l103.exe)

 GradGradGradGradGradGradGradGradGradGradGradGradGradGradGradGradGradGrad
 Berny optimization.
 FormGI is forming the generalized inverse of G from B-inverse, IUseBI=4.
 Internal  Forces:  Max     0.119191346 RMS     0.024274467
 Search for a local minimum.
 Step number   1 out of a maximum of   48
 All quantities printed in internal units (Hartrees-Bohrs-Radians)
 RMS Force = .24274D-01 SwitMx=.10000D-02 MixMth= 1
 Mixed Optimization -- RFO/linear search
 Second derivative matrix not updated -- first step.
 ITU=  0
     Eigenvalues ---    0.01865   0.01983   0.02178   0.02567   0.02721
     Eigenvalues ---    0.03287   0.15939   0.15949   0.15988   0.15994
     Eigenvalues ---    0.21970   0.22816   0.28781   0.37601   0.39311
     Eigenvalues ---    0.41817   0.43500   0.43622   0.43681   0.47165
     Eigenvalues ---    0.67950
 RFO step:  Lambda=-4.18149690D-02 EMin= 1.86463695D-02
 Linear search not attempted -- first point.
 Iteration  1 RMS(Cart)=  0.04499041 RMS(Int)=  0.00186738
 Iteration  2 RMS(Cart)=  0.00170650 RMS(Int)=  0.00079513
 Iteration  3 RMS(Cart)=  0.00000222 RMS(Int)=  0.00079512
 Iteration  4 RMS(Cart)=  0.00000000 RMS(Int)=  0.00079512
 ITry= 1 IFail=0 DXMaxC= 1.30D-01 DCOld= 1.00D+10 DXMaxT= 3.00D-01 DXLimC= 3.00D+00 Rises=F
 Variable       Old X    -DE/DX   Delta X   Delta X   Delta X     New X
                                 (Linear)    (Quad)   (Total)
    R1        2.42612   0.11919   0.00000   0.16763   0.16802   2.59413
    R2        2.68731   0.01823   0.00000   0.04680   0.04774   2.73505
    R3        2.17162  -0.04007   0.00000  -0.12157  -0.12157   2.05005
    R4        2.64633   0.01011   0.00000   0.02523   0.02457   2.67089
    R5        2.01650   0.00754   0.00000   0.01804   0.01804   2.03453
    R6        2.66255  -0.00537   0.00000  -0.02567  -0.02649   2.63606
    R7        2.61300   0.01389   0.00000   0.01385   0.01399   2.62699
    R8        1.93758   0.03715   0.00000   0.07791   0.07791   2.01549
    R9        1.93609   0.03872   0.00000   0.08100   0.08100   2.01709
    A1        1.95148  -0.03457   0.00000  -0.08966  -0.08900   1.86248
    A2        2.15948   0.02411   0.00000   0.07888   0.07844   2.23791
    A3        2.17184   0.01050   0.00000   0.01140   0.01094   2.18278
    A4        1.91408  -0.00404   0.00000   0.02528   0.02372   1.93780
    A5        2.40298   0.00058   0.00000  -0.01787  -0.01832   2.38466
    A6        1.96285   0.00388   0.00000  -0.00173  -0.00218   1.96066
    A7        1.82733   0.00768   0.00000   0.00798   0.00511   1.83244
    A8        1.91988   0.01686   0.00000   0.02162   0.01989   1.93977
    A9        2.01075  -0.00807   0.00000  -0.00757  -0.00764   2.00311
   A10        2.34951  -0.00847   0.00000  -0.00930  -0.00936   2.34015
   A11        1.80410   0.01490   0.00000   0.04734   0.04784   1.85195
   A12        2.29481  -0.01473   0.00000  -0.05962  -0.05991   2.23490
   A13        2.18387  -0.00014   0.00000   0.01264   0.01236   2.19623
    D1       -0.09346   0.00588   0.00000   0.07704   0.07603  -0.01743
    D2       -3.13736  -0.00057   0.00000  -0.00828  -0.00848   3.13734
    D3        3.07701   0.00431   0.00000   0.05389   0.05283   3.12984
    D4        0.03310  -0.00214   0.00000  -0.03143  -0.03169   0.00141
    D5        0.02570  -0.00171   0.00000  -0.02308  -0.02281   0.00289
    D6        3.13720  -0.00072   0.00000  -0.00862  -0.00831   3.12888
    D7        3.13818   0.00013   0.00000   0.00157   0.00087   3.13904
    D8       -0.03351   0.00112   0.00000   0.01603   0.01536  -0.01815
    D9        0.11998  -0.00641   0.00000  -0.09391  -0.09517   0.02481
   D10       -3.09273  -0.00179   0.00000  -0.03324  -0.03384  -3.12657
   D11       -0.10400   0.00411   0.00000   0.08092   0.08116  -0.02284
   D12        3.10904   0.00071   0.00000   0.02582   0.02599   3.13503
   D13        0.05185  -0.00294   0.00000  -0.03989  -0.03902   0.01282
   D14       -3.06218  -0.00348   0.00000  -0.05143  -0.05144  -3.11362
   D15        3.10258   0.00181   0.00000   0.03076   0.03126   3.13385
   D16       -0.01144   0.00126   0.00000   0.01922   0.01885   0.00741
         Item               Value     Threshold  Converged?
 Maximum Force            0.119191     0.000450     NO 
 RMS     Force            0.024274     0.000300     NO 
 Maximum Displacement     0.129736     0.001800     NO 
 RMS     Displacement     0.044371     0.001200     NO 
 Predicted change in Energy=-2.326730D-02
 Lowest energy point so far.  Saving SCF results.
 GradGradGradGradGradGradGradGradGradGradGradGradGradGradGradGradGradGrad

 Leave Link  103 at Mon Nov 23 02:20:19 2015, MaxMem=    33554432 cpu:         0.0
 (Enter /home/Applications/g09/g09/l202.exe)
                          Input orientation:                          
 ---------------------------------------------------------------------
 Center     Atomic      Atomic             Coordinates (Angstroms)
 Number     Number       Type             X           Y           Z
 ---------------------------------------------------------------------
      1          6           0        0.978050   -0.734447    0.009950
      2          6           0       -0.340888   -1.114006   -0.018320
      3          8           0       -1.193271    0.013404   -0.013794
      4          6           0       -0.336048    1.113873   -0.014673
      5          6           0        0.994744    0.712784    0.010101
      6          1           0        1.842333    1.360940    0.038894
      7          1           0       -0.825431    2.061512   -0.017936
      8          1           0       -0.888422   -2.040893   -0.033090
      9          1           0        1.858639   -1.367883    0.024120
 ---------------------------------------------------------------------
                    Distance matrix (angstroms):
                    1          2          3          4          5
     1  C    0.000000
     2  C    1.372757   0.000000
     3  O    2.296623   1.413376   0.000000
     4  C    2.267982   2.227888   1.394942   0.000000
     5  C    1.447327   2.263158   2.297197   1.390142   0.000000
     6  H    2.266819   3.300771   3.321675   2.193002   1.067400
     7  H    3.327267   3.212273   2.080882   1.066549   2.265589
     8  H    2.278677   1.076629   2.076882   3.202812   3.336303
     9  H    1.084841   2.214537   3.350156   3.313196   2.252928
                    6          7          8          9
     6  H    0.000000
     7  H    2.758804   0.000000
     8  H    4.362875   4.102917   0.000000
     9  H    2.728912   4.355084   2.828879   0.000000
 Stoichiometry    C4H4O
 Framework group  C1[X(C4H4O)]
 Deg. of freedom    21
 Full point group                 C1      NOp   1
 RotChk:  IX=0 Diff= 4.06D-01
 Largest Abelian subgroup         C1      NOp   1
 Largest concise Abelian subgroup C1      NOp   1
                         Standard orientation:                         
 ---------------------------------------------------------------------
 Center     Atomic      Atomic             Coordinates (Angstroms)
 Number     Number       Type             X           Y           Z
 ---------------------------------------------------------------------
      1          6           0        0.854987    0.867811    0.002243
      2          6           0        1.058804   -0.489706   -0.005887
      3          8           0       -0.170399   -1.187187    0.008612
      4          6           0       -1.149309   -0.193533   -0.007246
      5          6           0       -0.577630    1.073606   -0.001056
      6          1           0       -1.109380    1.999003    0.013898
      7          1           0       -2.152810   -0.554794   -0.005449
      8          1           0        1.906127   -1.153899   -0.010592
      9          1           0        1.598143    1.658123    0.004931
 ---------------------------------------------------------------------
 Rotational constants (GHZ):      9.2610361      8.8260244      4.5193611
 Leave Link  202 at Mon Nov 23 02:20:19 2015, MaxMem=    33554432 cpu:         0.0
 (Enter /home/Applications/g09/g09/l301.exe)

 Semi-emprical parameters in input format:
 Method=8 CoreType=1 PeptideFC=0.0125750000 RIJScale=0.5666730000
 ****
 H       
 PQN=1 NValence=1 F0ss=0.4322380000 ZetaOverlap=1.1880780000 U=-0.4188110000
 Beta=-0.2156480000 CoreKO=1.1385450000 KON=0,0,0,1.0589200000 KON=1,0,1,1.1290450000
 KON=0,1,1,1.1706660000 KON=2,1,1,1.0589200000 EISol=-0.4188110042 EHeat=0.0830298228
 Alpha=1.5252600000
 GCore=0.0084690000,1.3383940000,2.2676710000
 GCore=0.0003530000,1.3533660000,3.6667160000
 GCore=-0.0011710000,0.6115380000,4.3212930000
 ****
 C       
 PQN=2,2 NValence=4 F0ss=0.4466820000 F0sp=0.4066640000 F0pp=0.3768030000 F2pp=0.1898720000
 G1sp=0.2679030000
 ZetaOverlap=1.8086650000,1.7840750000
 U=-1.9120180000,-1.5956620000
 Beta=-0.5629500000,-0.3031680000 DDN=0,1,0.7632320000 DDN=1,1,0.7847580000
 CoreKO=1.1124280000 KON=0,0,0,1.0889370000 KON=1,0,1,0.8219700000 KON=0,1,1,0.9893020000
 KON=2,1,1,0.7783930000 EISol=-4.4398989268 EHeat=0.2723305520 Alpha=1.3702060000
 DipHyp=1.5263761812
 GCore=0.0008320000,1.4654240000,2.8806590000
 GCore=0.0027890000,1.3245690000,3.2438410000
 GCore=-0.0012930000,1.2846020000,4.0922960000
 GCore=-0.0000880000,1.4958780000,4.9512050000
 ****
 O       
 PQN=2,2 NValence=6 F0ss=0.5666750000 F0sp=0.5060470000 F0pp=0.4958710000 F2pp=0.2150590000
 G1sp=0.4181060000
 ZetaOverlap=3.3086090000,2.5960610000
 U=-3.8586440000,-2.8743270000
 Beta=-1.1627760000,-1.1056560000 DDN=0,1,0.4676820000 DDN=1,1,0.4852320000
 CoreKO=1.0326690000 KON=0,0,0,0.8822960000 KON=1,0,1,0.5019540000 KON=0,1,1,0.8822960000
 KON=2,1,1,0.5406950000 EISol=-11.6164441184 EHeat=0.0949133088 Alpha=2.2592050000
 DipHyp=0.9353101877
 GCore=0.0202690000,1.4001430000,1.6127490000
 GCore=0.0056550000,2.0844870000,2.7600040000
 ****
 
 Standard basis: VSTO-6G (5D, 7F)
 Ernie: Thresh=  0.10000D-02 Tol=  0.10000D-05 Strict=F.
  NNHCO=     0 NNPyr=     0 NCTC=     0               EPep=         0.000000000
    EC=        67.112821703  ECS=         1.825218322   EG=         0.350800408
   EHC=         0.000000000  EAt=       -31.051283842  AtH=         1.516354808
 EPDDG=         0.000000000  ECC=        69.288840433 EAtT=        32.567638650
 There are    24 symmetry adapted cartesian basis functions of A   symmetry.
 There are    24 symmetry adapted basis functions of A   symmetry.
    24 basis functions,   144 primitive gaussians,    24 cartesian basis functions
    13 alpha electrons       13 beta electrons
       nuclear repulsion energy       101.8564790834 Hartrees.
 IExCor=    0 DFT=F Ex=HF Corr=None ExCW=0 ScaHFX=  1.000000
 ScaDFX=  1.000000  1.000000  1.000000  1.000000 ScalE2=  1.000000  1.000000
 IRadAn=      0 IRanWt=     -1 IRanGd=            0 ICorTp=0 IEmpDi=  4
 Integral buffers will be    131072 words long.
 Regular integral format.
 Two-electron integral symmetry is turned off.
 Leave Link  301 at Mon Nov 23 02:20:19 2015, MaxMem=    33554432 cpu:         0.0
 (Enter /home/Applications/g09/g09/l302.exe)
 Do NDO integrals.
 NPDir=0 NMtPBC=     1 NCelOv=     1 NCel=       1 NClECP=     1 NCelD=      1
         NCelK=      1 NCelE2=     1 NClLst=     1 CellRange=     0.0.
 One-electron integrals computed using PRISM.
 NBasis=    24 RedAO= F EigKep=  0.00D+00  NBF=    24
 NBsUse=    24 1.00D-04 EigRej=  0.00D+00 NBFU=    24
 Leave Link  302 at Mon Nov 23 02:20:19 2015, MaxMem=    33554432 cpu:         0.0
 (Enter /home/Applications/g09/g09/l303.exe)
 DipDrv:  MaxL=1.
 Leave Link  303 at Mon Nov 23 02:20:19 2015, MaxMem=    33554432 cpu:         0.0
 (Enter /home/Applications/g09/g09/l401.exe)
 Initial guess from the checkpoint file:  "/home/Applications/g09/scratch/Gau-2434.chk"
 B after Tr=     0.000000    0.000000    0.000000
         Rot=    0.989528    0.000245    0.000134    0.144343 Ang=  16.60 deg.
 Guess basis will be translated and rotated to current coordinates.
 JPrj=0 DoOrth=T DoCkMO=T.
 Leave Link  401 at Mon Nov 23 02:20:19 2015, MaxMem=    33554432 cpu:         0.0
 (Enter /home/Applications/g09/g09/l502.exe)
 Closed shell SCF:
 Using DIIS extrapolation, IDIIS=  1040.
 Overlap will be assumed to be unity.
 Two-electron integral symmetry not used.
 Keep J ints in memory in canonical form, NReq=888082.
 IVT=       79475 IEndB=       79475 NGot=    33554432 MDV=    33473473
 LenX=    33473473 LenY=    33472456
 Requested convergence on RMS density matrix=1.00D-08 within 128 cycles.
 Requested convergence on MAX density matrix=1.00D-06.
 Requested convergence on             energy=1.00D-06.
 No special actions if energy rises.
 FoFCou: FMM=F IPFlag=           0 FMFlag=           0 FMFlg1=           0
         NFxFlg=           0 DoJE=F BraDBF=F KetDBF=F FulRan=T
         wScrn=  0.000000 ICntrl=     600 IOpCl=  2 I1Cent=           0 NGrid=           0
         NMat0=    1 NMatS0=     54 NMatT0=    0 NMatD0=    1 NMtDS0=    0 NMtDT0=    0
 Symmetry not used in FoFCou.

 Cycle   1  Pass 1  IDiag  1:
 E= -2.33337006580844    
 DIIS: error= 7.60D-03 at cycle   1 NSaved=   1.
 NSaved= 1 IEnMin= 1 EnMin= -2.33337006580844     IErMin= 1 ErrMin= 7.60D-03
 ErrMax= 7.60D-03  0.00D+00 EMaxC= 1.00D-01 BMatC= 2.15D-03 BMatP= 2.15D-03
 IDIUse=3 WtCom= 9.24D-01 WtEn= 7.60D-02
 Coeff-Com:  0.100D+01
 Coeff-En:   0.100D+01
 Coeff:      0.100D+01
 GapD=    2.000 DampG=2.000 DampE=1.000 DampFc=2.0000 IDamp=-1.
 RMSDP=3.11D-03 MaxDP=1.22D-02              OVMax= 0.00D+00

 Cycle   2  Pass 1  IDiag  3:
 E= -2.33963684102248     Delta-E=       -0.006266775214 Rises=F Damp=F
 DIIS: error= 2.59D-03 at cycle   2 NSaved=   2.
 NSaved= 2 IEnMin= 2 EnMin= -2.33963684102248     IErMin= 2 ErrMin= 2.59D-03
 ErrMax= 2.59D-03  0.00D+00 EMaxC= 1.00D-01 BMatC= 2.51D-04 BMatP= 2.15D-03
 IDIUse=3 WtCom= 9.74D-01 WtEn= 2.59D-02
 Coeff-Com: -0.434D+00 0.143D+01
 Coeff-En:   0.000D+00 0.100D+01
 Coeff:     -0.423D+00 0.142D+01
 Gap=     0.377 Goal=   None    Shift=    0.000
 RMSDP=1.80D-03 MaxDP=8.25D-03 DE=-6.27D-03 OVMax= 1.16D-02

 Cycle   3  Pass 1  IDiag  3:
 E= -2.34074115222903     Delta-E=       -0.001104311207 Rises=F Damp=F
 DIIS: error= 7.76D-04 at cycle   3 NSaved=   3.
 NSaved= 3 IEnMin= 3 EnMin= -2.34074115222903     IErMin= 3 ErrMin= 7.76D-04
 ErrMax= 7.76D-04  0.00D+00 EMaxC= 1.00D-01 BMatC= 1.24D-05 BMatP= 2.51D-04
 IDIUse=3 WtCom= 9.92D-01 WtEn= 7.76D-03
 Coeff-Com:  0.205D+00-0.785D+00 0.158D+01
 Coeff-En:   0.000D+00 0.000D+00 0.100D+01
 Coeff:      0.204D+00-0.778D+00 0.157D+01
 Gap=     0.377 Goal=   None    Shift=    0.000
 RMSDP=6.13D-04 MaxDP=3.51D-03 DE=-1.10D-03 OVMax= 5.80D-03

 Cycle   4  Pass 1  IDiag  3:
 E= -2.34082853197722     Delta-E=       -0.000087379748 Rises=F Damp=F
 DIIS: error= 1.56D-04 at cycle   4 NSaved=   4.
 NSaved= 4 IEnMin= 4 EnMin= -2.34082853197722     IErMin= 4 ErrMin= 1.56D-04
 ErrMax= 1.56D-04  0.00D+00 EMaxC= 1.00D-01 BMatC= 8.68D-07 BMatP= 1.24D-05
 IDIUse=3 WtCom= 9.98D-01 WtEn= 1.56D-03
 Coeff-Com: -0.386D-01 0.165D+00-0.551D+00 0.143D+01
 Coeff-En:   0.000D+00 0.000D+00 0.000D+00 0.100D+01
 Coeff:     -0.385D-01 0.164D+00-0.550D+00 0.142D+01
 Gap=     0.377 Goal=   None    Shift=    0.000
 RMSDP=1.88D-04 MaxDP=1.21D-03 DE=-8.74D-05 OVMax= 1.88D-03

 Cycle   5  Pass 1  IDiag  3:
 E= -2.34083560697989     Delta-E=       -0.000007075003 Rises=F Damp=F
 DIIS: error= 4.98D-05 at cycle   5 NSaved=   5.
 NSaved= 5 IEnMin= 5 EnMin= -2.34083560697989     IErMin= 5 ErrMin= 4.98D-05
 ErrMax= 4.98D-05  0.00D+00 EMaxC= 1.00D-01 BMatC= 8.11D-08 BMatP= 8.68D-07
 IDIUse=1 WtCom= 1.00D+00 WtEn= 0.00D+00
 Coeff-Com:  0.169D-02-0.119D-01 0.106D+00-0.570D+00 0.147D+01
 Coeff:      0.169D-02-0.119D-01 0.106D+00-0.570D+00 0.147D+01
 Gap=     0.377 Goal=   None    Shift=    0.000
 RMSDP=6.31D-05 MaxDP=4.47D-04 DE=-7.08D-06 OVMax= 6.66D-04

 Cycle   6  Pass 1  IDiag  3:
 E= -2.34083635809682     Delta-E=       -0.000000751117 Rises=F Damp=F
 DIIS: error= 1.91D-05 at cycle   6 NSaved=   6.
 NSaved= 6 IEnMin= 6 EnMin= -2.34083635809682     IErMin= 6 ErrMin= 1.91D-05
 ErrMax= 1.91D-05  0.00D+00 EMaxC= 1.00D-01 BMatC= 9.40D-09 BMatP= 8.11D-08
 IDIUse=1 WtCom= 1.00D+00 WtEn= 0.00D+00
 Coeff-Com:  0.560D-02-0.206D-01 0.269D-01 0.890D-01-0.674D+00 0.157D+01
 Coeff:      0.560D-02-0.206D-01 0.269D-01 0.890D-01-0.674D+00 0.157D+01
 Gap=     0.377 Goal=   None    Shift=    0.000
 RMSDP=2.51D-05 MaxDP=1.96D-04 DE=-7.51D-07 OVMax= 2.77D-04

 Cycle   7  Pass 1  IDiag  3:
 E= -2.34083645306190     Delta-E=       -0.000000094965 Rises=F Damp=F
 DIIS: error= 5.23D-06 at cycle   7 NSaved=   7.
 NSaved= 7 IEnMin= 7 EnMin= -2.34083645306190     IErMin= 7 ErrMin= 5.23D-06
 ErrMax= 5.23D-06  0.00D+00 EMaxC= 1.00D-01 BMatC= 7.76D-10 BMatP= 9.40D-09
 IDIUse=1 WtCom= 1.00D+00 WtEn= 0.00D+00
 Coeff-Com: -0.296D-02 0.112D-01-0.183D-01-0.239D-01 0.316D+00-0.971D+00
 Coeff-Com:  0.169D+01
 Coeff:     -0.296D-02 0.112D-01-0.183D-01-0.239D-01 0.316D+00-0.971D+00
 Coeff:      0.169D+01
 Gap=     0.377 Goal=   None    Shift=    0.000
 RMSDP=7.31D-06 MaxDP=5.82D-05 DE=-9.50D-08 OVMax= 8.51D-05

 Cycle   8  Pass 1  IDiag  3:
 E= -2.34083646077362     Delta-E=       -0.000000007712 Rises=F Damp=F
 DIIS: error= 1.27D-06 at cycle   8 NSaved=   8.
 NSaved= 8 IEnMin= 8 EnMin= -2.34083646077362     IErMin= 8 ErrMin= 1.27D-06
 ErrMax= 1.27D-06  0.00D+00 EMaxC= 1.00D-01 BMatC= 5.43D-11 BMatP= 7.76D-10
 IDIUse=1 WtCom= 1.00D+00 WtEn= 0.00D+00
 Coeff-Com:  0.131D-02-0.503D-02 0.950D-02 0.155D-02-0.108D+00 0.385D+00
 Coeff-Com: -0.885D+00 0.160D+01
 Coeff:      0.131D-02-0.503D-02 0.950D-02 0.155D-02-0.108D+00 0.385D+00
 Coeff:     -0.885D+00 0.160D+01
 Gap=     0.377 Goal=   None    Shift=    0.000
 RMSDP=1.85D-06 MaxDP=1.41D-05 DE=-7.71D-09 OVMax= 2.00D-05

 Cycle   9  Pass 1  IDiag  3:
 E= -2.34083646128572     Delta-E=       -0.000000000512 Rises=F Damp=F
 DIIS: error= 2.72D-07 at cycle   9 NSaved=   9.
 NSaved= 9 IEnMin= 9 EnMin= -2.34083646128572     IErMin= 9 ErrMin= 2.72D-07
 ErrMax= 2.72D-07  0.00D+00 EMaxC= 1.00D-01 BMatC= 3.80D-12 BMatP= 5.43D-11
 IDIUse=1 WtCom= 1.00D+00 WtEn= 0.00D+00
 Coeff-Com: -0.579D-03 0.222D-02-0.428D-02 0.498D-04 0.451D-01-0.168D+00
 Coeff-Com:  0.415D+00-0.952D+00 0.166D+01
 Coeff:     -0.579D-03 0.222D-02-0.428D-02 0.498D-04 0.451D-01-0.168D+00
 Coeff:      0.415D+00-0.952D+00 0.166D+01
 Gap=     0.377 Goal=   None    Shift=    0.000
 RMSDP=4.81D-07 MaxDP=3.23D-06 DE=-5.12D-10 OVMax= 4.67D-06

 Cycle  10  Pass 1  IDiag  3:
 E= -2.34083646132000     Delta-E=       -0.000000000034 Rises=F Damp=F
 DIIS: error= 5.92D-08 at cycle  10 NSaved=  10.
 NSaved=10 IEnMin=10 EnMin= -2.34083646132000     IErMin=10 ErrMin= 5.92D-08
 ErrMax= 5.92D-08  0.00D+00 EMaxC= 1.00D-01 BMatC= 1.76D-13 BMatP= 3.80D-12
 IDIUse=1 WtCom= 1.00D+00 WtEn= 0.00D+00
 Coeff-Com:  0.178D-03-0.680D-03 0.136D-02-0.406D-03-0.121D-01 0.475D-01
 Coeff-Com: -0.122D+00 0.293D+00-0.658D+00 0.145D+01
 Coeff:      0.178D-03-0.680D-03 0.136D-02-0.406D-03-0.121D-01 0.475D-01
 Coeff:     -0.122D+00 0.293D+00-0.658D+00 0.145D+01
 Gap=     0.377 Goal=   None    Shift=    0.000
 RMSDP=8.85D-08 MaxDP=4.95D-07 DE=-3.43D-11 OVMax= 7.90D-07

 Cycle  11  Pass 1  IDiag  3:
 E= -2.34083646132156     Delta-E=       -0.000000000002 Rises=F Damp=F
 DIIS: error= 1.39D-08 at cycle  11 NSaved=  11.
 NSaved=11 IEnMin=11 EnMin= -2.34083646132156     IErMin=11 ErrMin= 1.39D-08
 ErrMax= 1.39D-08  0.00D+00 EMaxC= 1.00D-01 BMatC= 9.21D-15 BMatP= 1.76D-13
 IDIUse=1 WtCom= 1.00D+00 WtEn= 0.00D+00
 Coeff-Com: -0.356D-04 0.136D-03-0.286D-03 0.202D-03 0.186D-02-0.814D-02
 Coeff-Com:  0.217D-01-0.520D-01 0.131D+00-0.467D+00 0.137D+01
 Coeff:     -0.356D-04 0.136D-03-0.286D-03 0.202D-03 0.186D-02-0.814D-02
 Coeff:      0.217D-01-0.520D-01 0.131D+00-0.467D+00 0.137D+01
 Gap=     0.377 Goal=   None    Shift=    0.000
 RMSDP=1.69D-08 MaxDP=1.11D-07 DE=-1.56D-12 OVMax= 1.38D-07

 Cycle  12  Pass 1  IDiag  3:
 E= -2.34083646132127     Delta-E=        0.000000000000 Rises=F Damp=F
 DIIS: error= 2.77D-09 at cycle  12 NSaved=  12.
 NSaved=12 IEnMin=11 EnMin= -2.34083646132156     IErMin=12 ErrMin= 2.77D-09
 ErrMax= 2.77D-09  0.00D+00 EMaxC= 1.00D-01 BMatC= 5.11D-16 BMatP= 9.21D-15
 IDIUse=1 WtCom= 1.00D+00 WtEn= 0.00D+00
 Coeff-Com:  0.353D-05-0.135D-04 0.310D-04-0.487D-04-0.250D-04 0.354D-03
 Coeff-Com: -0.108D-02 0.214D-02-0.824D-02 0.709D-01-0.455D+00 0.139D+01
 Coeff:      0.353D-05-0.135D-04 0.310D-04-0.487D-04-0.250D-04 0.354D-03
 Coeff:     -0.108D-02 0.214D-02-0.824D-02 0.709D-01-0.455D+00 0.139D+01
 Gap=     0.377 Goal=   None    Shift=    0.000
 RMSDP=3.96D-09 MaxDP=2.41D-08 DE= 2.84D-13 OVMax= 2.98D-08

 Cycle  13  Pass 2  IDiag  1:
 SCF Done:  E(RAM1) =  -2.34083646132     A.U. after   13 cycles
            NFock= 12  Conv=0.40D-08     -V/T= 0.8788
 KE=-1.930607901747D+01 PE=-1.697077897567D+02 EE= 8.481655322944D+01
 Leave Link  502 at Mon Nov 23 02:20:19 2015, MaxMem=    33554432 cpu:         0.0
 (Enter /home/Applications/g09/g09/l701.exe)
 Compute integral first derivatives.
 ... and contract with generalized density number  0.
 Leave Link  701 at Mon Nov 23 02:20:19 2015, MaxMem=    33554432 cpu:         0.0
 (Enter /home/Applications/g09/g09/l702.exe)
 L702 exits ... SP integral derivatives will be done elsewhere.
 Leave Link  702 at Mon Nov 23 02:20:19 2015, MaxMem=    33554432 cpu:         0.0
 (Enter /home/Applications/g09/g09/l703.exe)
 Compute integral first derivatives, UseDBF=F ICtDFT=           0.
 Integral derivatives from FoFJK, PRISM(SPDF).
 Calling FoFJK, ICntrl=      2127 FMM=F ISym2X=0 I1Cent= 0 IOpClX= 0 NMat=1 NMatS=1 NMatT=0.
 FoFJK:  IHMeth= 8 ICntrl=    2127 DoSepK=F KAlg= 0 I1Cent=   0 FoldK=F
 IRaf=         0 NMat=   1 IRICut=       1 DoRegI=T DoRafI=F ISym2E= 0.
 FoFCou: FMM=F IPFlag=           0 FMFlag=      100000 FMFlg1=         800
         NFxFlg=           0 DoJE=F BraDBF=F KetDBF=F FulRan=T
         wScrn=  0.000000 ICntrl=    2127 IOpCl=  0 I1Cent=           0 NGrid=           0
         NMat0=    1 NMatS0=      1 NMatT0=    0 NMatD0=    1 NMtDS0=    0 NMtDT0=    0
 Symmetry not used in FoFCou.
 Leave Link  703 at Mon Nov 23 02:20:19 2015, MaxMem=    33554432 cpu:         0.0
 (Enter /home/Applications/g09/g09/l716.exe)
 Dipole        =-3.37822654D-02-1.54485874D-01 1.26087440D-02
 ***** Axes restored to original set *****
 -------------------------------------------------------------------
 Center     Atomic                   Forces (Hartrees/Bohr)
 Number     Number              X              Y              Z
 -------------------------------------------------------------------
      1        6           0.000374914    0.004876506   -0.001334595
      2        6          -0.014482106    0.016452500    0.002312783
      3        8           0.028794676   -0.005009579   -0.002782860
      4        6           0.008098056   -0.021435914    0.002615158
      5        6          -0.025593777   -0.004231595    0.000060088
      6        1           0.005011481   -0.001644234   -0.000533151
      7        1          -0.000647311    0.003982187   -0.000282061
      8        1           0.004920007    0.001282033    0.000063195
      9        1          -0.006475940    0.005728096   -0.000118558
 -------------------------------------------------------------------
 Cartesian Forces:  Max     0.028794676 RMS     0.010043211
 Leave Link  716 at Mon Nov 23 02:20:19 2015, MaxMem=    33554432 cpu:         0.0
 (Enter /home/Applications/g09/g09/l103.exe)

 GradGradGradGradGradGradGradGradGradGradGradGradGradGradGradGradGradGrad
 Berny optimization.
 Using GEDIIS/GDIIS optimizer.
 FormGI is forming the generalized inverse of G from B-inverse, IUseBI=4.
 Internal  Forces:  Max     0.022677741 RMS     0.006499324
 Search for a local minimum.
 Step number   2 out of a maximum of   48
 All quantities printed in internal units (Hartrees-Bohrs-Radians)
 RMS Force = .64993D-02 SwitMx=.10000D-02 MixMth= 1
 Mixed Optimization -- RFO/linear search
 Update second derivatives using D2CorX and points    1    2
 DE= -2.00D-02 DEPred=-2.33D-02 R= 8.59D-01
 TightC=F SS=  1.41D+00  RLast= 3.39D-01 DXNew= 5.0454D-01 1.0168D+00
 Trust test= 8.59D-01 RLast= 3.39D-01 DXMaxT set to 5.05D-01
 ITU=  1  0
 Use linear search instead of GDIIS.
     Eigenvalues ---    0.01882   0.01998   0.02171   0.02581   0.02765
     Eigenvalues ---    0.03278   0.15610   0.15997   0.15999   0.16061
     Eigenvalues ---    0.22052   0.23168   0.27266   0.37663   0.38190
     Eigenvalues ---    0.40322   0.42516   0.43561   0.45309   0.49177
     Eigenvalues ---    0.79401
 RFO step:  Lambda=-4.01308817D-03 EMin= 1.88164998D-02
 Quartic linear search produced a step of -0.00343.
 Iteration  1 RMS(Cart)=  0.01927849 RMS(Int)=  0.00041055
 Iteration  2 RMS(Cart)=  0.00035353 RMS(Int)=  0.00017315
 Iteration  3 RMS(Cart)=  0.00000013 RMS(Int)=  0.00017315
 ITry= 1 IFail=0 DXMaxC= 5.68D-02 DCOld= 1.00D+10 DXMaxT= 5.05D-01 DXLimC= 3.00D+00 Rises=F
 Variable       Old X    -DE/DX   Delta X   Delta X   Delta X     New X
                                 (Linear)    (Quad)   (Total)
    R1        2.59413  -0.00842  -0.00058   0.00233   0.00168   2.59582
    R2        2.73505  -0.01321  -0.00016  -0.02639  -0.02656   2.70849
    R3        2.05005  -0.00860   0.00042  -0.03899  -0.03858   2.01148
    R4        2.67089  -0.02268  -0.00008  -0.04724  -0.04736   2.62353
    R5        2.03453  -0.00361  -0.00006  -0.00799  -0.00805   2.02648
    R6        2.63606  -0.01491   0.00009  -0.03619  -0.03605   2.60001
    R7        2.62699  -0.02002  -0.00005  -0.03979  -0.03977   2.58722
    R8        2.01549   0.00384  -0.00027   0.01492   0.01465   2.03014
    R9        2.01709   0.00297  -0.00028   0.01318   0.01290   2.02999
    A1        1.86248  -0.00067   0.00031  -0.00686  -0.00683   1.85565
    A2        2.23791   0.00122  -0.00027   0.01151   0.01135   2.24926
    A3        2.18278  -0.00055  -0.00004  -0.00460  -0.00452   2.17826
    A4        1.93780  -0.00320  -0.00008  -0.01070  -0.01119   1.92661
    A5        2.38466  -0.00204   0.00006  -0.01720  -0.01714   2.36752
    A6        1.96066   0.00525   0.00001   0.02822   0.02823   1.98889
    A7        1.83244   0.00451  -0.00002   0.01636   0.01608   1.84853
    A8        1.93977  -0.00076  -0.00007  -0.00314  -0.00353   1.93624
    A9        2.00311   0.00164   0.00003   0.00957   0.00940   2.01252
   A10        2.34015  -0.00086   0.00003  -0.00576  -0.00592   2.33423
   A11        1.85195   0.00016  -0.00016   0.00574   0.00544   1.85739
   A12        2.23490  -0.00446   0.00021  -0.03222  -0.03197   2.20293
   A13        2.19623   0.00430  -0.00004   0.02660   0.02661   2.22284
    D1       -0.01743   0.00087  -0.00026   0.03470   0.03426   0.01684
    D2        3.13734  -0.00008   0.00003  -0.00053  -0.00030   3.13704
    D3        3.12984   0.00066  -0.00018   0.02386   0.02342  -3.12993
    D4        0.00141  -0.00029   0.00011  -0.01137  -0.01115  -0.00974
    D5        0.00289  -0.00020   0.00008  -0.00455  -0.00446  -0.00157
    D6        3.12888   0.00013   0.00003   0.00418   0.00413   3.13302
    D7        3.13904   0.00001   0.00000   0.00593   0.00589  -3.13825
    D8       -0.01815   0.00034  -0.00005   0.01466   0.01449  -0.00366
    D9        0.02481  -0.00116   0.00033  -0.05041  -0.05018  -0.02537
   D10       -3.12657  -0.00049   0.00012  -0.02455  -0.02403   3.13259
   D11       -0.02284   0.00097  -0.00028   0.04714   0.04727   0.02444
   D12        3.13503   0.00022  -0.00009   0.01261   0.01260  -3.13555
   D13        0.01282  -0.00057   0.00013  -0.02758  -0.02725  -0.01443
   D14       -3.11362  -0.00079   0.00018  -0.03538  -0.03529   3.13428
   D15        3.13385   0.00040  -0.00011   0.01628   0.01634  -3.13300
   D16        0.00741   0.00018  -0.00006   0.00847   0.00829   0.01570
         Item               Value     Threshold  Converged?
 Maximum Force            0.022678     0.000450     NO 
 RMS     Force            0.006499     0.000300     NO 
 Maximum Displacement     0.056772     0.001800     NO 
 RMS     Displacement     0.019329     0.001200     NO 
 Predicted change in Energy=-2.054049D-03
 Lowest energy point so far.  Saving SCF results.
 GradGradGradGradGradGradGradGradGradGradGradGradGradGradGradGradGradGrad

 Leave Link  103 at Mon Nov 23 02:20:19 2015, MaxMem=    33554432 cpu:         0.0
 (Enter /home/Applications/g09/g09/l202.exe)
                          Input orientation:                          
 ---------------------------------------------------------------------
 Center     Atomic      Atomic             Coordinates (Angstroms)
 Number     Number       Type             X           Y           Z
 ---------------------------------------------------------------------
      1          6           0        0.971897   -0.726121    0.007599
      2          6           0       -0.348088   -1.105865   -0.010815
      3          8           0       -1.172283    0.010981   -0.038638
      4          6           0       -0.332655    1.100388   -0.003573
      5          6           0        0.978633    0.707124    0.013603
      6          1           0        1.848060    1.337689    0.034735
      7          1           0       -0.821103    2.057178   -0.013302
      8          1           0       -0.877651   -2.038248   -0.024840
      9          1           0        1.842895   -1.337841    0.020483
 ---------------------------------------------------------------------
                    Distance matrix (angstroms):
                    1          2          3          4          5
     1  C    0.000000
     2  C    1.373647   0.000000
     3  O    2.267811   1.388314   0.000000
     4  C    2.244575   2.206319   1.375867   0.000000
     5  C    1.433273   2.246712   2.261367   1.369097   0.000000
     6  H    2.242255   3.285741   3.299698   2.193922   1.074226
     7  H    3.310897   3.198217   2.076268   1.074301   2.249982
     8  H    2.267942   1.072368   2.070347   3.185672   3.314263
     9  H    1.064427   2.203452   3.303651   3.267806   2.220107
                    6          7          8          9
     6  H    0.000000
     7  H    2.764851   0.000000
     8  H    4.339355   4.095833   0.000000
     9  H    2.675573   4.315574   2.809626   0.000000
 Stoichiometry    C4H4O
 Framework group  C1[X(C4H4O)]
 Deg. of freedom    21
 Full point group                 C1      NOp   1
 RotChk:  IX=0 Diff= 2.63D-01
 Largest Abelian subgroup         C1      NOp   1
 Largest concise Abelian subgroup C1      NOp   1
                         Standard orientation:                         
 ---------------------------------------------------------------------
 Center     Atomic      Atomic             Coordinates (Angstroms)
 Number     Number       Type             X           Y           Z
 ---------------------------------------------------------------------
      1          6           0        0.670556    1.004119   -0.002623
      2          6           0        1.122634   -0.292969    0.007113
      3          8           0        0.053103   -1.178011   -0.007707
      4          6           0       -1.081119   -0.399329    0.006579
      5          6           0       -0.760890    0.931766   -0.001605
      6          1           0       -1.438556    1.765270   -0.000304
      7          1           0       -2.009447   -0.939997    0.003556
      8          1           0        2.082870   -0.770377    0.007022
      9          1           0        1.233220    1.907670   -0.005399
 ---------------------------------------------------------------------
 Rotational constants (GHZ):      9.4293732      9.0400197      4.6154880
 Leave Link  202 at Mon Nov 23 02:20:19 2015, MaxMem=    33554432 cpu:         0.0
 (Enter /home/Applications/g09/g09/l301.exe)

 Semi-emprical parameters in input format:
 Method=8 CoreType=1 PeptideFC=0.0125750000 RIJScale=0.5666730000
 ****
 H       
 PQN=1 NValence=1 F0ss=0.4322380000 ZetaOverlap=1.1880780000 U=-0.4188110000
 Beta=-0.2156480000 CoreKO=1.1385450000 KON=0,0,0,1.0589200000 KON=1,0,1,1.1290450000
 KON=0,1,1,1.1706660000 KON=2,1,1,1.0589200000 EISol=-0.4188110042 EHeat=0.0830298228
 Alpha=1.5252600000
 GCore=0.0084690000,1.3383940000,2.2676710000
 GCore=0.0003530000,1.3533660000,3.6667160000
 GCore=-0.0011710000,0.6115380000,4.3212930000
 ****
 C       
 PQN=2,2 NValence=4 F0ss=0.4466820000 F0sp=0.4066640000 F0pp=0.3768030000 F2pp=0.1898720000
 G1sp=0.2679030000
 ZetaOverlap=1.8086650000,1.7840750000
 U=-1.9120180000,-1.5956620000
 Beta=-0.5629500000,-0.3031680000 DDN=0,1,0.7632320000 DDN=1,1,0.7847580000
 CoreKO=1.1124280000 KON=0,0,0,1.0889370000 KON=1,0,1,0.8219700000 KON=0,1,1,0.9893020000
 KON=2,1,1,0.7783930000 EISol=-4.4398989268 EHeat=0.2723305520 Alpha=1.3702060000
 DipHyp=1.5263761812
 GCore=0.0008320000,1.4654240000,2.8806590000
 GCore=0.0027890000,1.3245690000,3.2438410000
 GCore=-0.0012930000,1.2846020000,4.0922960000
 GCore=-0.0000880000,1.4958780000,4.9512050000
 ****
 O       
 PQN=2,2 NValence=6 F0ss=0.5666750000 F0sp=0.5060470000 F0pp=0.4958710000 F2pp=0.2150590000
 G1sp=0.4181060000
 ZetaOverlap=3.3086090000,2.5960610000
 U=-3.8586440000,-2.8743270000
 Beta=-1.1627760000,-1.1056560000 DDN=0,1,0.4676820000 DDN=1,1,0.4852320000
 CoreKO=1.0326690000 KON=0,0,0,0.8822960000 KON=1,0,1,0.5019540000 KON=0,1,1,0.8822960000
 KON=2,1,1,0.5406950000 EISol=-11.6164441184 EHeat=0.0949133088 Alpha=2.2592050000
 DipHyp=0.9353101877
 GCore=0.0202690000,1.4001430000,1.6127490000
 GCore=0.0056550000,2.0844870000,2.7600040000
 ****
 
 Standard basis: VSTO-6G (5D, 7F)
 Ernie: Thresh=  0.10000D-02 Tol=  0.10000D-05 Strict=F.
  NNHCO=     0 NNPyr=     0 NCTC=     0               EPep=         0.000000000
    EC=        67.579956033  ECS=         1.891673446   EG=         0.361392778
   EHC=         0.000000000  EAt=       -31.051283842  AtH=         1.516354808
 EPDDG=         0.000000000  ECC=        69.833022256 EAtT=        32.567638650
 There are    24 symmetry adapted cartesian basis functions of A   symmetry.
 There are    24 symmetry adapted basis functions of A   symmetry.
    24 basis functions,   144 primitive gaussians,    24 cartesian basis functions
    13 alpha electrons       13 beta electrons
       nuclear repulsion energy       102.4006609066 Hartrees.
 IExCor=    0 DFT=F Ex=HF Corr=None ExCW=0 ScaHFX=  1.000000
 ScaDFX=  1.000000  1.000000  1.000000  1.000000 ScalE2=  1.000000  1.000000
 IRadAn=      0 IRanWt=     -1 IRanGd=            0 ICorTp=0 IEmpDi=  4
 Integral buffers will be    131072 words long.
 Regular integral format.
 Two-electron integral symmetry is turned off.
 Leave Link  301 at Mon Nov 23 02:20:19 2015, MaxMem=    33554432 cpu:         0.0
 (Enter /home/Applications/g09/g09/l302.exe)
 Do NDO integrals.
 NPDir=0 NMtPBC=     1 NCelOv=     1 NCel=       1 NClECP=     1 NCelD=      1
         NCelK=      1 NCelE2=     1 NClLst=     1 CellRange=     0.0.
 One-electron integrals computed using PRISM.
 NBasis=    24 RedAO= F EigKep=  0.00D+00  NBF=    24
 NBsUse=    24 1.00D-04 EigRej=  0.00D+00 NBFU=    24
 Leave Link  302 at Mon Nov 23 02:20:19 2015, MaxMem=    33554432 cpu:         0.0
 (Enter /home/Applications/g09/g09/l303.exe)
 DipDrv:  MaxL=1.
 Leave Link  303 at Mon Nov 23 02:20:19 2015, MaxMem=    33554432 cpu:         0.0
 (Enter /home/Applications/g09/g09/l401.exe)
 Initial guess from the checkpoint file:  "/home/Applications/g09/scratch/Gau-2434.chk"
 B after Tr=     0.000000    0.000000    0.000000
         Rot=    0.995649    0.000006   -0.000003   -0.093187 Ang=  10.69 deg.
 Guess basis will be translated and rotated to current coordinates.
 JPrj=0 DoOrth=T DoCkMO=T.
 Leave Link  401 at Mon Nov 23 02:20:19 2015, MaxMem=    33554432 cpu:         0.0
 (Enter /home/Applications/g09/g09/l502.exe)
 Closed shell SCF:
 Using DIIS extrapolation, IDIIS=  1040.
 Overlap will be assumed to be unity.
 Two-electron integral symmetry not used.
 Keep J ints in memory in canonical form, NReq=888082.
 IVT=       79475 IEndB=       79475 NGot=    33554432 MDV=    33473473
 LenX=    33473473 LenY=    33472456
 Requested convergence on RMS density matrix=1.00D-08 within 128 cycles.
 Requested convergence on MAX density matrix=1.00D-06.
 Requested convergence on             energy=1.00D-06.
 No special actions if energy rises.
 FoFCou: FMM=F IPFlag=           0 FMFlag=           0 FMFlg1=           0
         NFxFlg=           0 DoJE=F BraDBF=F KetDBF=F FulRan=T
         wScrn=  0.000000 ICntrl=     600 IOpCl=  2 I1Cent=           0 NGrid=           0
         NMat0=    1 NMatS0=     54 NMatT0=    0 NMatD0=    1 NMtDS0=    0 NMtDT0=    0
 Symmetry not used in FoFCou.

 Cycle   1  Pass 1  IDiag  1:
 E= -2.34069840611159    
 DIIS: error= 3.06D-03 at cycle   1 NSaved=   1.
 NSaved= 1 IEnMin= 1 EnMin= -2.34069840611159     IErMin= 1 ErrMin= 3.06D-03
 ErrMax= 3.06D-03  0.00D+00 EMaxC= 1.00D-01 BMatC= 4.22D-04 BMatP= 4.22D-04
 IDIUse=3 WtCom= 9.69D-01 WtEn= 3.06D-02
 Coeff-Com:  0.100D+01
 Coeff-En:   0.100D+01
 Coeff:      0.100D+01
 GapD=    2.000 DampG=2.000 DampE=1.000 DampFc=2.0000 IDamp=-1.
 RMSDP=1.44D-03 MaxDP=5.77D-03              OVMax= 0.00D+00

 Cycle   2  Pass 1  IDiag  3:
 E= -2.34194418533242     Delta-E=       -0.001245779221 Rises=F Damp=F
 DIIS: error= 1.49D-03 at cycle   2 NSaved=   2.
 NSaved= 2 IEnMin= 2 EnMin= -2.34194418533242     IErMin= 2 ErrMin= 1.49D-03
 ErrMax= 1.49D-03  0.00D+00 EMaxC= 1.00D-01 BMatC= 5.18D-05 BMatP= 4.22D-04
 IDIUse=3 WtCom= 9.85D-01 WtEn= 1.49D-02
 Coeff-Com: -0.380D+00 0.138D+01
 Coeff-En:   0.000D+00 0.100D+01
 Coeff:     -0.375D+00 0.137D+01
 Gap=     0.382 Goal=   None    Shift=    0.000
 RMSDP=8.57D-04 MaxDP=3.91D-03 DE=-1.25D-03 OVMax= 6.15D-03

 Cycle   3  Pass 1  IDiag  3:
 E= -2.34220032442414     Delta-E=       -0.000256139092 Rises=F Damp=F
 DIIS: error= 4.64D-04 at cycle   3 NSaved=   3.
 NSaved= 3 IEnMin= 3 EnMin= -2.34220032442414     IErMin= 3 ErrMin= 4.64D-04
 ErrMax= 4.64D-04  0.00D+00 EMaxC= 1.00D-01 BMatC= 4.37D-06 BMatP= 5.18D-05
 IDIUse=3 WtCom= 9.95D-01 WtEn= 4.64D-03
 Coeff-Com:  0.133D+00-0.675D+00 0.154D+01
 Coeff-En:   0.000D+00 0.000D+00 0.100D+01
 Coeff:      0.133D+00-0.672D+00 0.154D+01
 Gap=     0.382 Goal=   None    Shift=    0.000
 RMSDP=3.76D-04 MaxDP=1.89D-03 DE=-2.56D-04 OVMax= 3.32D-03

 Cycle   4  Pass 1  IDiag  3:
 E= -2.34223200016085     Delta-E=       -0.000031675737 Rises=F Damp=F
 DIIS: error= 9.29D-05 at cycle   4 NSaved=   4.
 NSaved= 4 IEnMin= 4 EnMin= -2.34223200016085     IErMin= 4 ErrMin= 9.29D-05
 ErrMax= 9.29D-05  0.00D+00 EMaxC= 1.00D-01 BMatC= 3.05D-07 BMatP= 4.37D-06
 IDIUse=1 WtCom= 1.00D+00 WtEn= 0.00D+00
 Coeff-Com: -0.359D-02 0.567D-01-0.365D+00 0.131D+01
 Coeff:     -0.359D-02 0.567D-01-0.365D+00 0.131D+01
 Gap=     0.382 Goal=   None    Shift=    0.000
 RMSDP=1.08D-04 MaxDP=6.83D-04 DE=-3.17D-05 OVMax= 9.55D-04

 Cycle   5  Pass 1  IDiag  3:
 E= -2.34223453641185     Delta-E=       -0.000002536251 Rises=F Damp=F
 DIIS: error= 4.07D-05 at cycle   5 NSaved=   5.
 NSaved= 5 IEnMin= 5 EnMin= -2.34223453641185     IErMin= 5 ErrMin= 4.07D-05
 ErrMax= 4.07D-05  0.00D+00 EMaxC= 1.00D-01 BMatC= 4.09D-08 BMatP= 3.05D-07
 IDIUse=1 WtCom= 1.00D+00 WtEn= 0.00D+00
 Coeff-Com: -0.773D-02 0.241D-01 0.632D-01-0.742D+00 0.166D+01
 Coeff:     -0.773D-02 0.241D-01 0.632D-01-0.742D+00 0.166D+01
 Gap=     0.382 Goal=   None    Shift=    0.000
 RMSDP=5.13D-05 MaxDP=3.90D-04 DE=-2.54D-06 OVMax= 5.65D-04

 Cycle   6  Pass 1  IDiag  3:
 E= -2.34223494623166     Delta-E=       -0.000000409820 Rises=F Damp=F
 DIIS: error= 1.20D-05 at cycle   6 NSaved=   6.
 NSaved= 6 IEnMin= 6 EnMin= -2.34223494623166     IErMin= 6 ErrMin= 1.20D-05
 ErrMax= 1.20D-05  0.00D+00 EMaxC= 1.00D-01 BMatC= 3.19D-09 BMatP= 4.09D-08
 IDIUse=1 WtCom= 1.00D+00 WtEn= 0.00D+00
 Coeff-Com:  0.715D-02-0.284D-01 0.130D-02 0.390D+00-0.114D+01 0.177D+01
 Coeff:      0.715D-02-0.284D-01 0.130D-02 0.390D+00-0.114D+01 0.177D+01
 Gap=     0.382 Goal=   None    Shift=    0.000
 RMSDP=1.57D-05 MaxDP=1.29D-04 DE=-4.10D-07 OVMax= 1.81D-04

 Cycle   7  Pass 1  IDiag  3:
 E= -2.34223497888517     Delta-E=       -0.000000032654 Rises=F Damp=F
 DIIS: error= 2.29D-06 at cycle   7 NSaved=   7.
 NSaved= 7 IEnMin= 7 EnMin= -2.34223497888517     IErMin= 7 ErrMin= 2.29D-06
 ErrMax= 2.29D-06  0.00D+00 EMaxC= 1.00D-01 BMatC= 1.60D-10 BMatP= 3.19D-09
 IDIUse=1 WtCom= 1.00D+00 WtEn= 0.00D+00
 Coeff-Com: -0.308D-02 0.122D-01-0.656D-03-0.167D+00 0.499D+00-0.901D+00
 Coeff-Com:  0.156D+01
 Coeff:     -0.308D-02 0.122D-01-0.656D-03-0.167D+00 0.499D+00-0.901D+00
 Coeff:      0.156D+01
 Gap=     0.382 Goal=   None    Shift=    0.000
 RMSDP=3.04D-06 MaxDP=2.38D-05 DE=-3.27D-08 OVMax= 3.41D-05

 Cycle   8  Pass 1  IDiag  3:
 E= -2.34223498035647     Delta-E=       -0.000000001471 Rises=F Damp=F
 DIIS: error= 5.10D-07 at cycle   8 NSaved=   8.
 NSaved= 8 IEnMin= 8 EnMin= -2.34223498035647     IErMin= 8 ErrMin= 5.10D-07
 ErrMax= 5.10D-07  0.00D+00 EMaxC= 1.00D-01 BMatC= 1.31D-11 BMatP= 1.60D-10
 IDIUse=1 WtCom= 1.00D+00 WtEn= 0.00D+00
 Coeff-Com:  0.131D-02-0.524D-02 0.843D-03 0.683D-01-0.208D+00 0.394D+00
 Coeff-Com: -0.908D+00 0.166D+01
 Coeff:      0.131D-02-0.524D-02 0.843D-03 0.683D-01-0.208D+00 0.394D+00
 Coeff:     -0.908D+00 0.166D+01
 Gap=     0.382 Goal=   None    Shift=    0.000
 RMSDP=8.88D-07 MaxDP=6.09D-06 DE=-1.47D-09 OVMax= 8.67D-06

 Cycle   9  Pass 1  IDiag  3:
 E= -2.34223498047240     Delta-E=       -0.000000000116 Rises=F Damp=F
 DIIS: error= 1.06D-07 at cycle   9 NSaved=   9.
 NSaved= 9 IEnMin= 9 EnMin= -2.34223498047240     IErMin= 9 ErrMin= 1.06D-07
 ErrMax= 1.06D-07  0.00D+00 EMaxC= 1.00D-01 BMatC= 5.92D-13 BMatP= 1.31D-11
 IDIUse=1 WtCom= 1.00D+00 WtEn= 0.00D+00
 Coeff-Com: -0.586D-03 0.232D-02-0.254D-03-0.310D-01 0.941D-01-0.179D+00
 Coeff-Com:  0.433D+00-0.928D+00 0.161D+01
 Coeff:     -0.586D-03 0.232D-02-0.254D-03-0.310D-01 0.941D-01-0.179D+00
 Coeff:      0.433D+00-0.928D+00 0.161D+01
 Gap=     0.382 Goal=   None    Shift=    0.000
 RMSDP=1.67D-07 MaxDP=1.11D-06 DE=-1.16D-10 OVMax= 1.54D-06

 Cycle  10  Pass 1  IDiag  3:
 E= -2.34223498047703     Delta-E=       -0.000000000005 Rises=F Damp=F
 DIIS: error= 2.67D-08 at cycle  10 NSaved=  10.
 NSaved=10 IEnMin=10 EnMin= -2.34223498047703     IErMin=10 ErrMin= 2.67D-08
 ErrMax= 2.67D-08  0.00D+00 EMaxC= 1.00D-01 BMatC= 2.83D-14 BMatP= 5.92D-13
 IDIUse=1 WtCom= 1.00D+00 WtEn= 0.00D+00
 Coeff-Com:  0.220D-03-0.872D-03 0.118D-03 0.115D-01-0.351D-01 0.670D-01
 Coeff-Com: -0.165D+00 0.368D+00-0.773D+00 0.153D+01
 Coeff:      0.220D-03-0.872D-03 0.118D-03 0.115D-01-0.351D-01 0.670D-01
 Coeff:     -0.165D+00 0.368D+00-0.773D+00 0.153D+01
 Gap=     0.382 Goal=   None    Shift=    0.000
 RMSDP=3.27D-08 MaxDP=2.02D-07 DE=-4.63D-12 OVMax= 3.20D-07

 Cycle  11  Pass 1  IDiag  3:
 E= -2.34223498047757     Delta-E=       -0.000000000001 Rises=F Damp=F
 DIIS: error= 4.81D-09 at cycle  11 NSaved=  11.
 NSaved=11 IEnMin=11 EnMin= -2.34223498047757     IErMin=11 ErrMin= 4.81D-09
 ErrMax= 4.81D-09  0.00D+00 EMaxC= 1.00D-01 BMatC= 1.38D-15 BMatP= 2.83D-14
 IDIUse=1 WtCom= 1.00D+00 WtEn= 0.00D+00
 Coeff-Com: -0.602D-04 0.239D-03-0.350D-04-0.314D-02 0.960D-02-0.184D-01
 Coeff-Com:  0.454D-01-0.102D+00 0.225D+00-0.606D+00 0.145D+01
 Coeff:     -0.602D-04 0.239D-03-0.350D-04-0.314D-02 0.960D-02-0.184D-01
 Coeff:      0.454D-01-0.102D+00 0.225D+00-0.606D+00 0.145D+01
 Gap=     0.382 Goal=   None    Shift=    0.000
 RMSDP=7.29D-09 MaxDP=4.31D-08 DE=-5.40D-13 OVMax= 5.41D-08

 Cycle  12  Pass 2  IDiag  1:
 SCF Done:  E(RAM1) =  -2.34223498048     A.U. after   12 cycles
            NFock= 11  Conv=0.73D-08     -V/T= 0.8792
 KE=-1.938271968471D+01 PE=-1.706175034641D+02 EE= 8.525732726178D+01
 Leave Link  502 at Mon Nov 23 02:20:19 2015, MaxMem=    33554432 cpu:         0.0
 (Enter /home/Applications/g09/g09/l701.exe)
 Compute integral first derivatives.
 ... and contract with generalized density number  0.
 Leave Link  701 at Mon Nov 23 02:20:19 2015, MaxMem=    33554432 cpu:         0.0
 (Enter /home/Applications/g09/g09/l702.exe)
 L702 exits ... SP integral derivatives will be done elsewhere.
 Leave Link  702 at Mon Nov 23 02:20:19 2015, MaxMem=    33554432 cpu:         0.0
 (Enter /home/Applications/g09/g09/l703.exe)
 Compute integral first derivatives, UseDBF=F ICtDFT=           0.
 Integral derivatives from FoFJK, PRISM(SPDF).
 Calling FoFJK, ICntrl=      2127 FMM=F ISym2X=0 I1Cent= 0 IOpClX= 0 NMat=1 NMatS=1 NMatT=0.
 FoFJK:  IHMeth= 8 ICntrl=    2127 DoSepK=F KAlg= 0 I1Cent=   0 FoldK=F
 IRaf=         0 NMat=   1 IRICut=       1 DoRegI=T DoRafI=F ISym2E= 0.
 FoFCou: FMM=F IPFlag=           0 FMFlag=      100000 FMFlg1=         800
         NFxFlg=           0 DoJE=F BraDBF=F KetDBF=F FulRan=T
         wScrn=  0.000000 ICntrl=    2127 IOpCl=  0 I1Cent=           0 NGrid=           0
         NMat0=    1 NMatS0=      1 NMatT0=    0 NMatD0=    1 NMtDS0=    0 NMtDT0=    0
 Symmetry not used in FoFCou.
 Leave Link  703 at Mon Nov 23 02:20:19 2015, MaxMem=    33554432 cpu:         0.0
 (Enter /home/Applications/g09/g09/l716.exe)
 Dipole        =-2.64315514D-02-1.87104794D-01-5.25840350D-03
 ***** Axes restored to original set *****
 -------------------------------------------------------------------
 Center     Atomic                   Forces (Hartrees/Bohr)
 Number     Number              X              Y              Z
 -------------------------------------------------------------------
      1        6          -0.000546563   -0.001953917    0.001146322
      2        6          -0.005094632    0.000660050   -0.002955857
      3        8          -0.007228810   -0.005986879    0.002719885
      4        6          -0.006423353    0.009370378   -0.002817569
      5        6           0.010584293    0.005583778    0.001279383
      6        1           0.000791190   -0.002067271   -0.000107703
      7        1           0.000560309   -0.000223417    0.000351585
      8        1           0.002120987   -0.001312154    0.000291093
      9        1           0.005236578   -0.004070568    0.000092861
 -------------------------------------------------------------------
 Cartesian Forces:  Max     0.010584293 RMS     0.004188181
 Leave Link  716 at Mon Nov 23 02:20:19 2015, MaxMem=    33554432 cpu:         0.0
 (Enter /home/Applications/g09/g09/l103.exe)

 GradGradGradGradGradGradGradGradGradGradGradGradGradGradGradGradGradGrad
 Berny optimization.
 Using GEDIIS/GDIIS optimizer.
 FormGI is forming the generalized inverse of G from B-inverse, IUseBI=4.
 Internal  Forces:  Max     0.011143170 RMS     0.003027970
 Search for a local minimum.
 Step number   3 out of a maximum of   48
 All quantities printed in internal units (Hartrees-Bohrs-Radians)
 RMS Force = .30280D-02 SwitMx=.10000D-02 MixMth= 1
 Mixed Optimization -- RFO/linear search
 Update second derivatives using D2CorX and points    1    2    3
 DE= -1.40D-03 DEPred=-2.05D-03 R= 6.81D-01
 TightC=F SS=  1.41D+00  RLast= 1.46D-01 DXNew= 8.4853D-01 4.3756D-01
 Trust test= 6.81D-01 RLast= 1.46D-01 DXMaxT set to 5.05D-01
 ITU=  1  1  0
 Use linear search instead of GDIIS.
     Eigenvalues ---    0.01927   0.02040   0.02181   0.02615   0.02856
     Eigenvalues ---    0.03280   0.13331   0.15999   0.16000   0.16100
     Eigenvalues ---    0.22180   0.23214   0.30137   0.37435   0.38105
     Eigenvalues ---    0.41117   0.43558   0.45204   0.45320   0.53250
     Eigenvalues ---    0.85946
 RFO step:  Lambda=-3.92066811D-04 EMin= 1.92720875D-02
 Quartic linear search produced a step of -0.23776.
 Iteration  1 RMS(Cart)=  0.00935479 RMS(Int)=  0.00013372
[...]
 Coeff:     -0.105D+01 0.168D+01
 Gap=     0.381 Goal=   None    Shift=    0.000
 RMSDP=3.16D-08 MaxDP=2.76D-07 DE=-2.22D-12 OVMax= 3.26D-07

 Cycle   9  Pass 1  IDiag  3:
 E= -2.34267383353669     Delta-E=        0.000000000000 Rises=F Damp=F
 DIIS: error= 4.12D-09 at cycle   9 NSaved=   9.
 NSaved= 9 IEnMin= 9 EnMin= -2.34267383353669     IErMin= 9 ErrMin= 4.12D-09
 ErrMax= 4.12D-09  0.00D+00 EMaxC= 1.00D-01 BMatC= 8.85D-16 BMatP= 1.70D-14
 IDIUse=1 WtCom= 1.00D+00 WtEn= 0.00D+00
 Coeff-Com: -0.554D-03 0.179D-02-0.304D-02-0.853D-02 0.633D-01-0.178D+00
 Coeff-Com:  0.374D+00-0.771D+00 0.152D+01
 Coeff:     -0.554D-03 0.179D-02-0.304D-02-0.853D-02 0.633D-01-0.178D+00
 Coeff:      0.374D+00-0.771D+00 0.152D+01
 Gap=     0.381 Goal=   None    Shift=    0.000
 RMSDP=6.86D-09 MaxDP=6.15D-08 DE=-3.27D-13 OVMax= 6.85D-08

 Cycle  10  Pass 2  IDiag  1:
 SCF Done:  E(RAM1) =  -2.34267383354     A.U. after   10 cycles
            NFock=  9  Conv=0.69D-08     -V/T= 0.8790
 KE=-1.936373900494D+01 PE=-1.703692485035D+02 EE= 8.513703879943D+01
 Leave Link  502 at Mon Nov 23 02:20:20 2015, MaxMem=    33554432 cpu:         0.0
 (Enter /home/Applications/g09/g09/l701.exe)
 Compute integral first derivatives.
 ... and contract with generalized density number  0.
 Leave Link  701 at Mon Nov 23 02:20:20 2015, MaxMem=    33554432 cpu:         0.0
 (Enter /home/Applications/g09/g09/l702.exe)
 L702 exits ... SP integral derivatives will be done elsewhere.
 Leave Link  702 at Mon Nov 23 02:20:20 2015, MaxMem=    33554432 cpu:         0.0
 (Enter /home/Applications/g09/g09/l703.exe)
 Compute integral first derivatives, UseDBF=F ICtDFT=           0.
 Integral derivatives from FoFJK, PRISM(SPDF).
 Calling FoFJK, ICntrl=      2127 FMM=F ISym2X=0 I1Cent= 0 IOpClX= 0 NMat=1 NMatS=1 NMatT=0.
 FoFJK:  IHMeth= 8 ICntrl=    2127 DoSepK=F KAlg= 0 I1Cent=   0 FoldK=F
 IRaf=         0 NMat=   1 IRICut=       1 DoRegI=T DoRafI=F ISym2E= 0.
 FoFCou: FMM=F IPFlag=           0 FMFlag=      100000 FMFlg1=         800
         NFxFlg=           0 DoJE=F BraDBF=F KetDBF=F FulRan=T
         wScrn=  0.000000 ICntrl=    2127 IOpCl=  0 I1Cent=           0 NGrid=           0
         NMat0=    1 NMatS0=      1 NMatT0=    0 NMatD0=    1 NMtDS0=    0 NMtDT0=    0
 Symmetry not used in FoFCou.
 Leave Link  703 at Mon Nov 23 02:20:20 2015, MaxMem=    33554432 cpu:         0.0
 (Enter /home/Applications/g09/g09/l716.exe)
 Dipole        = 5.17862239D-05-1.57373296D-01 9.04030769D-05
 ***** Axes restored to original set *****
 -------------------------------------------------------------------
 Center     Atomic                   Forces (Hartrees/Bohr)
 Number     Number              X              Y              Z
 -------------------------------------------------------------------
      1        6          -0.000154204    0.000021848   -0.000145678
      2        6           0.000100299    0.000045118    0.000168671
      3        8          -0.000089613   -0.000040347   -0.000100486
      4        6           0.000158580    0.000068452    0.000026187
      5        6           0.000016196   -0.000082378    0.000063237
      6        1          -0.000018426    0.000043771   -0.000000321
      7        1          -0.000069373   -0.000025795   -0.000005532
      8        1           0.000006882    0.000020771   -0.000013313
      9        1           0.000049659   -0.000051440    0.000007236
 -------------------------------------------------------------------
 Cartesian Forces:  Max     0.000168671 RMS     0.000077204
 Leave Link  716 at Mon Nov 23 02:20:20 2015, MaxMem=    33554432 cpu:         0.0
 (Enter /home/Applications/g09/g09/l103.exe)

 GradGradGradGradGradGradGradGradGradGradGradGradGradGradGradGradGradGrad
 Berny optimization.
 Using GEDIIS/GDIIS optimizer.
 FormGI is forming the generalized inverse of G from B-inverse, IUseBI=4.
 Internal  Forces:  Max     0.000089735 RMS     0.000036452
 Search for a local minimum.
 Step number   7 out of a maximum of   48
 All quantities printed in internal units (Hartrees-Bohrs-Radians)
 RMS Force = .36452D-04 SwitMx=.10000D-02 MixMth= 2
 Mixed Optimization -- En-DIIS/RFO-DIIS
 Swapping is turned off.
 Update second derivatives using D2CorX and points    1    2    3    4    5
                                                      6    7
 DE= -3.95D-06 DEPred=-4.09D-06 R= 9.66D-01
 TightC=F SS=  1.41D+00  RLast= 1.11D-02 DXNew= 8.4853D-01 3.3399D-02
 Trust test= 9.66D-01 RLast= 1.11D-02 DXMaxT set to 5.05D-01
 ITU=  1  1  1  1  1  1  0
     Eigenvalues ---    0.01994   0.02134   0.02617   0.03133   0.03518
     Eigenvalues ---    0.05562   0.08599   0.14642   0.16014   0.16016
     Eigenvalues ---    0.22234   0.23378   0.31008   0.37730   0.39087
     Eigenvalues ---    0.40766   0.43068   0.43649   0.45098   0.54837
     Eigenvalues ---    0.86266
 En-DIIS/RFO-DIIS IScMMF=        0 using points:     7    6    5    4
 RFO step:  Lambda=-1.52980066D-07.
 NNeg= 0 NP= 4 Switch=  2.50D-03 Rises=F DC=  3.06D-05 SmlDif=  1.00D-05
 RMS Error=  0.1243048432D-03 NUsed= 4 EDIIS=F
 DidBck=F Rises=F RFO-DIIS coefs:    0.79309    0.11985    0.05851    0.02854
 Iteration  1 RMS(Cart)=  0.00040054 RMS(Int)=  0.00000056
 Iteration  2 RMS(Cart)=  0.00000018 RMS(Int)=  0.00000053
 ITry= 1 IFail=0 DXMaxC= 1.07D-03 DCOld= 1.00D+10 DXMaxT= 5.05D-01 DXLimC= 3.00D+00 Rises=F
 Variable       Old X    -DE/DX   Delta X   Delta X   Delta X     New X
                                 (Linear)    (Quad)   (Total)
    R1        2.60063  -0.00009   0.00005  -0.00029  -0.00023   2.60040
    R2        2.71735   0.00000  -0.00005   0.00005  -0.00001   2.71734
    R3        2.02685   0.00007   0.00022   0.00000   0.00022   2.02707
    R4        2.61719  -0.00001   0.00010  -0.00003   0.00007   2.61726
    R5        2.02676  -0.00002  -0.00003  -0.00005  -0.00008   2.02669
    R6        2.61690   0.00005  -0.00004   0.00012   0.00009   2.61698
    R7        2.60052  -0.00001   0.00024  -0.00023   0.00000   2.60052
    R8        2.02670   0.00001   0.00014  -0.00011   0.00002   2.02673
    R9        2.02701   0.00001   0.00008  -0.00005   0.00003   2.02703
    A1        1.85468   0.00001   0.00004   0.00004   0.00008   1.85476
    A2        2.24691  -0.00002   0.00009  -0.00021  -0.00013   2.24678
    A3        2.18159   0.00001  -0.00013   0.00018   0.00005   2.18164
    A4        1.93451   0.00004   0.00000   0.00006   0.00006   1.93456
    A5        2.33261  -0.00002   0.00036  -0.00012   0.00024   2.33286
    A6        2.01606  -0.00002  -0.00036   0.00006  -0.00030   2.01576
    A7        1.84626  -0.00004  -0.00001  -0.00010  -0.00011   1.84615
    A8        1.93463   0.00000   0.00001   0.00004   0.00004   1.93468
    A9        2.01686  -0.00008   0.00014  -0.00063  -0.00049   2.01637
   A10        2.33170   0.00007  -0.00015   0.00059   0.00045   2.33214
   A11        1.85469  -0.00001  -0.00004  -0.00003  -0.00007   1.85462
   A12        2.18116   0.00005   0.00004   0.00048   0.00052   2.18168
   A13        2.24733  -0.00004   0.00000  -0.00044  -0.00045   2.24688
    D1       -0.00121   0.00006   0.00041   0.00115   0.00155   0.00034
    D2        3.14151   0.00001   0.00016  -0.00004   0.00012  -3.14156
    D3        3.14110   0.00003   0.00008   0.00062   0.00070  -3.14139
    D4        0.00064  -0.00003  -0.00018  -0.00057  -0.00074  -0.00010
    D5        0.00082  -0.00005  -0.00033  -0.00064  -0.00096  -0.00014
    D6       -3.14097  -0.00002  -0.00015  -0.00046  -0.00061  -3.14158
    D7       -3.14146  -0.00001  -0.00001  -0.00014  -0.00015   3.14158
    D8       -0.00007   0.00001   0.00016   0.00005   0.00021   0.00014
    D9        0.00112  -0.00006  -0.00033  -0.00119  -0.00152  -0.00040
   D10       -3.14138  -0.00001  -0.00012  -0.00024  -0.00036   3.14144
   D11       -0.00057   0.00003   0.00011   0.00077   0.00087   0.00030
   D12        3.14126   0.00002   0.00011   0.00034   0.00045  -3.14147
   D13       -0.00016   0.00001   0.00014  -0.00008   0.00005  -0.00010
   D14       -3.14154  -0.00001  -0.00004  -0.00027  -0.00032   3.14133
   D15        3.14114   0.00002   0.00013   0.00044   0.00057  -3.14147
   D16       -0.00024   0.00000  -0.00005   0.00025   0.00020  -0.00004
         Item               Value     Threshold  Converged?
 Maximum Force            0.000090     0.000450     YES
 RMS     Force            0.000036     0.000300     YES
 Maximum Displacement     0.001071     0.001800     YES
 RMS     Displacement     0.000401     0.001200     YES
 Predicted change in Energy=-2.890538D-07
 Optimization completed.
    -- Stationary point found.
                           ----------------------------
                           !   Optimized Parameters   !
                           ! (Angstroms and Degrees)  !
 --------------------------                            --------------------------
 ! Name  Definition              Value          Derivative Info.                !
 --------------------------------------------------------------------------------
 ! R1    R(1,2)                  1.3762         -DE/DX =   -0.0001              !
 ! R2    R(1,5)                  1.438          -DE/DX =    0.0                 !
 ! R3    R(1,9)                  1.0726         -DE/DX =    0.0001              !
 ! R4    R(2,3)                  1.385          -DE/DX =    0.0                 !
 ! R5    R(2,8)                  1.0725         -DE/DX =    0.0                 !
 ! R6    R(3,4)                  1.3848         -DE/DX =    0.0                 !
 ! R7    R(4,5)                  1.3761         -DE/DX =    0.0                 !
 ! R8    R(4,7)                  1.0725         -DE/DX =    0.0                 !
 ! R9    R(5,6)                  1.0726         -DE/DX =    0.0                 !
 ! A1    A(2,1,5)              106.2656         -DE/DX =    0.0                 !
 ! A2    A(2,1,9)              128.7385         -DE/DX =    0.0                 !
 ! A3    A(5,1,9)              124.9959         -DE/DX =    0.0                 !
 ! A4    A(1,2,3)              110.839          -DE/DX =    0.0                 !
 ! A5    A(1,2,8)              133.649          -DE/DX =    0.0                 !
 ! A6    A(3,2,8)              115.512          -DE/DX =    0.0                 !
 ! A7    A(2,3,4)              105.783          -DE/DX =    0.0                 !
 ! A8    A(3,4,5)              110.8464         -DE/DX =    0.0                 !
 ! A9    A(3,4,7)              115.5573         -DE/DX =   -0.0001              !
 ! A10   A(5,4,7)              133.5963         -DE/DX =    0.0001              !
 ! A11   A(1,5,4)              106.266          -DE/DX =    0.0                 !
 ! A12   A(1,5,6)              124.9714         -DE/DX =    0.0001              !
 ! A13   A(4,5,6)              128.7626         -DE/DX =    0.0                 !
 ! D1    D(5,1,2,3)             -0.0696         -DE/DX =    0.0001              !
 ! D2    D(5,1,2,8)           -180.0049         -DE/DX =    0.0                 !
 ! D3    D(9,1,2,3)           -180.028          -DE/DX =    0.0                 !
 ! D4    D(9,1,2,8)              0.0367         -DE/DX =    0.0                 !
 ! D5    D(2,1,5,4)              0.0471         -DE/DX =    0.0                 !
 ! D6    D(2,1,5,6)           -179.9643         -DE/DX =    0.0                 !
 ! D7    D(9,1,5,4)            180.0075         -DE/DX =    0.0                 !
 ! D8    D(9,1,5,6)             -0.0039         -DE/DX =    0.0                 !
 ! D9    D(1,2,3,4)              0.064          -DE/DX =   -0.0001              !
 ! D10   D(8,2,3,4)            180.0122         -DE/DX =    0.0                 !
 ! D11   D(2,3,4,5)             -0.0325         -DE/DX =    0.0                 !
 ! D12   D(2,3,4,7)           -180.0191         -DE/DX =    0.0                 !
 ! D13   D(3,4,5,1)             -0.0089         -DE/DX =    0.0                 !
 ! D14   D(3,4,5,6)            180.0031         -DE/DX =    0.0                 !
 ! D15   D(7,4,5,1)           -180.0257         -DE/DX =    0.0                 !
 ! D16   D(7,4,5,6)             -0.0137         -DE/DX =    0.0                 !
 --------------------------------------------------------------------------------
 Lowest energy point so far.  Saving SCF results.
 GradGradGradGradGradGradGradGradGradGradGradGradGradGradGradGradGradGrad

 Largest change from initial coordinates is atom    6       0.269 Angstoms.
 Leave Link  103 at Mon Nov 23 02:20:20 2015, MaxMem=    33554432 cpu:         0.0
 (Enter /home/Applications/g09/g09/l202.exe)
                          Input orientation:                          
 ---------------------------------------------------------------------
 Center     Atomic      Atomic             Coordinates (Angstroms)
 Number     Number       Type             X           Y           Z
 ---------------------------------------------------------------------
      1          6           0        0.968000   -0.723636    0.009837
      2          6           0       -0.355541   -1.099733   -0.016578
      3          8           0       -1.183151    0.010694   -0.027421
      4          6           0       -0.340002    1.109065   -0.008461
      5          6           0        0.978091    0.714279    0.014414
      6          1           0        1.861202    1.322847    0.032582
      7          1           0       -0.825626    2.065289   -0.014064
      8          1           0       -0.855417   -2.048553   -0.029081
      9          1           0        1.842148   -1.344969    0.024024
 ---------------------------------------------------------------------
                    Distance matrix (angstroms):
                    1          2          3          4          5
     1  C    0.000000
     2  C    1.376193   0.000000
     3  O    2.273342   1.384957   0.000000
     4  C    2.251666   2.208867   1.384803   0.000000
     5  C    1.437958   2.251704   2.273269   1.376135   0.000000
     6  H    2.233030   3.284091   3.315634   2.211941   1.072646
     7  H    3.315987   3.199741   2.085512   1.072485   2.253760
     8  H    2.254278   1.072517   2.085164   3.199473   3.316154
     9  H    1.072563   2.211702   3.315555   3.284070   2.233201
                    6          7          8          9
     6  H    0.000000
     7  H    2.787909   0.000000
     8  H    4.330145   4.113976   0.000000
     9  H    2.667898   4.329933   2.788317   0.000000
 Stoichiometry    C4H4O
 Framework group  C1[X(C4H4O)]
 Deg. of freedom    21
 Full point group                 C1      NOp   1
 RotChk:  IX=2 Diff= 1.82D-14
 Largest Abelian subgroup         C1      NOp   1
 Largest concise Abelian subgroup C1      NOp   1
                         Standard orientation:                         
 ---------------------------------------------------------------------
 Center     Atomic      Atomic             Coordinates (Angstroms)
 Number     Number       Type             X           Y           Z
 ---------------------------------------------------------------------
      1          6           0        0.717730    0.972502    0.000324
      2          6           0        1.104922   -0.348099   -0.000396
      3          8           0        0.001468   -1.185055    0.000261
      4          6           0       -1.103944   -0.350942   -0.000063
      5          6           0       -0.720227    0.970614   -0.000166
      6          1           0       -1.336186    1.848773   -0.000357
      7          1           0       -2.056065   -0.844591    0.000048
      8          1           0        2.057909   -0.840144   -0.000456
      9          1           0        1.331709    1.851945    0.000492
 ---------------------------------------------------------------------
 Rotational constants (GHZ):      9.3943228      8.9730579      4.5894301
 Leave Link  202 at Mon Nov 23 02:20:20 2015, MaxMem=    33554432 cpu:         0.0
 (Enter /home/Applications/g09/g09/l601.exe)
 Copying SCF densities to generalized density rwf, IOpCl= 0 IROHF=0.

 **********************************************************************

            Population analysis using the SCF density.

 **********************************************************************

 Orbital symmetries:
       Occupied  (A) (A) (A) (A) (A) (A) (A) (A) (A) (A) (A) (A)
                 (A)
       Virtual   (A) (A) (A) (A) (A) (A) (A) (A) (A) (A) (A)
 The electronic state is 1-A.
 Alpha  occ. eigenvalues --   -1.66300  -1.21871  -1.00355  -0.80149  -0.78854
 Alpha  occ. eigenvalues --   -0.68960  -0.59304  -0.56145  -0.55334  -0.52344
 Alpha  occ. eigenvalues --   -0.51637  -0.42273  -0.39420
 Alpha virt. eigenvalues --   -0.01336   0.01260   0.10710   0.14405   0.18129
 Alpha virt. eigenvalues --    0.18323   0.19513   0.20223   0.20829   0.21579
 Alpha virt. eigenvalues --    0.22872
          Condensed to atoms (all electrons):
               1          2          3          4          5          6
     1  C    4.471669   0.000000   0.000000   0.000000   0.000000   0.000000
     2  C    0.000000   4.352470   0.000000   0.000000   0.000000   0.000000
     3  O    0.000000   0.000000   5.883809   0.000000   0.000000   0.000000
     4  C    0.000000   0.000000   0.000000   4.352279   0.000000   0.000000
     5  C    0.000000   0.000000   0.000000   0.000000   4.471898   0.000000
     6  H    0.000000   0.000000   0.000000   0.000000   0.000000   0.619840
     7  H    0.000000   0.000000   0.000000   0.000000   0.000000   0.000000
     8  H    0.000000   0.000000   0.000000   0.000000   0.000000   0.000000
     9  H    0.000000   0.000000   0.000000   0.000000   0.000000   0.000000
               7          8          9
     1  C    0.000000   0.000000   0.000000
     2  C    0.000000   0.000000   0.000000
     3  O    0.000000   0.000000   0.000000
     4  C    0.000000   0.000000   0.000000
     5  C    0.000000   0.000000   0.000000
     6  H    0.000000   0.000000   0.000000
     7  H    0.614094   0.000000   0.000000
     8  H    0.000000   0.614075   0.000000
     9  H    0.000000   0.000000   0.619866
 Mulliken charges:
               1
     1  C   -0.471669
     2  C   -0.352470
     3  O    0.116191
     4  C   -0.352279
     5  C   -0.471898
     6  H    0.380160
     7  H    0.385906
     8  H    0.385925
     9  H    0.380134
 Sum of Mulliken charges =   0.00000
 Mulliken charges with hydrogens summed into heavy atoms:
               1
     1  C   -0.091535
     2  C    0.033455
     3  O    0.116191
     4  C    0.033627
     5  C   -0.091738
 Charge=              0.0000 electrons
 Dipole moment (field-independent basis, Debye):
    X=              0.0001    Y=             -0.4000    Z=              0.0002  Tot=              0.4000
 N-N= 1.022532748755D+02 E-N=-1.703692485086D+02  KE=-1.936373900494D+01
 Leave Link  601 at Mon Nov 23 02:20:20 2015, MaxMem=    33554432 cpu:         0.0
 (Enter /home/Applications/g09/g09/l9999.exe)
 1\1\GINC-DUSTIN-DESKTOP\FOpt\RAM1\ZDO\C4H4O1\DUSTIN\23-Nov-2015\0\\#P 
 AM1(Input,print) Opt\\AM1-Reparam Input\\0,1\C,0.9680000232,-0.7236364
 64,0.0098372179\C,-0.355540671,-1.0997325136,-0.0165781947\O,-1.183151
 3502,0.0106944317,-0.0274211014\C,-0.3400015098,1.1090653069,-0.008461
 025\C,0.9780912151,0.7142785613,0.0144139989\H,1.8612015348,1.32284738
 78,0.0325819832\H,-0.8256256189,2.0652885137,-0.014063995\H,-0.8554170
 855,-2.0485525177,-0.0290811371\H,1.8421484624,-1.3449687061,0.0240242
 53\\Version=ES64L-G09RevD.01\State=1-A\HF=-2.3426738\RMSD=6.861e-09\RM
 SF=7.720e-05\Dipole=-0.1573432,0.001268,-0.0028082\PG=C01 [X(C4H4O1)]\
 \@


 SLITHERY-DITHERY
 FRIEDRICH A. KEKULE
 DREAMT ON A BUS OF THINGS
 FREUD WOULD THINK KEEN.
 MOST OF THE TIME THEY WERE
 HERPETOLOGICAL
 BITING THEIR TAILS IN THE
 SHAPE OF BENZENE.
 Job cpu time:       0 days  0 hours  0 minutes  1.2 seconds.
 File lengths (MBytes):  RWF=      5 Int=      0 D2E=      0 Chk=      2 Scr=      1
 Normal termination of Gaussian 09 at Mon Nov 23 02:20:20 2015.
