 Entering Gaussian System, Link 0=g09
 Input=FuranBestInput.com
 Output=FuranBestInput.log
 Initial command:
 /opt/g09/g09/l1.exe "/opt/g09/scratch/Gau-20909.inp" -scrdir="/opt/g09/scratch/"
 Entering Link 1 = /opt/g09/g09/l1.exe PID=     20970.
  
 Copyright (c) 1988,1990,1992,1993,1995,1998,2003,2009,2013,
            Gaussian, Inc.  All Rights Reserved.
  
 This is part of the Gaussian(R) 09 program.  It is based on
 the Gaussian(R) 03 system (copyright 2003, Gaussian, Inc.),
 the Gaussian(R) 98 system (copyright 1998, Gaussian, Inc.),
 the Gaussian(R) 94 system (copyright 1995, Gaussian, Inc.),
 the Gaussian 92(TM) system (copyright 1992, Gaussian, Inc.),
 the Gaussian 90(TM) system (copyright 1990, Gaussian, Inc.),
 the Gaussian 88(TM) system (copyright 1988, Gaussian, Inc.),
 the Gaussian 86(TM) system (copyright 1986, Carnegie Mellon
 University), and the Gaussian 82(TM) system (copyright 1983,
 Carnegie Mellon University). Gaussian is a federally registered
 trademark of Gaussian, Inc.
  
 This software contains proprietary and confidential information,
 including trade secrets, belonging to Gaussian, Inc.
  
 This software is provided under written license and may be
 used, copied, transmitted, or stored only in accord with that
 written license.
  
 The following legend is applicable only to US Government
 contracts under FAR:
  
                    RESTRICTED RIGHTS LEGEND
  
 Use, reproduction and disclosure by the US Government is
 subject to restrictions as set forth in subparagraphs (a)
 and (c) of the Commercial Computer Software - Restricted
 Rights clause in FAR 52.227-19.
  
 Gaussian, Inc.
 340 Quinnipiac St., Bldg. 40, Wallingford CT 06492
  
  
 ---------------------------------------------------------------
 Warning -- This program may not be used in any manner that
 competes with the business of Gaussian, Inc. or will provide
 assistance to any competitor of Gaussian, Inc.  The licensee
 of this program is prohibited from giving any competitor of
 Gaussian, Inc. access to this program.  By using this program,
 the user acknowledges that Gaussian, Inc. is engaged in the
 business of creating and licensing software in the field of
 computational chemistry and represents and warrants to the
 licensee that it is not a competitor of Gaussian, Inc. and that
 it will not use this program in any manner prohibited above.
 ---------------------------------------------------------------
  

 Cite this work as:
 Gaussian 09, Revision D.01,
 M. J. Frisch, G. W. Trucks, H. B. Schlegel, G. E. Scuseria, 
 M. A. Robb, J. R. Cheeseman, G. Scalmani, V. Barone, B. Mennucci, 
 G. A. Petersson, H. Nakatsuji, M. Caricato, X. Li, H. P. Hratchian, 
 A. F. Izmaylov, J. Bloino, G. Zheng, J. L. Sonnenberg, M. Hada, 
 M. Ehara, K. Toyota, R. Fukuda, J. Hasegawa, M. Ishida, T. Nakajima, 
 Y. Honda, O. Kitao, H. Nakai, T. Vreven, J. A. Montgomery, Jr., 
 J. E. Peralta, F. Ogliaro, M. Bearpark, J. J. Heyd, E. Brothers, 
 K. N. Kudin, V. N. Staroverov, T. Keith, R. Kobayashi, J. Normand, 
 K. Raghavachari, A. Rendell, J. C. Burant, S. S. Iyengar, J. Tomasi, 
 M. Cossi, N. Rega, J. M. Millam, M. Klene, J. E. Knox, J. B. Cross, 
 V. Bakken, C. Adamo, J. Jaramillo, R. Gomperts, R. E. Stratmann, 
 O. Yazyev, A. J. Austin, R. Cammi, C. Pomelli, J. W. Ochterski, 
 R. L. Martin, K. Morokuma, V. G. Zakrzewski, G. A. Voth, 
 P. Salvador, J. J. Dannenberg, S. Dapprich, A. D. Daniels, 
 O. Farkas, J. B. Foresman, J. V. Ortiz, J. Cioslowski, 
 and D. J. Fox, Gaussian, Inc., Wallingford CT, 2013.
 
 ******************************************
 Gaussian 09:  ES64L-G09RevD.01 24-Apr-2013
                 4-Jan-2016 
 ******************************************
 ----------------------------
 #P AM1(Input,print) Opt Freq
 ----------------------------
 1/14=-1,18=20,19=15,26=1,38=1/1,3;
 2/9=110,12=2,17=6,18=5,40=1/2;
 3/5=2,16=1,25=1,41=700000,71=1,135=100,136=1/1,2,3;
 4/35=1/1;
 5/5=2,35=1,38=5/2;
 6/7=2,8=2,9=2,10=2,28=1/1;
 7//1,2,3,16;
 1/14=-1,18=20,19=15,26=1/3(2);
 2/9=110/2;
 99//99;
 2/9=110/2;
 3/5=2,16=1,25=1,41=700000,71=1,135=20,136=1/1,2,3;
 4/5=5,16=3,35=1/1;
 5/5=2,35=1,38=5/2;
 7//1,2,3,16;
 1/14=-1,18=20,19=15,26=1/3(-5);
 2/9=110/2;
 6/7=2,8=2,9=2,10=2,19=2,28=1/1;
 99/9=1/99;
 Leave Link    1 at Mon Jan  4 00:00:53 2016, MaxMem=           0 cpu:         0.0
 (Enter /opt/g09/g09/l101.exe)
 -----------------
 AM1-Reparam Input
 -----------------
 Symbolic Z-matrix:
 Charge =  0 Multiplicity = 1
 6                     0.9681   -0.57601  -0.00341 
 6                    -0.44772  -1.28593  -0.23301 
 8                    -1.27996  -0.1704   -0.23276 
 6                    -0.21742   0.97446  -0.01341 
 6                     0.80531   0.55575   0.20106 
 1                     1.76494   1.4773    0.03192 
 1                    -1.06254   1.95842  -0.07111 
 1                    -0.67771  -1.87158  -0.12718 
 1                     1.87704  -1.58427  -0.17144 
 
 Add virtual bond connecting atoms H6         and C5         Dist= 2.53D+00.
 Add virtual bond connecting atoms H9         and C1         Dist= 2.58D+00.
 NAtoms=      9 NQM=        9 NQMF=       0 NMMI=      0 NMMIF=      0
                NMic=       0 NMicF=      0.
                    Isotopes and Nuclear Properties:
 (Nuclear quadrupole moments (NQMom) in fm**2, nuclear magnetic moments (NMagM)
  in nuclear magnetons)

  Atom         1           2           3           4           5           6           7           8           9
 IAtWgt=          12          12          16          12          12           1           1           1           1
 AtmWgt=  12.0000000  12.0000000  15.9949146  12.0000000  12.0000000   1.0078250   1.0078250   1.0078250   1.0078250
 NucSpn=           0           0           0           0           0           1           1           1           1
 AtZEff=   0.0000000   0.0000000   0.0000000   0.0000000   0.0000000   0.0000000   0.0000000   0.0000000   0.0000000
 NQMom=    0.0000000   0.0000000   0.0000000   0.0000000   0.0000000   0.0000000   0.0000000   0.0000000   0.0000000
 NMagM=    0.0000000   0.0000000   0.0000000   0.0000000   0.0000000   2.7928460   2.7928460   2.7928460   2.7928460
 AtZNuc=   6.0000000   6.0000000   8.0000000   6.0000000   6.0000000   1.0000000   1.0000000   1.0000000   1.0000000
 Leave Link  101 at Mon Jan  4 00:00:53 2016, MaxMem=    33554432 cpu:         0.0
 (Enter /opt/g09/g09/l103.exe)

 GradGradGradGradGradGradGradGradGradGradGradGradGradGradGradGradGradGrad
 Berny optimization.
 Initialization pass.
                           ----------------------------
                           !    Initial Parameters    !
                           ! (Angstroms and Degrees)  !
 --------------------------                            --------------------------
 ! Name  Definition              Value          Derivative Info.                !
 --------------------------------------------------------------------------------
 ! R1    R(1,2)                  1.6004         estimate D2E/DX2                !
 ! R2    R(1,5)                  1.1615         estimate D2E/DX2                !
 ! R3    R(1,9)                  1.3678         estimate D2E/DX2                !
 ! R4    R(2,3)                  1.3918         estimate D2E/DX2                !
 ! R5    R(2,8)                  0.638          estimate D2E/DX2                !
 ! R6    R(3,4)                  1.5773         estimate D2E/DX2                !
 ! R7    R(4,5)                  1.1257         estimate D2E/DX2                !
 ! R8    R(4,7)                  1.2984         estimate D2E/DX2                !
 ! R9    R(5,6)                  1.3412         estimate D2E/DX2                !
 ! A1    A(2,1,5)              109.4804         estimate D2E/DX2                !
 ! A2    A(2,1,9)              104.0792         estimate D2E/DX2                !
 ! A3    A(5,1,9)              146.4052         estimate D2E/DX2                !
 ! A4    A(1,2,3)               99.9879         estimate D2E/DX2                !
 ! A5    A(1,2,8)              134.61           estimate D2E/DX2                !
 ! A6    A(3,2,8)              121.3408         estimate D2E/DX2                !
 ! A7    A(2,3,4)              100.3099         estimate D2E/DX2                !
 ! A8    A(3,4,5)              111.6252         estimate D2E/DX2                !
 ! A9    A(3,4,7)               96.0506         estimate D2E/DX2                !
 ! A10   A(5,4,7)              151.8477         estimate D2E/DX2                !
 ! A11   A(1,5,4)              117.1418         estimate D2E/DX2                !
 ! A12   A(1,5,6)              123.1626         estimate D2E/DX2                !
 ! A13   A(4,5,6)              111.7434         estimate D2E/DX2                !
 ! D1    D(5,1,2,3)              6.4233         estimate D2E/DX2                !
 ! D2    D(5,1,2,8)           -149.8657         estimate D2E/DX2                !
 ! D3    D(9,1,2,3)           -172.0155         estimate D2E/DX2                !
 ! D4    D(9,1,2,8)             31.6955         estimate D2E/DX2                !
 ! D5    D(2,1,5,4)            -12.7682         estimate D2E/DX2                !
 ! D6    D(2,1,5,6)           -159.1016         estimate D2E/DX2                !
 ! D7    D(9,1,5,4)            164.4944         estimate D2E/DX2                !
 ! D8    D(9,1,5,6)             18.161          estimate D2E/DX2                !
 ! D9    D(1,2,3,4)              0.2543         estimate D2E/DX2                !
 ! D10   D(8,2,3,4)            160.6708         estimate D2E/DX2                !
 ! D11   D(2,3,4,5)             -7.248          estimate D2E/DX2                !
 ! D12   D(2,3,4,7)            178.0125         estimate D2E/DX2                !
 ! D13   D(3,4,5,1)             13.1903         estimate D2E/DX2                !
 ! D14   D(3,4,5,6)            163.2159         estimate D2E/DX2                !
 ! D15   D(7,4,5,1)           -177.9515         estimate D2E/DX2                !
 ! D16   D(7,4,5,6)            -27.9258         estimate D2E/DX2                !
 --------------------------------------------------------------------------------
 Trust Radius=3.00D-01 FncErr=1.00D-07 GrdErr=1.00D-07
 Number of steps in this run=     48 maximum allowed number of steps=    100.
 GradGradGradGradGradGradGradGradGradGradGradGradGradGradGradGradGradGrad

 Leave Link  103 at Mon Jan  4 00:00:53 2016, MaxMem=    33554432 cpu:         0.0
 (Enter /opt/g09/g09/l202.exe)
                          Input orientation:                          
 ---------------------------------------------------------------------
 Center     Atomic      Atomic             Coordinates (Angstroms)
 Number     Number       Type             X           Y           Z
 ---------------------------------------------------------------------
      1          6           0        0.968101   -0.576005   -0.003407
      2          6           0       -0.447715   -1.285927   -0.233010
      3          8           0       -1.279961   -0.170404   -0.232755
      4          6           0       -0.217419    0.974460   -0.013408
      5          6           0        0.805308    0.555752    0.201062
      6          1           0        1.764944    1.477300    0.031922
      7          1           0       -1.062544    1.958418   -0.071108
      8          1           0       -0.677709   -1.871582   -0.127176
      9          1           0        1.877037   -1.584265   -0.171436
 ---------------------------------------------------------------------
                    Distance matrix (angstroms):
                    1          2          3          4          5
     1  C    0.000000
     2  C    1.600388   0.000000
     3  O    2.295843   1.391770   0.000000
     4  C    1.951794   2.282676   1.577283   0.000000
     5  C    1.161543   2.269420   2.250299   1.125737   0.000000
     6  H    2.202786   3.549855   3.472237   2.045646   1.341179
     7  H    3.248292   3.306055   2.145992   1.298360   2.351684
     8  H    2.098220   0.638036   1.807723   2.885267   2.863395
     9  H    1.367840   2.344626   3.459682   3.310407   2.422195
                    6          7          8          9
     6  H    0.000000
     7  H    2.869979   0.000000
     8  H    4.148117   3.849694   0.000000
     9  H    3.070358   4.604542   2.571233   0.000000
 Stoichiometry    C4H4O
 Framework group  C1[X(C4H4O)]
 Deg. of freedom    21
 Full point group                 C1      NOp   1
 Largest Abelian subgroup         C1      NOp   1
 Largest concise Abelian subgroup C1      NOp   1
                         Standard orientation:                         
 ---------------------------------------------------------------------
 Center     Atomic      Atomic             Coordinates (Angstroms)
 Number     Number       Type             X           Y           Z
 ---------------------------------------------------------------------
      1          6           0        0.495635    1.010676    0.006347
      2          6           0       -1.070291    0.680492    0.016031
      3          8           0       -1.023680   -0.710495    0.018525
      4          6           0        0.536719   -0.940657    0.016873
      5          6           0        1.098461    0.025586   -0.117681
      6          1           0        2.386799   -0.095465    0.234869
      7          1           0        0.483881   -2.237082    0.064104
      8          1           0       -1.595579    0.994614   -0.164221
      9          1           0        0.551192    2.365311    0.187633
 ---------------------------------------------------------------------
 Rotational constants (GHZ):     10.4687878      8.3272707      4.6623242
 Leave Link  202 at Mon Jan  4 00:00:53 2016, MaxMem=    33554432 cpu:         0.0
 (Enter /opt/g09/g09/l301.exe)

 Semi-emprical parameters in input format:
 Method=8 CoreType=1 PeptideFC=0.0136940000 RIJScale=0.5272610000
 ****
 H       
 PQN=1 NValence=1 F0ss=0.5869070000 ZetaOverlap=0.9596440000 U=-0.4029700000
 Beta=-0.2017900000 CoreKO=0.4792760000 KON=0,0,0,1.1325480000 KON=1,0,1,0.9058290000
 KON=0,1,1,1.0997000000 KON=2,1,1,0.9156270000 EISol=-0.4188110042 EHeat=0.0830298228
 Alpha=1.9582710000
 GCore=0.0188990000,3.6287890000,2.2050280000
 GCore=0.0002310000,1.0608980000,2.8139770000
 GCore=-0.0011700000,0.4916610000,2.7132540000
 ****
 C       
 PQN=2,2 NValence=4 F0ss=0.3018470000 F0sp=0.4514830000 F0pp=0.3678470000 F2pp=0.2061660000
 G1sp=0.3070490000
 ZetaOverlap=1.9758830000,1.4400540000
 U=-1.9180320000,-1.6254890000
 Beta=-0.4665340000,-0.3733160000 DDN=0,1,0.8057690000 DDN=1,1,0.7014380000
 CoreKO=1.0606820000 KON=0,0,0,1.0668320000 KON=1,0,1,0.4937940000 KON=0,1,1,1.1823630000
 KON=2,1,1,0.5284590000 EISol=-4.4398989268 EHeat=0.2723305520 Alpha=1.2950990000
 DipHyp=1.6114452868
 GCore=0.0005110000,1.3354630000,3.2020660000
 GCore=0.0032740000,1.1260560000,2.7406040000
 GCore=-0.0009280000,1.5680380000,3.6330950000
 GCore=-0.0000520000,1.1773640000,4.8860460000
 ****
 O       
 PQN=2,2 NValence=6 F0ss=0.3448400000 F0sp=0.5282430000 F0pp=0.4200240000 F2pp=0.2360760000
 G1sp=0.5271590000
 ZetaOverlap=2.8692740000,2.9346140000
 U=-3.4177220000,-2.7747240000
 Beta=-1.1712780000,-1.4677810000 DDN=0,1,0.4306600000 DDN=1,1,0.5501900000
 CoreKO=0.7836610000 KON=0,0,0,0.7947420000 KON=1,0,1,0.3172350000 KON=0,1,1,0.8788250000
 KON=2,1,1,0.5349570000 EISol=-11.6164441184 EHeat=0.0949133088 Alpha=2.0895280000
 DipHyp=0.8612704475
 GCore=0.0094300000,1.0884620000,2.0040020000
 GCore=0.0035280000,1.9597990000,2.2706830000
 ****
 
 Standard basis: VSTO-6G (5D, 7F)
 Ernie: Thresh=  0.10000D-02 Tol=  0.10000D-05 Strict=F.
  NNHCO=     0 NNPyr=     0 NCTC=     0               EPep=         0.000000000
    EC=        71.019527594  ECS=         2.890830639   EG=         0.347845606
   EHC=         0.000000000  EAt=       -31.051283842  AtH=         1.516354808
 EPDDG=         0.000000000  ECC=        74.258203840 EAtT=        32.567638650
 There are    24 symmetry adapted cartesian basis functions of A   symmetry.
 There are    24 symmetry adapted basis functions of A   symmetry.
    24 basis functions,   144 primitive gaussians,    24 cartesian basis functions
    13 alpha electrons       13 beta electrons
       nuclear repulsion energy       106.8258424900 Hartrees.
 IExCor=    0 DFT=F Ex=HF Corr=None ExCW=0 ScaHFX=  1.000000
 ScaDFX=  1.000000  1.000000  1.000000  1.000000 ScalE2=  1.000000  1.000000
 IRadAn=      0 IRanWt=     -1 IRanGd=            0 ICorTp=0 IEmpDi=  4
 Integral buffers will be    131072 words long.
 Regular integral format.
 Two-electron integral symmetry is turned off.
 Leave Link  301 at Mon Jan  4 00:00:53 2016, MaxMem=    33554432 cpu:         0.0
 (Enter /opt/g09/g09/l302.exe)
 Do NDO integrals.
 NPDir=0 NMtPBC=     1 NCelOv=     1 NCel=       1 NClECP=     1 NCelD=      1
         NCelK=      1 NCelE2=     1 NClLst=     1 CellRange=     0.0.
 One-electron integrals computed using PRISM.
 NBasis=    24 RedAO= F EigKep=  0.00D+00  NBF=    24
 NBsUse=    24 1.00D-04 EigRej=  0.00D+00 NBFU=    24
 Leave Link  302 at Mon Jan  4 00:00:53 2016, MaxMem=    33554432 cpu:         0.0
 (Enter /opt/g09/g09/l303.exe)
 DipDrv:  MaxL=1.
 Leave Link  303 at Mon Jan  4 00:00:53 2016, MaxMem=    33554432 cpu:         0.0
 (Enter /opt/g09/g09/l401.exe)
 Simple Huckel Guess.
 JPrj=0 DoOrth=F DoCkMO=F.
 Leave Link  401 at Mon Jan  4 00:00:53 2016, MaxMem=    33554432 cpu:         0.0
 (Enter /opt/g09/g09/l502.exe)
 Closed shell SCF:
 Using DIIS extrapolation, IDIIS=  1040.
 Overlap will be assumed to be unity.
 Two-electron integral symmetry not used.
 Keep J ints in memory in canonical form, NReq=888082.
 IVT=       79475 IEndB=       79475 NGot=    33554432 MDV=    33473473
 LenX=    33473473 LenY=    33472456
 Requested convergence on RMS density matrix=1.00D-08 within 128 cycles.
 Requested convergence on MAX density matrix=1.00D-06.
 Requested convergence on             energy=1.00D-06.
 No special actions if energy rises.
 FoFCou: FMM=F IPFlag=           0 FMFlag=           0 FMFlg1=           0
         NFxFlg=           0 DoJE=F BraDBF=F KetDBF=F FulRan=T
         wScrn=  0.000000 ICntrl=     600 IOpCl=  2 I1Cent=           0 NGrid=           0
         NMat0=    1 NMatS0=     54 NMatT0=    0 NMatD0=    1 NMtDS0=    0 NMtDT0=    0
 Symmetry not used in FoFCou.

 Cycle   1  Pass 1  IDiag  1:
 E= -1.33978328368819    
 DIIS: error= 1.02D-01 at cycle   1 NSaved=   1.
 NSaved= 1 IEnMin= 1 EnMin= -1.33978328368819     IErMin= 1 ErrMin= 1.02D-01
 ErrMax= 1.02D-01  0.00D+00 EMaxC= 1.00D-01 BMatC= 2.44D-01 BMatP= 2.44D-01
 IDIUse=3 WtCom= 0.00D+00 WtEn= 1.00D+00
 Coeff-Com:  0.100D+01
 Coeff-En:   0.100D+01
 Coeff:      0.100D+01
 GapD=    2.000 DampG=2.000 DampE=0.250 DampFc=0.5000 IDamp=-1.
 Damping current iteration by 5.00D-01
 RMSDP=3.57D-02 MaxDP=2.94D-01              OVMax= 0.00D+00

 Cycle   2  Pass 1  IDiag  1:
 E= -1.67580826491835     Delta-E=       -0.336024981230 Rises=F Damp=T
 DIIS: error= 6.18D-02 at cycle   2 NSaved=   2.
 NSaved= 2 IEnMin= 2 EnMin= -1.67580826491835     IErMin= 2 ErrMin= 6.18D-02
 ErrMax= 6.18D-02  0.00D+00 EMaxC= 1.00D-01 BMatC= 9.62D-02 BMatP= 2.44D-01
 IDIUse=3 WtCom= 3.82D-01 WtEn= 6.18D-01
 Coeff-Com: -0.160D+01 0.260D+01
 Coeff-En:   0.000D+00 0.100D+01
 Coeff:     -0.612D+00 0.161D+01
 RMSDP=2.43D-02 MaxDP=1.89D-01 DE=-3.36D-01 OVMax= 0.00D+00

 Cycle   3  Pass 1  IDiag  1:
 E= -2.13231034962435     Delta-E=       -0.456502084706 Rises=F Damp=F
 DIIS: error= 1.66D-02 at cycle   3 NSaved=   3.
 NSaved= 3 IEnMin= 3 EnMin= -2.13231034962435     IErMin= 3 ErrMin= 1.66D-02
 ErrMax= 1.66D-02  0.00D+00 EMaxC= 1.00D-01 BMatC= 4.43D-03 BMatP= 9.62D-02
 IDIUse=3 WtCom= 8.34D-01 WtEn= 1.66D-01
 Coeff-Com:  0.971D+00-0.192D+01 0.195D+01
 Coeff-En:   0.000D+00 0.000D+00 0.100D+01
 Coeff:      0.810D+00-0.160D+01 0.179D+01
 RMSDP=6.27D-03 MaxDP=4.40D-02 DE=-4.57D-01 OVMax= 0.00D+00

 Cycle   4  Pass 1  IDiag  3:
 E= -2.14715130617827     Delta-E=       -0.014840956554 Rises=F Damp=F
 DIIS: error= 1.72D-03 at cycle   4 NSaved=   4.
 NSaved= 4 IEnMin= 4 EnMin= -2.14715130617827     IErMin= 4 ErrMin= 1.72D-03
 ErrMax= 1.72D-03  0.00D+00 EMaxC= 1.00D-01 BMatC= 6.35D-05 BMatP= 4.43D-03
 IDIUse=3 WtCom= 9.83D-01 WtEn= 1.72D-02
 Coeff-Com: -0.634D-01 0.146D+00-0.318D+00 0.123D+01
 Coeff-En:   0.000D+00 0.000D+00 0.000D+00 0.100D+01
 Coeff:     -0.623D-01 0.144D+00-0.312D+00 0.123D+01
 Gap=     0.348 Goal=   None    Shift=    0.000
 RMSDP=8.49D-04 MaxDP=5.01D-03 DE=-1.48D-02 OVMax= 4.34D-03

 Cycle   5  Pass 1  IDiag  3:
 E= -2.14741802128449     Delta-E=       -0.000266715106 Rises=F Damp=F
 DIIS: error= 4.53D-04 at cycle   5 NSaved=   5.
 NSaved= 5 IEnMin= 5 EnMin= -2.14741802128449     IErMin= 5 ErrMin= 4.53D-04
 ErrMax= 4.53D-04  0.00D+00 EMaxC= 1.00D-01 BMatC= 5.33D-06 BMatP= 6.35D-05
 IDIUse=3 WtCom= 9.95D-01 WtEn= 4.53D-03
 Coeff-Com:  0.183D-01-0.395D-01 0.967D-01-0.637D+00 0.156D+01
 Coeff-En:   0.000D+00 0.000D+00 0.000D+00 0.000D+00 0.100D+01
 Coeff:      0.182D-01-0.394D-01 0.962D-01-0.634D+00 0.156D+01
 Gap=     0.348 Goal=   None    Shift=    0.000
 RMSDP=3.15D-04 MaxDP=1.81D-03 DE=-2.67D-04 OVMax= 2.13D-03

 Cycle   6  Pass 1  IDiag  3:
 E= -2.14744645895728     Delta-E=       -0.000028437673 Rises=F Damp=F
 DIIS: error= 1.12D-04 at cycle   6 NSaved=   6.
 NSaved= 6 IEnMin= 6 EnMin= -2.14744645895728     IErMin= 6 ErrMin= 1.12D-04
 ErrMax= 1.12D-04  0.00D+00 EMaxC= 1.00D-01 BMatC= 4.03D-07 BMatP= 5.33D-06
 IDIUse=3 WtCom= 9.99D-01 WtEn= 1.12D-03
 Coeff-Com: -0.114D-03-0.200D-03-0.936D-02 0.172D+00-0.689D+00 0.153D+01
 Coeff-En:   0.000D+00 0.000D+00 0.000D+00 0.000D+00 0.000D+00 0.100D+01
 Coeff:     -0.114D-03-0.199D-03-0.935D-02 0.172D+00-0.689D+00 0.153D+01
 Gap=     0.348 Goal=   None    Shift=    0.000
 RMSDP=1.03D-04 MaxDP=6.05D-04 DE=-2.84D-05 OVMax= 8.64D-04

 Cycle   7  Pass 1  IDiag  3:
 E= -2.14744883130301     Delta-E=       -0.000002372346 Rises=F Damp=F
 DIIS: error= 2.18D-05 at cycle   7 NSaved=   7.
 NSaved= 7 IEnMin= 7 EnMin= -2.14744883130301     IErMin= 7 ErrMin= 2.18D-05
 ErrMax= 2.18D-05  0.00D+00 EMaxC= 1.00D-01 BMatC= 2.48D-08 BMatP= 4.03D-07
 IDIUse=1 WtCom= 1.00D+00 WtEn= 0.00D+00
 Coeff-Com: -0.370D-02 0.717D-02-0.722D-02 0.271D-02 0.528D-01-0.359D+00
 Coeff-Com:  0.131D+01
 Coeff:     -0.370D-02 0.717D-02-0.722D-02 0.271D-02 0.528D-01-0.359D+00
 Coeff:      0.131D+01
 Gap=     0.348 Goal=   None    Shift=    0.000
 RMSDP=2.39D-05 MaxDP=1.64D-04 DE=-2.37D-06 OVMax= 2.37D-04

 Cycle   8  Pass 1  IDiag  3:
 E= -2.14744896747553     Delta-E=       -0.000000136173 Rises=F Damp=F
 DIIS: error= 7.29D-06 at cycle   8 NSaved=   8.
 NSaved= 8 IEnMin= 8 EnMin= -2.14744896747553     IErMin= 8 ErrMin= 7.29D-06
 ErrMax= 7.29D-06  0.00D+00 EMaxC= 1.00D-01 BMatC= 2.38D-09 BMatP= 2.48D-08
 IDIUse=1 WtCom= 1.00D+00 WtEn= 0.00D+00
 Coeff-Com:  0.808D-04-0.168D-03 0.106D-02-0.136D-01 0.409D-01-0.376D-02
 Coeff-Com: -0.456D+00 0.143D+01
 Coeff:      0.808D-04-0.168D-03 0.106D-02-0.136D-01 0.409D-01-0.376D-02
 Coeff:     -0.456D+00 0.143D+01
 Gap=     0.348 Goal=   None    Shift=    0.000
 RMSDP=7.70D-06 MaxDP=6.19D-05 DE=-1.36D-07 OVMax= 9.23D-05

 Cycle   9  Pass 1  IDiag  3:
 E= -2.14744898067983     Delta-E=       -0.000000013204 Rises=F Damp=F
 DIIS: error= 2.66D-06 at cycle   9 NSaved=   9.
 NSaved= 9 IEnMin= 9 EnMin= -2.14744898067983     IErMin= 9 ErrMin= 2.66D-06
 ErrMax= 2.66D-06  0.00D+00 EMaxC= 1.00D-01 BMatC= 1.74D-10 BMatP= 2.38D-09
 IDIUse=1 WtCom= 1.00D+00 WtEn= 0.00D+00
 Coeff-Com:  0.125D-03-0.243D-03-0.193D-03 0.721D-02-0.267D-01 0.357D-01
 Coeff-Com:  0.985D-01-0.655D+00 0.154D+01
 Coeff:      0.125D-03-0.243D-03-0.193D-03 0.721D-02-0.267D-01 0.357D-01
 Coeff:      0.985D-01-0.655D+00 0.154D+01
 Gap=     0.348 Goal=   None    Shift=    0.000
 RMSDP=2.12D-06 MaxDP=1.43D-05 DE=-1.32D-08 OVMax= 2.37D-05

 Cycle  10  Pass 1  IDiag  3:
 E= -2.14744898154839     Delta-E=       -0.000000000869 Rises=F Damp=F
 DIIS: error= 3.99D-07 at cycle  10 NSaved=  10.
 NSaved=10 IEnMin=10 EnMin= -2.14744898154839     IErMin=10 ErrMin= 3.99D-07
 ErrMax= 3.99D-07  0.00D+00 EMaxC= 1.00D-01 BMatC= 6.96D-12 BMatP= 1.74D-10
 IDIUse=1 WtCom= 1.00D+00 WtEn= 0.00D+00
 Coeff-Com:  0.239D-04-0.477D-04 0.188D-03-0.233D-02 0.815D-02-0.122D-01
 Coeff-Com: -0.147D-01 0.170D+00-0.552D+00 0.140D+01
 Coeff:      0.239D-04-0.477D-04 0.188D-03-0.233D-02 0.815D-02-0.122D-01
 Coeff:     -0.147D-01 0.170D+00-0.552D+00 0.140D+01
 Gap=     0.348 Goal=   None    Shift=    0.000
 RMSDP=3.22D-07 MaxDP=1.56D-06 DE=-8.69D-10 OVMax= 1.99D-06

 Cycle  11  Pass 1  IDiag  3:
 E= -2.14744898157954     Delta-E=       -0.000000000031 Rises=F Damp=F
 DIIS: error= 6.49D-08 at cycle  11 NSaved=  11.
 NSaved=11 IEnMin=11 EnMin= -2.14744898157954     IErMin=11 ErrMin= 6.49D-08
 ErrMax= 6.49D-08  0.00D+00 EMaxC= 1.00D-01 BMatC= 3.64D-13 BMatP= 6.96D-12
 IDIUse=1 WtCom= 1.00D+00 WtEn= 0.00D+00
 Coeff-Com: -0.590D-05 0.124D-04-0.541D-04 0.670D-03-0.233D-02 0.356D-02
 Coeff-Com:  0.256D-02-0.453D-01 0.166D+00-0.592D+00 0.147D+01
 Coeff:     -0.590D-05 0.124D-04-0.541D-04 0.670D-03-0.233D-02 0.356D-02
 Coeff:      0.256D-02-0.453D-01 0.166D+00-0.592D+00 0.147D+01
 Gap=     0.348 Goal=   None    Shift=    0.000
 RMSDP=8.77D-08 MaxDP=3.87D-07 DE=-3.12D-11 OVMax= 6.99D-07

 Cycle  12  Pass 1  IDiag  3:
 E= -2.14744898158142     Delta-E=       -0.000000000002 Rises=F Damp=F
 DIIS: error= 2.02D-08 at cycle  12 NSaved=  12.
 NSaved=12 IEnMin=12 EnMin= -2.14744898158142     IErMin=12 ErrMin= 2.02D-08
 ErrMax= 2.02D-08  0.00D+00 EMaxC= 1.00D-01 BMatC= 2.44D-14 BMatP= 3.64D-13
 IDIUse=1 WtCom= 1.00D+00 WtEn= 0.00D+00
 Coeff-Com:  0.603D-06-0.140D-05 0.929D-05-0.132D-03 0.485D-03-0.875D-03
 Coeff-Com:  0.842D-03 0.614D-02-0.351D-01 0.184D+00-0.686D+00 0.153D+01
 Coeff:      0.603D-06-0.140D-05 0.929D-05-0.132D-03 0.485D-03-0.875D-03
 Coeff:      0.842D-03 0.614D-02-0.351D-01 0.184D+00-0.686D+00 0.153D+01
 Gap=     0.348 Goal=   None    Shift=    0.000
 RMSDP=2.68D-08 MaxDP=1.55D-07 DE=-1.88D-12 OVMax= 2.46D-07

 Cycle  13  Pass 1  IDiag  3:
 E= -2.14744898158166     Delta-E=        0.000000000000 Rises=F Damp=F
 DIIS: error= 5.64D-09 at cycle  13 NSaved=  13.
 NSaved=13 IEnMin=13 EnMin= -2.14744898158166     IErMin=13 ErrMin= 5.64D-09
 ErrMax= 5.64D-09  0.00D+00 EMaxC= 1.00D-01 BMatC= 1.35D-15 BMatP= 2.44D-14
 IDIUse=1 WtCom= 1.00D+00 WtEn= 0.00D+00
 Coeff-Com: -0.940D-07 0.278D-06-0.310D-05 0.477D-04-0.174D-03 0.306D-03
 Coeff-Com: -0.364D-03-0.200D-02 0.127D-01-0.735D-01 0.298D+00-0.826D+00
 Coeff-Com:  0.159D+01
 Coeff:     -0.940D-07 0.278D-06-0.310D-05 0.477D-04-0.174D-03 0.306D-03
 Coeff:     -0.364D-03-0.200D-02 0.127D-01-0.735D-01 0.298D+00-0.826D+00
 Coeff:      0.159D+01
 Gap=     0.348 Goal=   None    Shift=    0.000
 RMSDP=6.69D-09 MaxDP=4.36D-08 DE=-2.42D-13 OVMax= 5.95D-08

 Cycle  14  Pass 2  IDiag  1:
 SCF Done:  E(RAM1) =  -2.14744898158     A.U. after   14 cycles
            NFock= 13  Conv=0.67D-08     -V/T= 0.8872
 KE=-1.903113248606D+01 PE=-1.739100581939D+02 EE= 8.396789920839D+01
 Leave Link  502 at Mon Jan  4 00:00:53 2016, MaxMem=    33554432 cpu:         0.0
 (Enter /opt/g09/g09/l601.exe)
 Copying SCF densities to generalized density rwf, IOpCl= 0 IROHF=0.

 **********************************************************************

            Population analysis using the SCF density.

 **********************************************************************

 Orbital symmetries:
       Occupied  (A) (A) (A) (A) (A) (A) (A) (A) (A) (A) (A) (A)
                 (A)
       Virtual   (A) (A) (A) (A) (A) (A) (A) (A) (A) (A) (A)
 The electronic state is 1-A.
 Alpha  occ. eigenvalues --   -1.70564  -1.48110  -1.25051  -1.16328  -1.05323
 Alpha  occ. eigenvalues --   -0.92967  -0.89543  -0.78187  -0.72983  -0.69552
 Alpha  occ. eigenvalues --   -0.67326  -0.61161  -0.53175
 Alpha virt. eigenvalues --   -0.18355  -0.07558  -0.04724  -0.01783   0.01418
 Alpha virt. eigenvalues --    0.02449   0.03852   0.04638   0.05817   0.09803
 Alpha virt. eigenvalues --    0.11522
          Condensed to atoms (all electrons):
               1          2          3          4          5          6
     1  C    4.731379   0.000000   0.000000   0.000000   0.000000   0.000000
     2  C    0.000000   4.503810   0.000000   0.000000   0.000000   0.000000
     3  O    0.000000   0.000000   6.425243   0.000000   0.000000   0.000000
     4  C    0.000000   0.000000   0.000000   4.406695   0.000000   0.000000
     5  C    0.000000   0.000000   0.000000   0.000000   4.540701   0.000000
     6  H    0.000000   0.000000   0.000000   0.000000   0.000000   0.332494
     7  H    0.000000   0.000000   0.000000   0.000000   0.000000   0.000000
     8  H    0.000000   0.000000   0.000000   0.000000   0.000000   0.000000
     9  H    0.000000   0.000000   0.000000   0.000000   0.000000   0.000000
               7          8          9
     1  C    0.000000   0.000000   0.000000
     2  C    0.000000   0.000000   0.000000
     3  O    0.000000   0.000000   0.000000
     4  C    0.000000   0.000000   0.000000
     5  C    0.000000   0.000000   0.000000
     6  H    0.000000   0.000000   0.000000
     7  H    0.351417   0.000000   0.000000
     8  H    0.000000   0.348769   0.000000
     9  H    0.000000   0.000000   0.359492
 Mulliken charges:
               1
     1  C   -0.731379
     2  C   -0.503810
     3  O   -0.425243
     4  C   -0.406695
     5  C   -0.540701
     6  H    0.667506
     7  H    0.648583
     8  H    0.651231
     9  H    0.640508
 Sum of Mulliken charges =   0.00000
 Mulliken charges with hydrogens summed into heavy atoms:
               1
     1  C   -0.090871
     2  C    0.147421
     3  O   -0.425243
     4  C    0.241888
     5  C    0.126805
 Charge=              0.0000 electrons
 Dipole moment (field-independent basis, Debye):
    X=              5.3114    Y=              0.8395    Z=              1.1523  Tot=              5.4994
 N-N= 1.068258424900D+02 E-N=-1.739100582072D+02  KE=-1.903113248606D+01
 Leave Link  601 at Mon Jan  4 00:00:53 2016, MaxMem=    33554432 cpu:         0.0
 (Enter /opt/g09/g09/l701.exe)
 Compute integral first derivatives.
 ... and contract with generalized density number  0.
 Leave Link  701 at Mon Jan  4 00:00:53 2016, MaxMem=    33554432 cpu:         0.0
 (Enter /opt/g09/g09/l702.exe)
 L702 exits ... SP integral derivatives will be done elsewhere.
 Leave Link  702 at Mon Jan  4 00:00:53 2016, MaxMem=    33554432 cpu:         0.0
 (Enter /opt/g09/g09/l703.exe)
 Compute integral first derivatives, UseDBF=F ICtDFT=           0.
 Integral derivatives from FoFJK, PRISM(SPDF).
 Calling FoFJK, ICntrl=      2127 FMM=F ISym2X=0 I1Cent= 0 IOpClX= 0 NMat=1 NMatS=1 NMatT=0.
 FoFJK:  IHMeth= 8 ICntrl=    2127 DoSepK=F KAlg= 0 I1Cent=   0 FoldK=F
 IRaf=         0 NMat=   1 IRICut=       1 DoRegI=T DoRafI=F ISym2E= 0.
 FoFCou: FMM=F IPFlag=           0 FMFlag=      100000 FMFlg1=         800
         NFxFlg=           0 DoJE=F BraDBF=F KetDBF=F FulRan=T
         wScrn=  0.000000 ICntrl=    2127 IOpCl=  0 I1Cent=           0 NGrid=           0
         NMat0=    1 NMatS0=      1 NMatT0=    0 NMatD0=    1 NMtDS0=    0 NMtDT0=    0
 Symmetry not used in FoFCou.
 Leave Link  703 at Mon Jan  4 00:00:53 2016, MaxMem=    33554432 cpu:         0.0
 (Enter /opt/g09/g09/l716.exe)
 Dipole        = 2.08966622D+00 3.30294358D-01 4.53368171D-01
 ***** Axes restored to original set *****
 -------------------------------------------------------------------
 Center     Atomic                   Forces (Hartrees/Bohr)
 Number     Number              X              Y              Z
 -------------------------------------------------------------------
      1        6           0.062680093   -0.608139347   -0.086487180
      2        6           0.523772745    1.259204418   -0.158840786
      3        8           0.050154855    0.001763577   -0.001856738
      4        6          -0.522678000    0.283326619   -0.062761739
      5        6           0.374514972    0.281143838    0.085089297
      6        1          -0.025745760   -0.032011331    0.020868553
      7        1           0.039798996   -0.053056552    0.002759415
      8        1          -0.452573188   -1.198543368    0.185030579
      9        1          -0.049924713    0.066312146    0.016198598
 -------------------------------------------------------------------
 Cartesian Forces:  Max     1.259204418 RMS     0.410154625
 Leave Link  716 at Mon Jan  4 00:00:53 2016, MaxMem=    33554432 cpu:         0.0
 (Enter /opt/g09/g09/l103.exe)

 GradGradGradGradGradGradGradGradGradGradGradGradGradGradGradGradGradGrad
 Berny optimization.
 FormGI is forming the generalized inverse of G from B-inverse, IUseBI=4.
 Internal  Forces:  Max     1.293978152 RMS     0.237439432
 Search for a local minimum.
 Step number   1 out of a maximum of   48
 All quantities printed in internal units (Hartrees-Bohrs-Radians)
 RMS Force = .23744D+00 SwitMx=.10000D-02 MixMth= 1
 Mixed Optimization -- RFO/linear search
 Second derivative matrix not updated -- first step.
 ITU=  0
     Eigenvalues ---    0.00861   0.01358   0.04159   0.04522   0.05250
     Eigenvalues ---    0.05785   0.14423   0.14524   0.15577   0.15822
     Eigenvalues ---    0.15983   0.16681   0.18682   0.21913   0.22562
     Eigenvalues ---    0.23621   0.25201   0.44873   1.18431   1.42018
     Eigenvalues ---    2.78685
 RFO step:  Lambda=-7.29400934D-01 EMin= 8.60735602D-03
 Linear search not attempted -- first point.
 Maximum step size (   0.300) exceeded in Quadratic search.
    -- Step size scaled by   0.567
 Iteration  1 RMS(Cart)=  0.04411800 RMS(Int)=  0.00156099
 Iteration  2 RMS(Cart)=  0.00134943 RMS(Int)=  0.00017787
 Iteration  3 RMS(Cart)=  0.00000233 RMS(Int)=  0.00017785
 Iteration  4 RMS(Cart)=  0.00000000 RMS(Int)=  0.00017785
 ITry= 1 IFail=0 DXMaxC= 1.59D-01 DCOld= 1.00D+10 DXMaxT= 3.00D-01 DXLimC= 3.00D+00 Rises=F
 Variable       Old X    -DE/DX   Delta X   Delta X   Delta X     New X
                                 (Linear)    (Quad)   (Total)
    R1        3.02430  -0.07923   0.00000  -0.05280  -0.05302   2.97127
    R2        2.19500   0.44093   0.00000   0.13248   0.13220   2.32720
    R3        2.58484  -0.08404   0.00000  -0.05380  -0.05380   2.53104
    R4        2.63007   0.05777   0.00000   0.01168   0.01184   2.64191
    R5        1.20571   1.29398   0.00000   0.20854   0.20854   1.41425
    R6        2.98063  -0.02885   0.00000  -0.01706  -0.01677   2.96386
    R7        2.12734   0.43988   0.00000   0.11794   0.11794   2.24527
    R8        2.45354  -0.06624   0.00000  -0.04097  -0.04097   2.41258
    R9        2.53446  -0.04305   0.00000  -0.02722  -0.02722   2.50724
    A1        1.91079  -0.05096   0.00000  -0.01878  -0.01924   1.89155
    A2        1.81652   0.03613   0.00000   0.01626   0.01648   1.83301
    A3        2.55525   0.01479   0.00000   0.00251   0.00274   2.55799
    A4        1.74512   0.09488   0.00000   0.02961   0.02956   1.77467
    A5        2.34939  -0.04588   0.00000  -0.01488  -0.01484   2.33455
    A6        2.11780  -0.04036   0.00000  -0.01088  -0.01086   2.10693
    A7        1.75074   0.12290   0.00000   0.04070   0.04131   1.79205
    A8        1.94823  -0.10325   0.00000  -0.04344  -0.04326   1.90496
    A9        1.67640   0.04801   0.00000   0.01888   0.01878   1.69518
   A10        2.65024   0.05649   0.00000   0.02527   0.02518   2.67542
   A11        2.04451  -0.06234   0.00000  -0.00632  -0.00661   2.03790
   A12        2.14959   0.02956   0.00000   0.00426   0.00431   2.15390
   A13        1.95029   0.03728   0.00000   0.00884   0.00898   1.95927
    D1        0.11211   0.00695   0.00000  -0.00064  -0.00066   0.11144
    D2       -2.61565  -0.01843   0.00000  -0.01227  -0.01231  -2.62796
    D3       -3.00224   0.00749   0.00000  -0.00027  -0.00023  -3.00246
    D4        0.55319  -0.01788   0.00000  -0.01190  -0.01187   0.54132
    D5       -0.22285   0.01101   0.00000   0.00752   0.00766  -0.21518
    D6       -2.77685  -0.00771   0.00000  -0.00815  -0.00801  -2.78485
    D7        2.87097   0.00943   0.00000   0.00688   0.00690   2.87787
    D8        0.31697  -0.00930   0.00000  -0.00878  -0.00877   0.30820
    D9        0.00444  -0.00465   0.00000  -0.00273  -0.00291   0.00153
   D10        2.80423   0.00854   0.00000   0.00383   0.00380   2.80803
   D11       -0.12650   0.00762   0.00000   0.00761   0.00749  -0.11901
   D12        3.10690  -0.00580   0.00000   0.00081   0.00085   3.10775
   D13        0.23021  -0.02242   0.00000  -0.01344  -0.01334   0.21687
   D14        2.84866  -0.00364   0.00000  -0.00031  -0.00020   2.84845
   D15       -3.10584  -0.01350   0.00000  -0.00781  -0.00781  -3.11364
   D16       -0.48740   0.00528   0.00000   0.00532   0.00534  -0.48206
         Item               Value     Threshold  Converged?
 Maximum Force            1.293978     0.000450     NO 
 RMS     Force            0.237439     0.000300     NO 
 Maximum Displacement     0.159213     0.001800     NO 
 RMS     Displacement     0.044797     0.001200     NO 
 Predicted change in Energy=-3.293968D-01
 Lowest energy point so far.  Saving SCF results.
 GradGradGradGradGradGradGradGradGradGradGradGradGradGradGradGradGradGrad

 Leave Link  103 at Mon Jan  4 00:00:53 2016, MaxMem=    33554432 cpu:         0.0
 (Enter /opt/g09/g09/l202.exe)
                          Input orientation:                          
 ---------------------------------------------------------------------
 Center     Atomic      Atomic             Coordinates (Angstroms)
 Number     Number       Type             X           Y           Z
 ---------------------------------------------------------------------
      1          6           0        0.988452   -0.615572   -0.013861
      2          6           0       -0.423182   -1.271571   -0.235606
      3          8           0       -1.259278   -0.151101   -0.234803
      4          6           0       -0.251211    1.030421   -0.016370
      5          6           0        0.828365    0.585877    0.204060
      6          1           0        1.786015    1.490706    0.047469
      7          1           0       -1.103671    1.978953   -0.075648
      8          1           0       -0.700831   -1.955834   -0.114031
      9          1           0        1.865383   -1.614132   -0.180527
 ---------------------------------------------------------------------
                    Distance matrix (angstroms):
                    1          2          3          4          5
     1  C    0.000000
     2  C    1.572329   0.000000
     3  O    2.305827   1.398037   0.000000
     4  C    2.060598   2.318794   1.568409   0.000000
     5  C    1.231502   2.282496   2.256987   1.188147   0.000000
     6  H    2.253059   3.548360   3.471170   2.089552   1.326774
     7  H    3.333520   3.324839   2.141653   1.276681   2.398262
     8  H    2.158707   0.748389   1.893016   3.021492   2.983272
     9  H    1.339368   2.314716   3.450639   3.391250   2.462387
                    6          7          8          9
     6  H    0.000000
     7  H    2.933228   0.000000
     8  H    4.253131   3.955541   0.000000
     9  H    3.114209   4.662246   2.589717   0.000000
 Stoichiometry    C4H4O
 Framework group  C1[X(C4H4O)]
 Deg. of freedom    21
 Full point group                 C1      NOp   1
 RotChk:  IX=0 Diff= 2.29D-01
 Largest Abelian subgroup         C1      NOp   1
 Largest concise Abelian subgroup C1      NOp   1
                         Standard orientation:                         
 ---------------------------------------------------------------------
 Center     Atomic      Atomic             Coordinates (Angstroms)
 Number     Number       Type             X           Y           Z
 ---------------------------------------------------------------------
      1          6           0        0.294722    1.120458    0.011560
      2          6           0       -1.153993    0.509385    0.017219
      3          8           0       -0.882705   -0.862076    0.019546
      4          6           0        0.685173   -0.902802    0.017356
      5          6           0        1.103475    0.200921   -0.118701
      6          1           0        2.382267    0.299132    0.220970
      7          1           0        0.810705   -2.172492    0.062550
      8          1           0       -1.824844    0.766027   -0.192969
      9          1           0        0.117252    2.436174    0.188483
 ---------------------------------------------------------------------
 Rotational constants (GHZ):      9.8172308      8.3810819      4.5450888
 Leave Link  202 at Mon Jan  4 00:00:53 2016, MaxMem=    33554432 cpu:         0.0
 (Enter /opt/g09/g09/l301.exe)

 Semi-emprical parameters in input format:
 Method=8 CoreType=1 PeptideFC=0.0136940000 RIJScale=0.5272610000
 ****
 H       
 PQN=1 NValence=1 F0ss=0.5869070000 ZetaOverlap=0.9596440000 U=-0.4029700000
 Beta=-0.2017900000 CoreKO=0.4792760000 KON=0,0,0,1.1325480000 KON=1,0,1,0.9058290000
 KON=0,1,1,1.0997000000 KON=2,1,1,0.9156270000 EISol=-0.4188110042 EHeat=0.0830298228
 Alpha=1.9582710000
 GCore=0.0188990000,3.6287890000,2.2050280000
 GCore=0.0002310000,1.0608980000,2.8139770000
 GCore=-0.0011700000,0.4916610000,2.7132540000
 ****
 C       
 PQN=2,2 NValence=4 F0ss=0.3018470000 F0sp=0.4514830000 F0pp=0.3678470000 F2pp=0.2061660000
 G1sp=0.3070490000
 ZetaOverlap=1.9758830000,1.4400540000
 U=-1.9180320000,-1.6254890000
 Beta=-0.4665340000,-0.3733160000 DDN=0,1,0.8057690000 DDN=1,1,0.7014380000
 CoreKO=1.0606820000 KON=0,0,0,1.0668320000 KON=1,0,1,0.4937940000 KON=0,1,1,1.1823630000
 KON=2,1,1,0.5284590000 EISol=-4.4398989268 EHeat=0.2723305520 Alpha=1.2950990000
 DipHyp=1.6114452868
 GCore=0.0005110000,1.3354630000,3.2020660000
 GCore=0.0032740000,1.1260560000,2.7406040000
 GCore=-0.0009280000,1.5680380000,3.6330950000
 GCore=-0.0000520000,1.1773640000,4.8860460000
 ****
 O       
 PQN=2,2 NValence=6 F0ss=0.3448400000 F0sp=0.5282430000 F0pp=0.4200240000 F2pp=0.2360760000
 G1sp=0.5271590000
 ZetaOverlap=2.8692740000,2.9346140000
 U=-3.4177220000,-2.7747240000
 Beta=-1.1712780000,-1.4677810000 DDN=0,1,0.4306600000 DDN=1,1,0.5501900000
 CoreKO=0.7836610000 KON=0,0,0,0.7947420000 KON=1,0,1,0.3172350000 KON=0,1,1,0.8788250000
 KON=2,1,1,0.5349570000 EISol=-11.6164441184 EHeat=0.0949133088 Alpha=2.0895280000
 DipHyp=0.8612704475
 GCore=0.0094300000,1.0884620000,2.0040020000
 GCore=0.0035280000,1.9597990000,2.2706830000
 ****
 
 Standard basis: VSTO-6G (5D, 7F)
 Ernie: Thresh=  0.10000D-02 Tol=  0.10000D-05 Strict=F.
  NNHCO=     0 NNPyr=     0 NCTC=     0               EPep=         0.000000000
    EC=        70.204611264  ECS=         2.472287856   EG=         0.362358650
   EHC=         0.000000000  EAt=       -31.051283842  AtH=         1.516354808
 EPDDG=         0.000000000  ECC=        73.039257770 EAtT=        32.567638650
 There are    24 symmetry adapted cartesian basis functions of A   symmetry.
 There are    24 symmetry adapted basis functions of A   symmetry.
    24 basis functions,   144 primitive gaussians,    24 cartesian basis functions
    13 alpha electrons       13 beta electrons
       nuclear repulsion energy       105.6068964205 Hartrees.
 IExCor=    0 DFT=F Ex=HF Corr=None ExCW=0 ScaHFX=  1.000000
 ScaDFX=  1.000000  1.000000  1.000000  1.000000 ScalE2=  1.000000  1.000000
 IRadAn=      0 IRanWt=     -1 IRanGd=            0 ICorTp=0 IEmpDi=  4
 Integral buffers will be    131072 words long.
 Regular integral format.
 Two-electron integral symmetry is turned off.
 Leave Link  301 at Mon Jan  4 00:00:53 2016, MaxMem=    33554432 cpu:         0.0
 (Enter /opt/g09/g09/l302.exe)
 Do NDO integrals.
 NPDir=0 NMtPBC=     1 NCelOv=     1 NCel=       1 NClECP=     1 NCelD=      1
         NCelK=      1 NCelE2=     1 NClLst=     1 CellRange=     0.0.
 One-electron integrals computed using PRISM.
 NBasis=    24 RedAO= F EigKep=  0.00D+00  NBF=    24
 NBsUse=    24 1.00D-04 EigRej=  0.00D+00 NBFU=    24
 Leave Link  302 at Mon Jan  4 00:00:53 2016, MaxMem=    33554432 cpu:         0.0
 (Enter /opt/g09/g09/l303.exe)
 DipDrv:  MaxL=1.
 Leave Link  303 at Mon Jan  4 00:00:53 2016, MaxMem=    33554432 cpu:         0.0
 (Enter /opt/g09/g09/l401.exe)
 Initial guess from the checkpoint file:  "/opt/g09/scratch/Gau-20970.chk"
 B after Tr=     0.000000    0.000000    0.000000
         Rot=    0.996724   -0.000210    0.000201   -0.080873 Ang=  -9.28 deg.
 Guess basis will be translated and rotated to current coordinates.
 JPrj=0 DoOrth=T DoCkMO=T.
 Leave Link  401 at Mon Jan  4 00:00:53 2016, MaxMem=    33554432 cpu:         0.0
 (Enter /opt/g09/g09/l502.exe)
 Closed shell SCF:
 Using DIIS extrapolation, IDIIS=  1040.
 Overlap will be assumed to be unity.
 Two-electron integral symmetry not used.
 Keep J ints in memory in canonical form, NReq=888082.
 IVT=       79475 IEndB=       79475 NGot=    33554432 MDV=    33473473
 LenX=    33473473 LenY=    33472456
 Requested convergence on RMS density matrix=1.00D-08 within 128 cycles.
 Requested convergence on MAX density matrix=1.00D-06.
 Requested convergence on             energy=1.00D-06.
 No special actions if energy rises.
 FoFCou: FMM=F IPFlag=           0 FMFlag=           0 FMFlg1=           0
         NFxFlg=           0 DoJE=F BraDBF=F KetDBF=F FulRan=T
         wScrn=  0.000000 ICntrl=     600 IOpCl=  2 I1Cent=           0 NGrid=           0
         NMat0=    1 NMatS0=     54 NMatT0=    0 NMatD0=    1 NMtDS0=    0 NMtDT0=    0
 Symmetry not used in FoFCou.

 Cycle   1  Pass 1  IDiag  1:
 E= -2.46369426818274    
 DIIS: error= 9.36D-03 at cycle   1 NSaved=   1.
 NSaved= 1 IEnMin= 1 EnMin= -2.46369426818274     IErMin= 1 ErrMin= 9.36D-03
 ErrMax= 9.36D-03  0.00D+00 EMaxC= 1.00D-01 BMatC= 3.74D-03 BMatP= 3.74D-03
 IDIUse=3 WtCom= 9.06D-01 WtEn= 9.36D-02
 Coeff-Com:  0.100D+01
 Coeff-En:   0.100D+01
 Coeff:      0.100D+01
 GapD=    2.000 DampG=2.000 DampE=1.000 DampFc=2.0000 IDamp=-1.
 RMSDP=3.68D-03 MaxDP=1.81D-02              OVMax= 0.00D+00

 Cycle   2  Pass 1  IDiag  3:
 E= -2.47287833615515     Delta-E=       -0.009184067972 Rises=F Damp=F
 DIIS: error= 2.40D-03 at cycle   2 NSaved=   2.
 NSaved= 2 IEnMin= 2 EnMin= -2.47287833615515     IErMin= 2 ErrMin= 2.40D-03
 ErrMax= 2.40D-03  0.00D+00 EMaxC= 1.00D-01 BMatC= 2.93D-04 BMatP= 3.74D-03
 IDIUse=3 WtCom= 9.76D-01 WtEn= 2.40D-02
 Coeff-Com: -0.321D+00 0.132D+01
 Coeff-En:   0.000D+00 0.100D+01
 Coeff:     -0.313D+00 0.131D+01
 Gap=     0.358 Goal=   None    Shift=    0.000
 RMSDP=1.47D-03 MaxDP=7.25D-03 DE=-9.18D-03 OVMax= 5.99D-03

 Cycle   3  Pass 1  IDiag  3:
 E= -2.47381487216583     Delta-E=       -0.000936536011 Rises=F Damp=F
 DIIS: error= 4.01D-04 at cycle   3 NSaved=   3.
 NSaved= 3 IEnMin= 3 EnMin= -2.47381487216583     IErMin= 3 ErrMin= 4.01D-04
 ErrMax= 4.01D-04  0.00D+00 EMaxC= 1.00D-01 BMatC= 1.07D-05 BMatP= 2.93D-04
 IDIUse=3 WtCom= 9.96D-01 WtEn= 4.01D-03
 Coeff-Com:  0.639D-01-0.355D+00 0.129D+01
 Coeff-En:   0.000D+00 0.000D+00 0.100D+01
 Coeff:      0.636D-01-0.354D+00 0.129D+01
 Gap=     0.358 Goal=   None    Shift=    0.000
 RMSDP=3.37D-04 MaxDP=1.62D-03 DE=-9.37D-04 OVMax= 1.51D-03

 Cycle   4  Pass 1  IDiag  3:
 E= -2.47385827517731     Delta-E=       -0.000043403011 Rises=F Damp=F
 DIIS: error= 1.62D-04 at cycle   4 NSaved=   4.
 NSaved= 4 IEnMin= 4 EnMin= -2.47385827517731     IErMin= 4 ErrMin= 1.62D-04
 ErrMax= 1.62D-04  0.00D+00 EMaxC= 1.00D-01 BMatC= 7.31D-07 BMatP= 1.07D-05
 IDIUse=3 WtCom= 9.98D-01 WtEn= 1.62D-03
 Coeff-Com:  0.109D-01-0.329D-01-0.196D+00 0.122D+01
 Coeff-En:   0.000D+00 0.000D+00 0.000D+00 0.100D+01
 Coeff:      0.109D-01-0.328D-01-0.196D+00 0.122D+01
 Gap=     0.358 Goal=   None    Shift=    0.000
 RMSDP=1.07D-04 MaxDP=5.81D-04 DE=-4.34D-05 OVMax= 6.94D-04

 Cycle   5  Pass 1  IDiag  3:
 E= -2.47386188292143     Delta-E=       -0.000003607744 Rises=F Damp=F
 DIIS: error= 4.39D-05 at cycle   5 NSaved=   5.
 NSaved= 5 IEnMin= 5 EnMin= -2.47386188292143     IErMin= 5 ErrMin= 4.39D-05
 ErrMax= 4.39D-05  0.00D+00 EMaxC= 1.00D-01 BMatC= 6.48D-08 BMatP= 7.31D-07
 IDIUse=1 WtCom= 1.00D+00 WtEn= 0.00D+00
 Coeff-Com: -0.877D-02 0.361D-01 0.158D-01-0.582D+00 0.154D+01
 Coeff:     -0.877D-02 0.361D-01 0.158D-01-0.582D+00 0.154D+01
 Gap=     0.358 Goal=   None    Shift=    0.000
 RMSDP=3.73D-05 MaxDP=1.85D-04 DE=-3.61D-06 OVMax= 2.15D-04

 Cycle   6  Pass 1  IDiag  3:
 E= -2.47386222730211     Delta-E=       -0.000000344381 Rises=F Damp=F
 DIIS: error= 8.43D-06 at cycle   6 NSaved=   6.
 NSaved= 6 IEnMin= 6 EnMin= -2.47386222730211     IErMin= 6 ErrMin= 8.43D-06
 ErrMax= 8.43D-06  0.00D+00 EMaxC= 1.00D-01 BMatC= 2.48D-09 BMatP= 6.48D-08
 IDIUse=1 WtCom= 1.00D+00 WtEn= 0.00D+00
 Coeff-Com:  0.263D-02-0.117D-01 0.766D-02 0.135D+00-0.536D+00 0.140D+01
 Coeff:      0.263D-02-0.117D-01 0.766D-02 0.135D+00-0.536D+00 0.140D+01
 Gap=     0.358 Goal=   None    Shift=    0.000
 RMSDP=6.95D-06 MaxDP=3.94D-05 DE=-3.44D-07 OVMax= 3.43D-05

 Cycle   7  Pass 1  IDiag  3:
 E= -2.47386223971628     Delta-E=       -0.000000012414 Rises=F Damp=F
 DIIS: error= 1.39D-06 at cycle   7 NSaved=   7.
 NSaved= 7 IEnMin= 7 EnMin= -2.47386223971628     IErMin= 7 ErrMin= 1.39D-06
 ErrMax= 1.39D-06  0.00D+00 EMaxC= 1.00D-01 BMatC= 1.08D-10 BMatP= 2.48D-09
 IDIUse=1 WtCom= 1.00D+00 WtEn= 0.00D+00
 Coeff-Com: -0.589D-03 0.272D-02-0.280D-02-0.273D-01 0.138D+00-0.533D+00
 Coeff-Com:  0.142D+01
 Coeff:     -0.589D-03 0.272D-02-0.280D-02-0.273D-01 0.138D+00-0.533D+00
 Coeff:      0.142D+01
 Gap=     0.358 Goal=   None    Shift=    0.000
 RMSDP=1.40D-06 MaxDP=6.37D-06 DE=-1.24D-08 OVMax= 8.04D-06

 Cycle   8  Pass 1  IDiag  3:
 E= -2.47386224026157     Delta-E=       -0.000000000545 Rises=F Damp=F
 DIIS: error= 3.71D-07 at cycle   8 NSaved=   8.
 NSaved= 8 IEnMin= 8 EnMin= -2.47386224026157     IErMin= 8 ErrMin= 3.71D-07
 ErrMax= 3.71D-07  0.00D+00 EMaxC= 1.00D-01 BMatC= 5.89D-12 BMatP= 1.08D-10
 IDIUse=1 WtCom= 1.00D+00 WtEn= 0.00D+00
 Coeff-Com:  0.143D-03-0.695D-03 0.110D-02 0.485D-02-0.351D-01 0.173D+00
 Coeff-Com: -0.641D+00 0.150D+01
 Coeff:      0.143D-03-0.695D-03 0.110D-02 0.485D-02-0.351D-01 0.173D+00
 Coeff:     -0.641D+00 0.150D+01
 Gap=     0.358 Goal=   None    Shift=    0.000
 RMSDP=3.43D-07 MaxDP=2.27D-06 DE=-5.45D-10 OVMax= 2.14D-06

 Cycle   9  Pass 1  IDiag  3:
 E= -2.47386224029235     Delta-E=       -0.000000000031 Rises=F Damp=F
 DIIS: error= 1.04D-07 at cycle   9 NSaved=   9.
 NSaved= 9 IEnMin= 9 EnMin= -2.47386224029235     IErMin= 9 ErrMin= 1.04D-07
 ErrMax= 1.04D-07  0.00D+00 EMaxC= 1.00D-01 BMatC= 4.05D-13 BMatP= 5.89D-12
 IDIUse=1 WtCom= 1.00D+00 WtEn= 0.00D+00
 Coeff-Com: -0.449D-04 0.235D-03-0.489D-03-0.110D-02 0.131D-01-0.786D-01
 Coeff-Com:  0.335D+00-0.974D+00 0.171D+01
 Coeff:     -0.449D-04 0.235D-03-0.489D-03-0.110D-02 0.131D-01-0.786D-01
 Coeff:      0.335D+00-0.974D+00 0.171D+01
 Gap=     0.358 Goal=   None    Shift=    0.000
 RMSDP=1.04D-07 MaxDP=8.39D-07 DE=-3.08D-11 OVMax= 9.32D-07

 Cycle  10  Pass 1  IDiag  3:
 E= -2.47386224029468     Delta-E=       -0.000000000002 Rises=F Damp=F
 DIIS: error= 2.83D-08 at cycle  10 NSaved=  10.
 NSaved=10 IEnMin=10 EnMin= -2.47386224029468     IErMin=10 ErrMin= 2.83D-08
 ErrMax= 2.83D-08  0.00D+00 EMaxC= 1.00D-01 BMatC= 2.21D-14 BMatP= 4.05D-13
 IDIUse=1 WtCom= 1.00D+00 WtEn= 0.00D+00
 Coeff-Com:  0.200D-04-0.106D-03 0.234D-03 0.423D-03-0.593D-02 0.366D-01
 Coeff-Com: -0.157D+00 0.472D+00-0.979D+00 0.163D+01
 Coeff:      0.200D-04-0.106D-03 0.234D-03 0.423D-03-0.593D-02 0.366D-01
 Coeff:     -0.157D+00 0.472D+00-0.979D+00 0.163D+01
 Gap=     0.358 Goal=   None    Shift=    0.000
 RMSDP=2.22D-08 MaxDP=1.41D-07 DE=-2.33D-12 OVMax= 1.79D-07

 Cycle  11  Pass 1  IDiag  3:
 E= -2.47386224029496     Delta-E=        0.000000000000 Rises=F Damp=F
 DIIS: error= 3.89D-09 at cycle  11 NSaved=  11.
 NSaved=11 IEnMin=11 EnMin= -2.47386224029496     IErMin=11 ErrMin= 3.89D-09
 ErrMax= 3.89D-09  0.00D+00 EMaxC= 1.00D-01 BMatC= 7.56D-16 BMatP= 2.21D-14
 IDIUse=1 WtCom= 1.00D+00 WtEn= 0.00D+00
 Coeff-Com: -0.523D-05 0.281D-04-0.623D-04-0.108D-03 0.157D-02-0.977D-02
 Coeff-Com:  0.420D-01-0.127D+00 0.283D+00-0.604D+00 0.141D+01
 Coeff:     -0.523D-05 0.281D-04-0.623D-04-0.108D-03 0.157D-02-0.977D-02
 Coeff:      0.420D-01-0.127D+00 0.283D+00-0.604D+00 0.141D+01
 Gap=     0.358 Goal=   None    Shift=    0.000
 RMSDP=3.34D-09 MaxDP=1.71D-08 DE=-2.84D-13 OVMax= 1.80D-08

 Cycle  12  Pass 2  IDiag  1:
 SCF Done:  E(RAM1) =  -2.47386224029     A.U. after   12 cycles
            NFock= 11  Conv=0.33D-08     -V/T= 0.8696
 KE=-1.896421776585D+01 PE=-1.725375745812D+02 EE= 8.342103368624D+01
 Leave Link  502 at Mon Jan  4 00:00:53 2016, MaxMem=    33554432 cpu:         0.0
 (Enter /opt/g09/g09/l701.exe)
 Compute integral first derivatives.
 ... and contract with generalized density number  0.
 Leave Link  701 at Mon Jan  4 00:00:53 2016, MaxMem=    33554432 cpu:         0.0
 (Enter /opt/g09/g09/l702.exe)
 L702 exits ... SP integral derivatives will be done elsewhere.
 Leave Link  702 at Mon Jan  4 00:00:53 2016, MaxMem=    33554432 cpu:         0.0
 (Enter /opt/g09/g09/l703.exe)
 Compute integral first derivatives, UseDBF=F ICtDFT=           0.
 Integral derivatives from FoFJK, PRISM(SPDF).
 Calling FoFJK, ICntrl=      2127 FMM=F ISym2X=0 I1Cent= 0 IOpClX= 0 NMat=1 NMatS=1 NMatT=0.
 FoFJK:  IHMeth= 8 ICntrl=    2127 DoSepK=F KAlg= 0 I1Cent=   0 FoldK=F
 IRaf=         0 NMat=   1 IRICut=       1 DoRegI=T DoRafI=F ISym2E= 0.
 FoFCou: FMM=F IPFlag=           0 FMFlag=      100000 FMFlg1=         800
         NFxFlg=           0 DoJE=F BraDBF=F KetDBF=F FulRan=T
         wScrn=  0.000000 ICntrl=    2127 IOpCl=  0 I1Cent=           0 NGrid=           0
         NMat0=    1 NMatS0=      1 NMatT0=    0 NMatD0=    1 NMtDS0=    0 NMtDT0=    0
 Symmetry not used in FoFCou.
 Leave Link  703 at Mon Jan  4 00:00:53 2016, MaxMem=    33554432 cpu:         0.0
 (Enter /opt/g09/g09/l716.exe)
 Dipole        = 1.69026090D+00 6.52907389D-01 3.92683088D-01
 ***** Axes restored to original set *****
 -------------------------------------------------------------------
 Center     Atomic                   Forces (Hartrees/Bohr)
 Number     Number              X              Y              Z
 -------------------------------------------------------------------
      1        6           0.000310767   -0.410854963   -0.058266471
      2        6           0.349508055    0.764628595   -0.071955254
      3        8           0.049344755   -0.001865580    0.000191960
      4        6          -0.342854726    0.164850721   -0.031883153
      5        6           0.249377975    0.192557575    0.023997859
      6        1          -0.029477119   -0.036511116    0.021579767
      7        1           0.040947532   -0.048343498    0.003243307
      8        1          -0.274367016   -0.689530687    0.097165442
      9        1          -0.042790224    0.065068953    0.015926542
 -------------------------------------------------------------------
 Cartesian Forces:  Max     0.764628595 RMS     0.251321877
 Leave Link  716 at Mon Jan  4 00:00:53 2016, MaxMem=    33554432 cpu:         0.0
 (Enter /opt/g09/g09/l103.exe)

 GradGradGradGradGradGradGradGradGradGradGradGradGradGradGradGradGradGrad
 Berny optimization.
 Using GEDIIS/GDIIS optimizer.
 FormGI is forming the generalized inverse of G from B-inverse, IUseBI=4.
 Internal  Forces:  Max     0.748021884 RMS     0.139541163
 Search for a local minimum.
 Step number   2 out of a maximum of   48
 All quantities printed in internal units (Hartrees-Bohrs-Radians)
 RMS Force = .13954D+00 SwitMx=.10000D-02 MixMth= 1
 Mixed Optimization -- RFO/linear search
 Update second derivatives using D2CorX and points    1    2
 DE= -3.26D-01 DEPred=-3.29D-01 R= 9.91D-01
 TightC=F SS=  1.41D+00  RLast= 3.01D-01 DXNew= 5.0454D-01 9.0438D-01
 Trust test= 9.91D-01 RLast= 3.01D-01 DXMaxT set to 5.05D-01
 ITU=  1  0
 Use linear search instead of GDIIS.
 Linear search step of   0.600 exceeds DXMaxT=   0.505 but not scaled.
 Quartic linear search produced a step of  2.00000.
 Iteration  1 RMS(Cart)=  0.06160604 RMS(Int)=  0.03695413
 Iteration  2 RMS(Cart)=  0.03391227 RMS(Int)=  0.00294186
 Iteration  3 RMS(Cart)=  0.00258478 RMS(Int)=  0.00104748
 Iteration  4 RMS(Cart)=  0.00000250 RMS(Int)=  0.00104747
 Iteration  5 RMS(Cart)=  0.00000000 RMS(Int)=  0.00104747
 ITry= 1 IFail=0 DXMaxC= 3.12D-01 DCOld= 1.00D+10 DXMaxT= 5.05D-01 DXLimC= 3.00D+00 Rises=F
 Variable       Old X    -DE/DX   Delta X   Delta X   Delta X     New X
                                 (Linear)    (Quad)   (Total)
    R1        2.97127  -0.09115  -0.10605   0.00000  -0.10711   2.86416
    R2        2.32720   0.26022   0.26440   0.00000   0.26276   2.58996
    R3        2.53104  -0.07851  -0.10761   0.00000  -0.10761   2.42343
    R4        2.64191   0.01771   0.02368   0.00000   0.02478   2.66669
    R5        1.41425   0.74802   0.41707   0.00000   0.41707   1.83132
    R6        2.96386  -0.03403  -0.03354   0.00000  -0.03187   2.93199
    R7        2.24527   0.25843   0.23587   0.00000   0.23568   2.48095
    R8        2.41258  -0.06341  -0.08193   0.00000  -0.08193   2.33064
    R9        2.50724  -0.04872  -0.05444   0.00000  -0.05444   2.45280
    A1        1.89155  -0.02853  -0.03849   0.00000  -0.04120   1.85035
    A2        1.83301   0.02909   0.03297   0.00000   0.03430   1.86731
    A3        2.55799  -0.00061   0.00547   0.00000   0.00682   2.56481
    A4        1.77467   0.06352   0.05911   0.00000   0.05898   1.83365
    A5        2.33455  -0.02622  -0.02968   0.00000  -0.02961   2.30494
    A6        2.10693  -0.03087  -0.02172   0.00000  -0.02174   2.08519
    A7        1.79205   0.07379   0.08263   0.00000   0.08621   1.87826
    A8        1.90496  -0.06384  -0.08653   0.00000  -0.08550   1.81947
    A9        1.69518   0.03082   0.03757   0.00000   0.03699   1.73217
   A10        2.67542   0.03393   0.05036   0.00000   0.04982   2.72524
   A11        2.03790  -0.04331  -0.01321   0.00000  -0.01511   2.02279
   A12        2.15390   0.01914   0.00862   0.00000   0.00906   2.16296
   A13        1.95927   0.03003   0.01796   0.00000   0.01888   1.97815
    D1        0.11144   0.00255  -0.00133   0.00000  -0.00151   0.10994
    D2       -2.62796  -0.01498  -0.02462   0.00000  -0.02489  -2.65286
    D3       -3.00246   0.00352  -0.00045   0.00000  -0.00024  -3.00271
    D4        0.54132  -0.01401  -0.02375   0.00000  -0.02363   0.51768
    D5       -0.21518   0.01100   0.01533   0.00000   0.01610  -0.19908
    D6       -2.78485  -0.00862  -0.01601   0.00000  -0.01521  -2.80006
    D7        2.87787   0.00972   0.01380   0.00000   0.01386   2.89173
    D8        0.30820  -0.00990  -0.01754   0.00000  -0.01745   0.29075
    D9        0.00153  -0.00358  -0.00582   0.00000  -0.00686  -0.00534
   D10        2.80803   0.00842   0.00759   0.00000   0.00740   2.81543
   D11       -0.11901   0.00648   0.01499   0.00000   0.01433  -0.10468
   D12        3.10775  -0.00226   0.00170   0.00000   0.00193   3.10968
   D13        0.21687  -0.01826  -0.02669   0.00000  -0.02608   0.19079
   D14        2.84845  -0.00101  -0.00040   0.00000   0.00019   2.84864
   D15       -3.11364  -0.01084  -0.01561   0.00000  -0.01554  -3.12918
   D16       -0.48206   0.00640   0.01067   0.00000   0.01073  -0.47133
         Item               Value     Threshold  Converged?
 Maximum Force            0.748022     0.000450     NO 
 RMS     Force            0.139541     0.000300     NO 
 Maximum Displacement     0.312372     0.001800     NO 
 RMS     Displacement     0.088722     0.001200     NO 
 Predicted change in Energy=-1.623910D-01
 Lowest energy point so far.  Saving SCF results.
 GradGradGradGradGradGradGradGradGradGradGradGradGradGradGradGradGradGrad

 Leave Link  103 at Mon Jan  4 00:00:53 2016, MaxMem=    33554432 cpu:         0.0
 (Enter /opt/g09/g09/l202.exe)
                          Input orientation:                          
 ---------------------------------------------------------------------
 Center     Atomic      Atomic             Coordinates (Angstroms)
 Number     Number       Type             X           Y           Z
 ---------------------------------------------------------------------
      1          6           0        1.027124   -0.694284   -0.034297
      2          6           0       -0.370691   -1.242950   -0.239877
      3          8           0       -1.212956   -0.110725   -0.238050
      4          6           0       -0.319291    1.138958   -0.021402
      5          6           0        0.875292    0.645806    0.209638
      6          1           0        1.826570    1.518763    0.076474
      7          1           0       -1.185072    2.015049   -0.084444
      8          1           0       -0.752031   -2.121134   -0.089826
      9          1           0        1.841097   -1.671736   -0.197533
 ---------------------------------------------------------------------
                    Distance matrix (angstroms):
                    1          2          3          4          5
     1  C    0.000000
     2  C    1.515647   0.000000
     3  O    2.323793   1.411150   0.000000
     4  C    2.274593   2.392459   1.551542   0.000000
     5  C    1.370547   2.306933   2.265732   1.312862   0.000000
     6  H    2.355623   3.543317   3.463073   2.181410   1.297966
     7  H    3.498115   3.361835   2.131499   1.233324   2.491267
     8  H    2.281310   0.969094   2.067889   3.289399   3.223944
     9  H    1.282423   2.253366   3.430107   3.549408   2.543534
                    6          7          8          9
     6  H    0.000000
     7  H    3.056498   0.000000
     8  H    4.463820   4.158794   0.000000
     9  H    3.202277   4.771045   2.633984   0.000000
 Stoichiometry    C4H4O
 Framework group  C1[X(C4H4O)]
 Deg. of freedom    21
 Full point group                 C1      NOp   1
 RotChk:  IX=2 Diff= 1.03D+00
 Largest Abelian subgroup         C1      NOp   1
 Largest concise Abelian subgroup C1      NOp   1
                         Standard orientation:                         
 ---------------------------------------------------------------------
 Center     Atomic      Atomic             Coordinates (Angstroms)
 Number     Number       Type             X           Y           Z
 ---------------------------------------------------------------------
      1          6           0       -0.645516    1.041933    0.021240
      2          6           0       -1.190547   -0.372324    0.019813
      3          8           0       -0.050881   -1.204490    0.022221
      4          6           0        1.200393   -0.287118    0.017251
      5          6           0        0.712590    0.923971   -0.120294
      6          1           0        1.557600    1.857528    0.194577
      7          1           0        2.079632   -1.151001    0.058870
      8          1           0       -2.047166   -0.737716   -0.248207
      9          1           0       -1.644539    1.828346    0.188930
 ---------------------------------------------------------------------
 Rotational constants (GHZ):      8.7715491      8.4177207      4.3187323
 Leave Link  202 at Mon Jan  4 00:00:53 2016, MaxMem=    33554432 cpu:         0.0
 (Enter /opt/g09/g09/l301.exe)

 Semi-emprical parameters in input format:
 Method=8 CoreType=1 PeptideFC=0.0136940000 RIJScale=0.5272610000
 ****
 H       
 PQN=1 NValence=1 F0ss=0.5869070000 ZetaOverlap=0.9596440000 U=-0.4029700000
 Beta=-0.2017900000 CoreKO=0.4792760000 KON=0,0,0,1.1325480000 KON=1,0,1,0.9058290000
 KON=0,1,1,1.0997000000 KON=2,1,1,0.9156270000 EISol=-0.4188110042 EHeat=0.0830298228
 Alpha=1.9582710000
 GCore=0.0188990000,3.6287890000,2.2050280000
 GCore=0.0002310000,1.0608980000,2.8139770000
 GCore=-0.0011700000,0.4916610000,2.7132540000
 ****
 C       
 PQN=2,2 NValence=4 F0ss=0.3018470000 F0sp=0.4514830000 F0pp=0.3678470000 F2pp=0.2061660000
 G1sp=0.3070490000
 ZetaOverlap=1.9758830000,1.4400540000
 U=-1.9180320000,-1.6254890000
 Beta=-0.4665340000,-0.3733160000 DDN=0,1,0.8057690000 DDN=1,1,0.7014380000
 CoreKO=1.0606820000 KON=0,0,0,1.0668320000 KON=1,0,1,0.4937940000 KON=0,1,1,1.1823630000
 KON=2,1,1,0.5284590000 EISol=-4.4398989268 EHeat=0.2723305520 Alpha=1.2950990000
 DipHyp=1.6114452868
 GCore=0.0005110000,1.3354630000,3.2020660000
 GCore=0.0032740000,1.1260560000,2.7406040000
 GCore=-0.0009280000,1.5680380000,3.6330950000
 GCore=-0.0000520000,1.1773640000,4.8860460000
 ****
 O       
 PQN=2,2 NValence=6 F0ss=0.3448400000 F0sp=0.5282430000 F0pp=0.4200240000 F2pp=0.2360760000
 G1sp=0.5271590000
 ZetaOverlap=2.8692740000,2.9346140000
 U=-3.4177220000,-2.7747240000
 Beta=-1.1712780000,-1.4677810000 DDN=0,1,0.4306600000 DDN=1,1,0.5501900000
 CoreKO=0.7836610000 KON=0,0,0,0.7947420000 KON=1,0,1,0.3172350000 KON=0,1,1,0.8788250000
 KON=2,1,1,0.5349570000 EISol=-11.6164441184 EHeat=0.0949133088 Alpha=2.0895280000
 DipHyp=0.8612704475
 GCore=0.0094300000,1.0884620000,2.0040020000
 GCore=0.0035280000,1.9597990000,2.2706830000
 ****
 
 Standard basis: VSTO-6G (5D, 7F)
 Ernie: Thresh=  0.10000D-02 Tol=  0.10000D-05 Strict=F.
  NNHCO=     0 NNPyr=     0 NCTC=     0               EPep=         0.000000000
    EC=        68.725466426  ECS=         1.937260879   EG=         0.402915407
   EHC=         0.000000000  EAt=       -31.051283842  AtH=         1.516354808
 EPDDG=         0.000000000  ECC=        71.065642713 EAtT=        32.567638650
 There are    24 symmetry adapted cartesian basis functions of A   symmetry.
 There are    24 symmetry adapted basis functions of A   symmetry.
    24 basis functions,   144 primitive gaussians,    24 cartesian basis functions
    13 alpha electrons       13 beta electrons
       nuclear repulsion energy       103.6332813629 Hartrees.
 IExCor=    0 DFT=F Ex=HF Corr=None ExCW=0 ScaHFX=  1.000000
 ScaDFX=  1.000000  1.000000  1.000000  1.000000 ScalE2=  1.000000  1.000000
 IRadAn=      0 IRanWt=     -1 IRanGd=            0 ICorTp=0 IEmpDi=  4
 Integral buffers will be    131072 words long.
 Regular integral format.
 Two-electron integral symmetry is turned off.
 Leave Link  301 at Mon Jan  4 00:00:53 2016, MaxMem=    33554432 cpu:         0.0
 (Enter /opt/g09/g09/l302.exe)
 Do NDO integrals.
 NPDir=0 NMtPBC=     1 NCelOv=     1 NCel=       1 NClECP=     1 NCelD=      1
         NCelK=      1 NCelE2=     1 NClLst=     1 CellRange=     0.0.
 One-electron integrals computed using PRISM.
 NBasis=    24 RedAO= F EigKep=  0.00D+00  NBF=    24
 NBsUse=    24 1.00D-04 EigRej=  0.00D+00 NBFU=    24
 Leave Link  302 at Mon Jan  4 00:00:53 2016, MaxMem=    33554432 cpu:         0.0
 (Enter /opt/g09/g09/l303.exe)
 DipDrv:  MaxL=1.
 Leave Link  303 at Mon Jan  4 00:00:53 2016, MaxMem=    33554432 cpu:         0.0
 (Enter /opt/g09/g09/l401.exe)
 Initial guess from the checkpoint file:  "/opt/g09/scratch/Gau-20970.chk"
 B after Tr=     0.000000    0.000000    0.000000
         Rot=    0.931728   -0.000442    0.000068   -0.363158 Ang= -42.59 deg.
 Guess basis will be translated and rotated to current coordinates.
 JPrj=0 DoOrth=T DoCkMO=T.
 Leave Link  401 at Mon Jan  4 00:00:53 2016, MaxMem=    33554432 cpu:         0.0
 (Enter /opt/g09/g09/l502.exe)
 Closed shell SCF:
 Using DIIS extrapolation, IDIIS=  1040.
 Overlap will be assumed to be unity.
 Two-electron integral symmetry not used.
 Keep J ints in memory in canonical form, NReq=888082.
 IVT=       79475 IEndB=       79475 NGot=    33554432 MDV=    33473473
 LenX=    33473473 LenY=    33472456
 Requested convergence on RMS density matrix=1.00D-08 within 128 cycles.
 Requested convergence on MAX density matrix=1.00D-06.
 Requested convergence on             energy=1.00D-06.
 No special actions if energy rises.
 FoFCou: FMM=F IPFlag=           0 FMFlag=           0 FMFlg1=           0
         NFxFlg=           0 DoJE=F BraDBF=F KetDBF=F FulRan=T
         wScrn=  0.000000 ICntrl=     600 IOpCl=  2 I1Cent=           0 NGrid=           0
         NMat0=    1 NMatS0=     54 NMatT0=    0 NMatD0=    1 NMtDS0=    0 NMtDT0=    0
 Symmetry not used in FoFCou.

 Cycle   1  Pass 1  IDiag  1:
 E= -2.70642938472241    
 DIIS: error= 1.61D-02 at cycle   1 NSaved=   1.
 NSaved= 1 IEnMin= 1 EnMin= -2.70642938472241     IErMin= 1 ErrMin= 1.61D-02
 ErrMax= 1.61D-02  0.00D+00 EMaxC= 1.00D-01 BMatC= 1.11D-02 BMatP= 1.11D-02
 IDIUse=3 WtCom= 8.39D-01 WtEn= 1.61D-01
 Coeff-Com:  0.100D+01
 Coeff-En:   0.100D+01
 Coeff:      0.100D+01
 GapD=    2.000 DampG=2.000 DampE=0.500 DampFc=1.0000 IDamp=-1.
 RMSDP=6.39D-03 MaxDP=3.49D-02              OVMax= 0.00D+00

 Cycle   2  Pass 1  IDiag  3:
 E= -2.73395163412164     Delta-E=       -0.027522249399 Rises=F Damp=F
 DIIS: error= 4.08D-03 at cycle   2 NSaved=   2.
 NSaved= 2 IEnMin= 2 EnMin= -2.73395163412164     IErMin= 2 ErrMin= 4.08D-03
 ErrMax= 4.08D-03  0.00D+00 EMaxC= 1.00D-01 BMatC= 8.77D-04 BMatP= 1.11D-02
 IDIUse=3 WtCom= 9.59D-01 WtEn= 4.08D-02
 Coeff-Com: -0.330D+00 0.133D+01
 Coeff-En:   0.000D+00 0.100D+01
 Coeff:     -0.316D+00 0.132D+01
 Gap=     0.377 Goal=   None    Shift=    0.000
 RMSDP=2.56D-03 MaxDP=1.29D-02 DE=-2.75D-02 OVMax= 1.46D-02

 Cycle   3  Pass 1  IDiag  3:
 E= -2.73677003392102     Delta-E=       -0.002818399799 Rises=F Damp=F
 DIIS: error= 7.03D-04 at cycle   3 NSaved=   3.
 NSaved= 3 IEnMin= 3 EnMin= -2.73677003392102     IErMin= 3 ErrMin= 7.03D-04
 ErrMax= 7.03D-04  0.00D+00 EMaxC= 1.00D-01 BMatC= 2.97D-05 BMatP= 8.77D-04
 IDIUse=3 WtCom= 9.93D-01 WtEn= 7.03D-03
 Coeff-Com:  0.693D-01-0.372D+00 0.130D+01
 Coeff-En:   0.000D+00 0.000D+00 0.100D+01
 Coeff:      0.688D-01-0.370D+00 0.130D+01
 Gap=     0.378 Goal=   None    Shift=    0.000
 RMSDP=5.98D-04 MaxDP=3.23D-03 DE=-2.82D-03 OVMax= 3.57D-03

 Cycle   4  Pass 1  IDiag  3:
 E= -2.73689984481352     Delta-E=       -0.000129810893 Rises=F Damp=F
 DIIS: error= 2.82D-04 at cycle   4 NSaved=   4.
 NSaved= 4 IEnMin= 4 EnMin= -2.73689984481352     IErMin= 4 ErrMin= 2.82D-04
 ErrMax= 2.82D-04  0.00D+00 EMaxC= 1.00D-01 BMatC= 2.17D-06 BMatP= 2.97D-05
 IDIUse=3 WtCom= 9.97D-01 WtEn= 2.82D-03
 Coeff-Com:  0.899D-02-0.228D-01-0.236D+00 0.125D+01
 Coeff-En:   0.000D+00 0.000D+00 0.000D+00 0.100D+01
 Coeff:      0.897D-02-0.227D-01-0.235D+00 0.125D+01
 Gap=     0.378 Goal=   None    Shift=    0.000
 RMSDP=1.92D-04 MaxDP=1.27D-03 DE=-1.30D-04 OVMax= 1.63D-03

 Cycle   5  Pass 1  IDiag  3:
 E= -2.73691101610181     Delta-E=       -0.000011171288 Rises=F Damp=F
 DIIS: error= 8.79D-05 at cycle   5 NSaved=   5.
 NSaved= 5 IEnMin= 5 EnMin= -2.73691101610181     IErMin= 5 ErrMin= 8.79D-05
 ErrMax= 8.79D-05  0.00D+00 EMaxC= 1.00D-01 BMatC= 1.92D-07 BMatP= 2.17D-06
 IDIUse=1 WtCom= 1.00D+00 WtEn= 0.00D+00
 Coeff-Com: -0.752D-02 0.294D-01 0.369D-01-0.591D+00 0.153D+01
 Coeff:     -0.752D-02 0.294D-01 0.369D-01-0.591D+00 0.153D+01
 Gap=     0.378 Goal=   None    Shift=    0.000
 RMSDP=6.41D-05 MaxDP=3.95D-04 DE=-1.12D-05 OVMax= 4.84D-04

 Cycle   6  Pass 1  IDiag  3:
 E= -2.73691203489317     Delta-E=       -0.000001018791 Rises=F Damp=F
 DIIS: error= 1.85D-05 at cycle   6 NSaved=   6.
 NSaved= 6 IEnMin= 6 EnMin= -2.73691203489317     IErMin= 6 ErrMin= 1.85D-05
 ErrMax= 1.85D-05  0.00D+00 EMaxC= 1.00D-01 BMatC= 8.14D-09 BMatP= 1.92D-07
 IDIUse=1 WtCom= 1.00D+00 WtEn= 0.00D+00
 Coeff-Com:  0.203D-02-0.909D-02 0.843D-02 0.929D-01-0.455D+00 0.136D+01
 Coeff:      0.203D-02-0.909D-02 0.843D-02 0.929D-01-0.455D+00 0.136D+01
 Gap=     0.378 Goal=   None    Shift=    0.000
 RMSDP=1.20D-05 MaxDP=8.74D-05 DE=-1.02D-06 OVMax= 8.41D-05

 Cycle   7  Pass 1  IDiag  3:
 E= -2.73691207244974     Delta-E=       -0.000000037557 Rises=F Damp=F
 DIIS: error= 2.84D-06 at cycle   7 NSaved=   7.
 NSaved= 7 IEnMin= 7 EnMin= -2.73691207244974     IErMin= 7 ErrMin= 2.84D-06
 ErrMax= 2.84D-06  0.00D+00 EMaxC= 1.00D-01 BMatC= 3.15D-10 BMatP= 8.14D-09
 IDIUse=1 WtCom= 1.00D+00 WtEn= 0.00D+00
 Coeff-Com: -0.358D-03 0.172D-02-0.271D-02-0.138D-01 0.106D+00-0.485D+00
 Coeff-Com:  0.139D+01
 Coeff:     -0.358D-03 0.172D-02-0.271D-02-0.138D-01 0.106D+00-0.485D+00
 Coeff:      0.139D+01
 Gap=     0.378 Goal=   None    Shift=    0.000
 RMSDP=2.47D-06 MaxDP=1.50D-05 DE=-3.76D-08 OVMax= 2.14D-05

 Cycle   8  Pass 1  IDiag  3:
 E= -2.73691207412685     Delta-E=       -0.000000001677 Rises=F Damp=F
 DIIS: error= 6.43D-07 at cycle   8 NSaved=   8.
 NSaved= 8 IEnMin= 8 EnMin= -2.73691207412685     IErMin= 8 ErrMin= 6.43D-07
 ErrMax= 6.43D-07  0.00D+00 EMaxC= 1.00D-01 BMatC= 1.79D-11 BMatP= 3.15D-10
 IDIUse=1 WtCom= 1.00D+00 WtEn= 0.00D+00
 Coeff-Com:  0.851D-04-0.450D-03 0.125D-02 0.752D-03-0.260D-01 0.156D+00
 Coeff-Com: -0.625D+00 0.149D+01
 Coeff:      0.851D-04-0.450D-03 0.125D-02 0.752D-03-0.260D-01 0.156D+00
 Coeff:     -0.625D+00 0.149D+01
 Gap=     0.378 Goal=   None    Shift=    0.000
 RMSDP=7.25D-07 MaxDP=4.92D-06 DE=-1.68D-09 OVMax= 7.01D-06

 Cycle   9  Pass 1  IDiag  3:
 E= -2.73691207424217     Delta-E=       -0.000000000115 Rises=F Damp=F
 DIIS: error= 1.61D-07 at cycle   9 NSaved=   9.
 NSaved= 9 IEnMin= 9 EnMin= -2.73691207424217     IErMin= 9 ErrMin= 1.61D-07
 ErrMax= 1.61D-07  0.00D+00 EMaxC= 1.00D-01 BMatC= 9.18D-13 BMatP= 1.79D-11
 IDIUse=1 WtCom= 1.00D+00 WtEn= 0.00D+00
 Coeff-Com: -0.180D-04 0.114D-03-0.496D-03 0.575D-03 0.794D-02-0.611D-01
 Coeff-Com:  0.284D+00-0.845D+00 0.161D+01
 Coeff:     -0.180D-04 0.114D-03-0.496D-03 0.575D-03 0.794D-02-0.611D-01
 Coeff:      0.284D+00-0.845D+00 0.161D+01
 Gap=     0.378 Goal=   None    Shift=    0.000
 RMSDP=1.97D-07 MaxDP=1.56D-06 DE=-1.15D-10 OVMax= 2.08D-06

 Cycle  10  Pass 1  IDiag  3:
 E= -2.73691207424881     Delta-E=       -0.000000000007 Rises=F Damp=F
 DIIS: error= 2.87D-08 at cycle  10 NSaved=  10.
 NSaved=10 IEnMin=10 EnMin= -2.73691207424881     IErMin=10 ErrMin= 2.87D-08
 ErrMax= 2.87D-08  0.00D+00 EMaxC= 1.00D-01 BMatC= 3.21D-14 BMatP= 9.18D-13
 IDIUse=1 WtCom= 1.00D+00 WtEn= 0.00D+00
 Coeff-Com:  0.816D-05-0.501D-04 0.205D-03-0.213D-03-0.331D-02 0.250D-01
 Coeff-Com: -0.116D+00 0.350D+00-0.778D+00 0.152D+01
 Coeff:      0.816D-05-0.501D-04 0.205D-03-0.213D-03-0.331D-02 0.250D-01
 Coeff:     -0.116D+00 0.350D+00-0.778D+00 0.152D+01
 Gap=     0.378 Goal=   None    Shift=    0.000
 RMSDP=3.37D-08 MaxDP=2.69D-07 DE=-6.64D-12 OVMax= 3.71D-07

 Cycle  11  Pass 1  IDiag  3:
 E= -2.73691207424918     Delta-E=        0.000000000000 Rises=F Damp=F
 DIIS: error= 4.30D-09 at cycle  11 NSaved=  11.
 NSaved=11 IEnMin=11 EnMin= -2.73691207424918     IErMin=11 ErrMin= 4.30D-09
 ErrMax= 4.30D-09  0.00D+00 EMaxC= 1.00D-01 BMatC= 9.93D-16 BMatP= 3.21D-14
 IDIUse=1 WtCom= 1.00D+00 WtEn= 0.00D+00
 Coeff-Com: -0.247D-05 0.159D-04-0.701D-04 0.884D-04 0.110D-02-0.861D-02
 Coeff-Com:  0.403D-01-0.124D+00 0.286D+00-0.652D+00 0.146D+01
 Coeff:     -0.247D-05 0.159D-04-0.701D-04 0.884D-04 0.110D-02-0.861D-02
 Coeff:      0.403D-01-0.124D+00 0.286D+00-0.652D+00 0.146D+01
 Gap=     0.378 Goal=   None    Shift=    0.000
 RMSDP=4.48D-09 MaxDP=3.02D-08 DE=-3.69D-13 OVMax= 3.86D-08

 Cycle  12  Pass 2  IDiag  1:
 SCF Done:  E(RAM1) =  -2.73691207425     A.U. after   12 cycles
            NFock= 11  Conv=0.45D-08     -V/T= 0.8546
 KE=-1.882299987014D+01 PE=-1.699760937028D+02 EE= 8.242890013576D+01
 Leave Link  502 at Mon Jan  4 00:00:53 2016, MaxMem=    33554432 cpu:         0.0
 (Enter /opt/g09/g09/l701.exe)
 Compute integral first derivatives.
 ... and contract with generalized density number  0.
 Leave Link  701 at Mon Jan  4 00:00:53 2016, MaxMem=    33554432 cpu:         0.0
 (Enter /opt/g09/g09/l702.exe)
 L702 exits ... SP integral derivatives will be done elsewhere.
 Leave Link  702 at Mon Jan  4 00:00:53 2016, MaxMem=    33554432 cpu:         0.0
 (Enter /opt/g09/g09/l703.exe)
 Compute integral first derivatives, UseDBF=F ICtDFT=           0.
 Integral derivatives from FoFJK, PRISM(SPDF).
 Calling FoFJK, ICntrl=      2127 FMM=F ISym2X=0 I1Cent= 0 IOpClX= 0 NMat=1 NMatS=1 NMatT=0.
 FoFJK:  IHMeth= 8 ICntrl=    2127 DoSepK=F KAlg= 0 I1Cent=   0 FoldK=F
 IRaf=         0 NMat=   1 IRICut=       1 DoRegI=T DoRafI=F ISym2E= 0.
 FoFCou: FMM=F IPFlag=           0 FMFlag=      100000 FMFlg1=         800
         NFxFlg=           0 DoJE=F BraDBF=F KetDBF=F FulRan=T
         wScrn=  0.000000 ICntrl=    2127 IOpCl=  0 I1Cent=           0 NGrid=           0
         NMat0=    1 NMatS0=      1 NMatT0=    0 NMatD0=    1 NMtDS0=    0 NMtDT0=    0
 Symmetry not used in FoFCou.
 Leave Link  703 at Mon Jan  4 00:00:53 2016, MaxMem=    33554432 cpu:         0.0
 (Enter /opt/g09/g09/l716.exe)
 Dipole        = 3.06676486D-01 1.21154942D+00 2.71411614D-01
 ***** Axes restored to original set *****
 -------------------------------------------------------------------
 Center     Atomic                   Forces (Hartrees/Bohr)
 Number     Number              X              Y              Z
 -------------------------------------------------------------------
      1        6          -0.077784552   -0.153303585   -0.022496106
      2        6           0.127588333    0.179855422    0.023414254
      3        8           0.039021219   -0.003068929    0.002824036
      4        6          -0.089334802   -0.007947926    0.005633953
      5        6           0.071620906    0.095471252   -0.049101470
      6        1          -0.035312486   -0.042855649    0.021442949
      7        1           0.042203551   -0.039395502    0.004168819
      8        1          -0.048469590   -0.091794624   -0.001311083
      9        1          -0.029532578    0.063039541    0.015424648
 -------------------------------------------------------------------
 Cartesian Forces:  Max     0.179855422 RMS     0.068922842
 Leave Link  716 at Mon Jan  4 00:00:53 2016, MaxMem=    33554432 cpu:         0.0
 (Enter /opt/g09/g09/l103.exe)

 GradGradGradGradGradGradGradGradGradGradGradGradGradGradGradGradGradGrad
 Berny optimization.
 Using GEDIIS/GDIIS optimizer.
 FormGI is forming the generalized inverse of G from B-inverse, IUseBI=4.
 Internal  Forces:  Max     0.102395765 RMS     0.032670453
 Search for a local minimum.
 Step number   3 out of a maximum of   48
 All quantities printed in internal units (Hartrees-Bohrs-Radians)
 RMS Force = .32670D-01 SwitMx=.10000D-02 MixMth= 1
 Mixed Optimization -- RFO/linear search
 Update second derivatives using D2CorX and points    2    3
 ITU=  0  1  0
 Use linear search instead of GDIIS.
     Eigenvalues ---    0.00865   0.01327   0.04151   0.04379   0.05357
     Eigenvalues ---    0.05744   0.14597   0.14882   0.15525   0.15831
     Eigenvalues ---    0.15957   0.16605   0.18624   0.22134   0.22888
     Eigenvalues ---    0.23311   0.25173   0.44713   1.10581   1.39094
     Eigenvalues ---    1.89974
 RFO step:  Lambda=-1.40220394D-01 EMin= 8.64650088D-03
 Quartic linear search produced a step of  0.40949.
 Maximum step size (   0.505) exceeded in Quadratic search.
    -- Step size scaled by   0.818
 Iteration  1 RMS(Cart)=  0.06209978 RMS(Int)=  0.02561177
 Iteration  2 RMS(Cart)=  0.02963789 RMS(Int)=  0.00163344
 Iteration  3 RMS(Cart)=  0.00017737 RMS(Int)=  0.00162485
 Iteration  4 RMS(Cart)=  0.00000015 RMS(Int)=  0.00162485
 ITry= 1 IFail=0 DXMaxC= 2.09D-01 DCOld= 1.00D+10 DXMaxT= 5.05D-01 DXLimC= 3.00D+00 Rises=F
 Variable       Old X    -DE/DX   Delta X   Delta X   Delta X     New X
                                 (Linear)    (Quad)   (Total)
    R1        2.86416  -0.10240  -0.04386  -0.27981  -0.32359   2.54056
    R2        2.58996   0.03292   0.10760   0.00587   0.11148   2.70144
    R3        2.42343  -0.06876  -0.04406  -0.24707  -0.29114   2.13229
    R4        2.66669  -0.03405   0.01015  -0.06476  -0.05260   2.61409
    R5        1.83132   0.10205   0.17079  -0.01158   0.15920   1.99052
    R6        2.93199  -0.04481  -0.01305  -0.11970  -0.13150   2.80049
    R7        2.48095   0.00721   0.09651  -0.01586   0.07923   2.56018
    R8        2.33064  -0.05782  -0.03355  -0.18565  -0.21920   2.11144
    R9        2.45280  -0.05690  -0.02229  -0.19233  -0.21462   2.23818
    A1        1.85035   0.00209  -0.01687   0.01582  -0.00276   1.84759
[...]
     19 -0.325814D-01  0.483994D-01 -0.304957D-02 -0.359639D-02 -0.368187D-02
     20 -0.782514D-02 -0.692229D-01  0.446323D-02 -0.145912D-01 -0.519004D-01
     21  0.816686D-02  0.101701D-01 -0.272540D-02  0.389284D-02  0.239007D-01
     22 -0.341757D-03  0.590527D-01 -0.173782D-02  0.106984D-01  0.279996D-01
     23  0.993294D-05  0.342479D-04  0.165333D-05  0.889869D-05 -0.111871D-05
     24  0.116841D-04 -0.226521D-04  0.000000D+00  0.219225D-05  0.272230D-05
     25  0.640765D-05  0.565697D-04  0.000000D+00  0.589923D-05  0.452426D-05
     26  0.815886D-05  0.000000D+00  0.000000D+00  0.000000D+00  0.836528D-05
     27  0.117481D-04  0.329626D-04 -0.346792D-05 -0.827569D-05  0.854019D-05
     28 -0.844920D-05  0.624452D-04  0.000000D+00  0.160538D-04 -0.341188D-05
     29  0.156598D-04  0.123774D-04 -0.253084D-05 -0.571505D-05  0.612934D-05
     30 -0.453754D-05  0.418600D-04  0.153965D-05  0.186144D-04 -0.582273D-05
     31  0.277429D-04 -0.213529D-04  0.000000D+00 -0.317318D-05  0.170787D-04
     32  0.283936D-04 -0.267748D-05  0.111469D-05  0.000000D+00  0.198037D-04
     33  0.217952D-05 -0.150177D-04 -0.282836D-05 -0.361618D-05  0.173005D-04
     34 -0.205297D-04  0.302567D-04  0.000000D+00 -0.269093D-05  0.380717D-05
     35 -0.135332D-04 -0.577784D-05  0.395590D-05  0.623835D-05 -0.323031D-04
     36 -0.373520D-05  0.636130D-04  0.000000D+00 -0.529742D-05  0.145259D-05
     37 -0.229798D-04 -0.290258D-04 -0.740420D-05  0.154432D-05 -0.182011D-04
     38 -0.131818D-04  0.403650D-04 -0.113781D-04 -0.999146D-05  0.155546D-04
               11            12            13            14            15 
     11  0.732719D-01
     12 -0.257822D-01  0.722132D-01
     13  0.239036D-01  0.245254D-01  0.119365D+00
     14 -0.760236D-02 -0.113357D-01 -0.521543D-01  0.682881D-01
     15 -0.163012D-01 -0.131897D-01 -0.672112D-01 -0.161337D-01  0.833449D-01
     16 -0.137386D-01  0.727108D-03 -0.805972D-01  0.390374D-01  0.415598D-01
     17  0.932518D-02 -0.272242D-02  0.162619D-01 -0.213657D-02 -0.141253D-01
     18 -0.753628D-02 -0.274834D-02 -0.141240D-01  0.354574D-02  0.105782D-01
     19 -0.178890D-02  0.547076D-02 -0.213792D-02 -0.140918D-02  0.354710D-02
     20  0.279995D-01  0.239010D-01 -0.660125D-02 -0.368457D-02  0.102858D-01
     21 -0.155990D-01 -0.830178D-02 -0.272344D-02  0.547282D-02 -0.274938D-02
     22 -0.124005D-01 -0.155991D-01  0.932466D-02 -0.178825D-02 -0.753640D-02
     23 -0.234480D-05  0.000000D+00  0.307471D-04 -0.563427D-05 -0.201123D-04
     24  0.101728D-05 -0.635636D-05 -0.214427D-05 -0.137530D-05  0.000000D+00
     25 -0.598702D-05  0.335823D-05  0.284865D-04 -0.561103D-05 -0.180157D-04
     26 -0.262495D-05 -0.375682D-05 -0.440496D-05 -0.135205D-05  0.166231D-05
     27  0.395344D-05 -0.926694D-05  0.139882D-04 -0.392441D-05 -0.132608D-04
     28  0.153573D-04 -0.972598D-05  0.144766D-04 -0.757788D-05 -0.755218D-05
     29 -0.113683D-04  0.432873D-05  0.148521D-04 -0.409927D-05 -0.138231D-04
     30  0.000000D+00  0.386968D-05  0.153405D-04 -0.775274D-05 -0.811455D-05
     31 -0.426042D-05 -0.114826D-04 -0.169246D-04  0.000000D+00  0.126074D-04
     32 -0.796210D-05 -0.105636D-04 -0.117153D-04  0.318286D-04 -0.193370D-04
     33 -0.356588D-05 -0.129570D-04 -0.254098D-04  0.222521D-04  0.614564D-05
     34  0.000000D+00 -0.322646D-05 -0.120849D-04  0.131892D-04  0.000000D+00
     35  0.111174D-04  0.188258D-04  0.399777D-05 -0.385849D-05  0.000000D+00
     36 -0.327442D-05  0.000000D+00  0.259313D-04 -0.113647D-04 -0.173745D-04
     37  0.741771D-05  0.101904D-04 -0.146276D-04  0.761360D-05  0.932760D-05
     38 -0.697408D-05 -0.805415D-05  0.730596D-05  0.000000D+00 -0.792630D-05
               16            17            18            19            20 
     16  0.135176D+00
     17 -0.805979D-01  0.119369D+00
     18  0.415623D-01 -0.672157D-01  0.833180D-01
     19  0.390356D-01 -0.521536D-01 -0.161023D-01  0.682560D-01
     20  0.130079D-01 -0.484306D-01  0.294928D-01  0.189378D-01  0.939244D-01
     21  0.726281D-03  0.245243D-01 -0.131923D-01 -0.113320D-01 -0.464279D-01
     22 -0.137341D-01  0.239062D-01 -0.163004D-01 -0.760574D-02 -0.474964D-01
     23 -0.427030D-04  0.193021D-04 -0.445381D-05 -0.148226D-04 -0.194440D-04
     24 -0.690131D-05  0.810889D-05 -0.259427D-05 -0.239731D-05 -0.388059D-05
     25 -0.301816D-04  0.143642D-04 -0.580808D-05 -0.123387D-04 -0.222226D-04
     26  0.562009D-05  0.317096D-05 -0.394854D-05  0.000000D+00 -0.665923D-05
     27 -0.723171D-05  0.140028D-04 -0.822478D-05 -0.100842D-04 -0.187212D-04
     28 -0.449053D-05  0.000000D+00 -0.407694D-05  0.000000D+00 -0.127319D-05
     29 -0.156157D-04  0.161597D-04 -0.589718D-05 -0.111439D-04 -0.183096D-04
     30 -0.128745D-04  0.135973D-05 -0.174934D-05  0.000000D+00  0.000000D+00
     31  0.201158D-05  0.109758D-04 -0.124686D-04  0.551619D-05 -0.171766D-05
     32 -0.802647D-05  0.191627D-04 -0.133855D-04 -0.377667D-05 -0.150777D-04
     33  0.509423D-05  0.129799D-04  0.369832D-05 -0.235205D-04 -0.144590D-04
     34  0.154136D-04 -0.286119D-05 -0.322898D-04  0.361862D-04 -0.754838D-05
     35  0.980940D-05 -0.721701D-05 -0.310314D-05  0.170519D-04  0.223231D-04
     36 -0.215269D-04  0.206751D-04 -0.206896D-04  0.655700D-05 -0.231714D-04
     37  0.217037D-04 -0.167261D-04  0.127084D-04 -0.130664D-05  0.225935D-04
     38 -0.963263D-05  0.111661D-04 -0.487807D-05 -0.118015D-04 -0.229010D-04
               21            22            23            24            25 
     21  0.721972D-01
     22 -0.257694D-01  0.732658D-01
     23 -0.171601D-05  0.420735D-04  0.176864D-01
     24  0.139121D-04 -0.477262D-05  0.384286D-02  0.147886D-01
     25 -0.194229D-04  0.526411D-04  0.570668D-02 -0.774693D-02  0.141018D-01
     26 -0.379477D-05  0.579498D-05 -0.813688D-02  0.319882D-02  0.648152D-03
     27  0.105269D-04 -0.203895D-04 -0.158867D-01 -0.703632D-02 -0.159563D-02
     28 -0.742009D-04  0.835521D-04 -0.647996D-02 -0.467092D-02  0.335017D-02
     29  0.283587D-04 -0.297140D-04 -0.511364D-02  0.338611D-02 -0.914513D-02
     30 -0.563691D-04  0.742277D-04  0.429314D-02  0.575152D-02 -0.419933D-02
     31  0.109043D-04 -0.160822D-04 -0.136536D-01  0.417088D-03 -0.773808D-02
     32  0.371032D-05  0.147148D-04 -0.459573D-02 -0.674478D-02  0.106469D-02
     33 -0.136951D-05  0.400472D-05  0.324733D-02 -0.502463D-02  0.669145D-02
     34 -0.298187D-04  0.260517D-04  0.328180D-02 -0.838843D-03  0.161226D-02
     35 -0.634165D-05  0.796994D-05  0.725228D-02  0.720066D-02 -0.319995D-02
     36 -0.690849D-04  0.754649D-04 -0.320155D-02  0.457192D-02 -0.869617D-02
     37  0.294726D-04 -0.288928D-04  0.719951D-02  0.794584D-03  0.457341D-02
     38 -0.332707D-04  0.386022D-04 -0.325433D-02 -0.183416D-02 -0.922814D-03
               26            27            28            29            30 
     26  0.119839D-01
     27  0.725479D-02  0.202392D-01
     28  0.515922D-02  0.738240D-02  0.110160D-01
     29 -0.645384D-03  0.738751D-02 -0.145762D-02  0.110129D-01
     30 -0.274096D-02 -0.546927D-02  0.217595D-02  0.216782D-02  0.981304D-02
     31  0.633265D-02  0.662971D-02  0.352812D-02  0.130998D-02 -0.179161D-02
     32 -0.108436D-02  0.838829D-03  0.234445D-02 -0.425146D-02 -0.274583D-02
     33 -0.158051D-02  0.662515D-02  0.130694D-02  0.352793D-02 -0.179028D-02
     34 -0.250839D-02  0.843009D-03 -0.424650D-02  0.234440D-02 -0.274511D-02
     35 -0.325157D-02 -0.158810D-01 -0.510792D-02 -0.648159D-02  0.429154D-02
     36 -0.922706D-03 -0.159314D-02 -0.914569D-02  0.334805D-02 -0.420450D-02
     37 -0.183151D-02 -0.703186D-02  0.339126D-02 -0.467027D-02  0.575285D-02
     38  0.497351D-03  0.725604D-02 -0.646517D-03  0.515936D-02 -0.274319D-02
               31            32            33            34            35 
     31  0.158595D-01
     32  0.665289D-02  0.805905D-02
     33 -0.115145D-01 -0.610208D-02  0.158503D-01
     34 -0.611205D-02 -0.341589D-02  0.666271D-02  0.805277D-02
     35  0.324340D-02  0.327717D-02 -0.136422D-01 -0.460308D-02  0.176724D-01
     36  0.669020D-02  0.160397D-02 -0.773194D-02  0.105308D-02  0.570003D-02
     37 -0.502465D-02 -0.833873D-03  0.418790D-03 -0.673043D-02  0.383865D-02
     38 -0.157785D-02 -0.250708D-02  0.632902D-02 -0.107427D-02 -0.813369D-02
               36            37            38 
     36  0.140936D-01
     37 -0.774484D-02  0.147801D-01
     38  0.648683D-03  0.319656D-02  0.119789D-01
 Leave Link  716 at Mon Jan  4 00:00:56 2016, MaxMem=    33554432 cpu:         0.0
 (Enter /opt/g09/g09/l103.exe)

 GradGradGradGradGradGradGradGradGradGradGradGradGradGradGradGradGradGrad
 Berny optimization.
 Red2BG is reusing G-inverse.
 Internal  Forces:  Max     0.000319224 RMS     0.000106797
 Search for a local minimum.
 Step number   1 out of a maximum of    2
 All quantities printed in internal units (Hartrees-Bohrs-Radians)
 Second derivative matrix not updated -- analytic derivatives used.
 ITU=  0
     Eigenvalues ---    0.01329   0.01578   0.02669   0.03719   0.05704
     Eigenvalues ---    0.06701   0.06997   0.07585   0.08771   0.09064
     Eigenvalues ---    0.19794   0.24329   0.32385   0.32894   0.39717
     Eigenvalues ---    0.40617   0.42416   0.42556   0.43942   0.63450
     Eigenvalues ---    0.82657
 Angle between quadratic step and forces=  64.57 degrees.
 Linear search not attempted -- first point.
 Iteration  1 RMS(Cart)=  0.00081235 RMS(Int)=  0.00000073
 Iteration  2 RMS(Cart)=  0.00000062 RMS(Int)=  0.00000029
 ITry= 1 IFail=0 DXMaxC= 2.98D-03 DCOld= 1.00D+10 DXMaxT= 3.00D-01 DXLimC= 3.00D+00 Rises=F
 Variable       Old X    -DE/DX   Delta X   Delta X   Delta X     New X
                                 (Linear)    (Quad)   (Total)
    R1        2.52275   0.00007   0.00000   0.00007   0.00007   2.52282
    R2        2.81683   0.00018   0.00000   0.00062   0.00062   2.81745
    R3        2.00292   0.00032   0.00000   0.00073   0.00073   2.00365
    R4        2.67812   0.00007   0.00000   0.00036   0.00036   2.67848
    R5        2.00835  -0.00016   0.00000  -0.00042  -0.00042   2.00793
    R6        2.67900  -0.00008   0.00000  -0.00053  -0.00053   2.67848
    R7        2.52329  -0.00032   0.00000  -0.00048  -0.00047   2.52282
    R8        2.00849  -0.00023   0.00000  -0.00056  -0.00056   2.00793
    R9        2.00319   0.00020   0.00000   0.00046   0.00046   2.00365
    A1        1.87535  -0.00007   0.00000  -0.00018  -0.00018   1.87517
    A2        2.27605   0.00000   0.00000  -0.00019  -0.00019   2.27586
    A3        2.13178   0.00007   0.00000   0.00037   0.00037   2.13215
    A4        1.89609  -0.00004   0.00000   0.00000   0.00000   1.89609
    A5        2.47674  -0.00002   0.00000  -0.00030  -0.00030   2.47644
    A6        1.91035   0.00006   0.00000   0.00030   0.00030   1.91065
    A7        1.88237  -0.00002   0.00000  -0.00012  -0.00012   1.88225
    A8        1.89563   0.00012   0.00000   0.00046   0.00046   1.89609
    A9        1.90988   0.00001   0.00000   0.00078   0.00078   1.91066
   A10        2.47768  -0.00013   0.00000  -0.00124  -0.00124   2.47644
   A11        1.87533   0.00001   0.00000  -0.00016  -0.00016   1.87517
   A12        2.13221   0.00001   0.00000  -0.00006  -0.00006   2.13215
   A13        2.27564  -0.00002   0.00000   0.00022   0.00022   2.27586
    D1        0.00070  -0.00003   0.00000  -0.00070  -0.00070   0.00000
    D2       -3.14031  -0.00003   0.00000  -0.00128  -0.00128   3.14159
    D3       -3.14116   0.00001   0.00000  -0.00044  -0.00044  -3.14159
    D4        0.00102   0.00001   0.00000  -0.00102  -0.00102   0.00000
    D5       -0.00050   0.00002   0.00000   0.00050   0.00050   0.00000
    D6        3.13899   0.00007   0.00000   0.00260   0.00260   3.14159
    D7        3.14133  -0.00001   0.00000   0.00026   0.00026   3.14159
    D8       -0.00236   0.00003   0.00000   0.00236   0.00236   0.00000
    D9       -0.00066   0.00003   0.00000   0.00066   0.00066   0.00000
   D10        3.14055   0.00003   0.00000   0.00104   0.00104  -3.14159
   D11        0.00033  -0.00001   0.00000  -0.00033  -0.00033   0.00000
   D12        3.14141  -0.00002   0.00000   0.00018   0.00018  -3.14159
   D13        0.00009  -0.00001   0.00000  -0.00009  -0.00009   0.00000
   D14       -3.13918  -0.00005   0.00000  -0.00242  -0.00242  -3.14159
   D15       -3.14072   0.00000   0.00000  -0.00087  -0.00087   3.14159
   D16        0.00320  -0.00005   0.00000  -0.00320  -0.00320   0.00000
         Item               Value     Threshold  Converged?
 Maximum Force            0.000319     0.000450     YES
 RMS     Force            0.000107     0.000300     YES
 Maximum Displacement     0.002983     0.001800     NO 
 RMS     Displacement     0.000812     0.001200     YES
 Predicted change in Energy=-8.900416D-07
 GradGradGradGradGradGradGradGradGradGradGradGradGradGradGradGradGradGrad

 Leave Link  103 at Mon Jan  4 00:00:56 2016, MaxMem=    33554432 cpu:         0.0
 (Enter /opt/g09/g09/l9999.exe)
 1\1\GINC-LINUX-CBNE\Freq\RAM1\ZDO\C4H4O1\DUSTIN\04-Jan-2016\0\\#P Geom
 =AllCheck Guess=TCheck SCRF=Check GenChk RAM1/ZDO Freq\\AM1-Reparam In
 put\\0,1\C,0.9531504557,-0.7764359196,-0.0668950917\C,-0.3027163613,-1
 .2198372913,-0.1583642529\O,-1.1784493226,-0.1056611926,-0.1459849088\
 C,-0.388586726,1.0667780442,-0.0397483148\C,0.8974505525,0.7111032528,
 0.0106946892\H,1.7716468969,1.3051013842,0.0921612791\H,-1.0221701401,
 1.9200601706,-0.0284291466\H,-0.8700297522,-2.1151216438,-0.2364881656
 \H,1.869746397,-1.3082398045,-0.046262088\\Version=ES64L-G09RevD.01\St
 ate=1-A\HF=-2.8613793\RMSD=2.281e-10\RMSF=1.628e-04\ZeroPoint=0.073373
 3\Thermal=0.0769636\Dipole=0.8868172,0.0310618,0.0519889\DipoleDeriv=-
 1.0035334,0.1682824,-0.0169462,0.0011048,-0.590984,-0.0036639,-0.02603
 66,0.005512,-0.5252214,0.1848371,-0.4759017,0.0030573,-0.5554854,-0.42
 07196,-0.0344251,-0.0012069,-0.029911,-0.3432599,-0.9244035,-0.0033374
 ,-0.0358459,-0.0028421,-0.7884818,-0.0283043,-0.036162,-0.0283566,-0.2
 690612,0.103792,0.5132381,0.0519927,0.5920772,-0.3456914,0.0320509,0.0
 562205,0.027654,-0.3371343,-0.9884088,-0.1954415,-0.036176,-0.0283894,
 -0.6042831,-0.0060029,-0.0270297,-0.0150914,-0.5262178,0.7643114,0.150
 6664,0.022638,0.2430021,0.6023071,0.0187955,0.0278512,0.0138172,0.5045
 164,0.553127,-0.2482543,-0.010296,-0.2445373,0.7694267,0.0014234,-0.01
 00622,0.0011956,0.4957666,0.5173015,0.2289178,0.013371,0.2253743,0.802
 4684,0.028543,0.0131777,0.0286406,0.4984088,0.7929781,-0.1381698,0.008
 2051,-0.2303038,0.5759556,-0.0084166,0.0032493,-0.0034604,0.5022026\Po
 lar=37.317267,0.1848475,29.9428853,1.6808386,1.2808346,6.5576189\Hyper
 Polar=27.8283474,0.8786405,1.5068057,0.2459402,0.9677982,-0.1695073,0.
 1018087,5.7020896,0.1742305,0.9487716\PG=C01 [X(C4H4O1)]\NImag=0\\1.03
 385721,-0.08455578,0.51139599,0.04047192,0.01238865,0.20034993,-0.5108
 0918,-0.12631740,-0.02887744,0.77652772,-0.20990807,-0.14059350,-0.013
 47976,0.33622474,0.73520286,-0.03337065,-0.00893048,-0.10235672,0.0498
 4801,0.04757274,0.19008895,-0.13508337,0.01810934,-0.00710041,-0.10208
 929,0.06226599,0.00173970,0.46341356,0.07614988,-0.00676298,0.00300355
 ,0.04146411,-0.13582596,-0.00114137,0.00197024,0.37288132,-0.00394620,
 -0.00015645,0.01369871,0.00062249,-0.00002333,-0.07239137,0.02033233,0
 .01532660,0.09236260,-0.02177632,0.09946634,0.00325981,0.00361960,-0.0
 0705210,-0.00088828,-0.09432387,-0.03792796,-0.00321335,0.82564198,0.0
 3411857,-0.05617720,-0.00211545,0.01623565,-0.11731951,-0.00614554,-0.
 05875396,-0.14242365,-0.00697511,-0.33304110,0.68809750,-0.00027598,0.
 00141072,0.01731506,0.00037665,-0.00740374,0.01246043,-0.00435865,-0.0
 0583788,-0.07298909,0.01683658,0.00904414,0.18638328,-0.04957041,-0.03
 984595,0.00017484,-0.01203867,-0.03067543,-0.00321646,-0.12724771,-0.0
 8437903,-0.01222667,-0.53301277,0.18263981,-0.01359984,1.01695888,0.04
 837195,-0.16652898,-0.00142065,-0.09602253,-0.06522770,-0.00966071,-0.
 02629728,-0.01386083,-0.00289308,0.09902895,-0.11927592,0.00435744,0.1
 1786760,0.52542338,0.00493433,-0.00621105,-0.09237475,-0.00676823,-0.0
 0610031,0.01656709,-0.00909277,-0.00609907,0.01308292,-0.01812325,0.00
 888683,-0.10069005,0.05125377,0.02441839,0.20179064,-0.00489014,0.0043
 0301,-0.00030021,0.00441482,0.00132850,0.00014752,-0.00117774,0.009595
 40,-0.00010824,-0.03893611,-0.02539168,-0.00374646,-0.27117542,-0.1671
 0134,-0.02111494,0.31102688,-0.02201801,-0.02192958,-0.00265325,0.0007
 0505,-0.00446057,-0.00035871,0.00674084,0.00232879,-0.00007194,0.00569
 112,0.00257521,0.00020811,-0.16487609,-0.14410547,-0.01396697,0.174652
 10,0.16535349,-0.00172462,-0.00119406,0.00442870,0.00012295,-0.0003271
 5,0.00285526,-0.00023093,0.00012231,0.01009582,-0.00205030,-0.00150790
 ,0.00400103,-0.02104113,-0.01412204,-0.05853786,0.02501654,0.01695748,
 0.03566955,-0.00433978,-0.00365867,-0.00088184,-0.00055123,-0.00721641
 ,-0.00057049,-0.00099419,-0.02252614,-0.00144730,-0.14455339,0.1775621
 3,0.00453083,-0.01270759,0.02406986,0.00020452,-0.00369758,-0.00051171
 ,-0.00026700,0.16604344,-0.00399488,0.00312134,-0.00048851,-0.00094646
 ,-0.00192299,-0.00030571,0.00450257,-0.03947260,-0.00205495,0.17284989
 ,-0.24956823,-0.00121149,-0.00746641,0.00060044,-0.00076867,0.00502667
 ,0.00415703,0.00046920,-0.17071849,0.28693878,-0.00089871,-0.00047389,
 0.00813948,-0.00023775,-0.00064980,0.00274706,0.00002191,-0.00353275,0
 .00300089,0.00424886,-0.00091999,-0.05212678,-0.00147942,0.00092940,0.
 00743034,0.00003553,0.00016471,0.00064405,-0.00180696,0.00449420,0.030
 76493,-0.01144569,-0.02490297,-0.00235496,-0.11885445,-0.16741853,-0.0
 1249960,-0.00255540,0.02536562,0.00104963,-0.00117627,0.00728935,0.000
 18082,-0.00487765,0.00312982,-0.00053575,-0.00052485,-0.00128123,-0.00
 008515,0.00158117,-0.00135602,0.00003178,0.14116953,0.00663953,-0.0006
 5668,-0.00006940,-0.16269593,-0.27358969,-0.02053859,-0.00168411,-0.03
 805358,-0.00229709,0.00102462,-0.00135178,-0.00016484,0.00346617,0.003
 61937,-0.00005118,-0.00204854,-0.00146215,-0.00017982,0.00166384,-0.00
 262712,-0.00003264,0.15920418,0.31031072,-0.00068092,-0.00178182,0.007
 33919,-0.01222888,-0.02076825,-0.05407937,-0.00039646,-0.00084169,0.00
 313269,-0.00015824,0.00016835,0.00279792,-0.00052374,-0.00008274,0.008
 18630,-0.00012302,-0.00013107,-0.00026863,0.00019357,-0.00019466,-0.00
 035150,0.01442697,0.02346323,0.03263072,-0.29594222,0.15740209,-0.0043
 9171,-0.04021949,0.02245120,-0.00118977,0.00005827,-0.00971209,-0.0010
 6266,0.00451696,-0.00065868,0.00005604,-0.00632856,-0.00304705,-0.0007
 5767,0.00496013,0.00089794,0.00025963,-0.00078089,0.00210306,0.0000847
 6,-0.00331644,-0.00556970,-0.00050927,0.33705225,0.15519704,-0.1218682
 9,0.00483484,-0.00864739,0.00373733,-0.00049163,-0.00685360,0.00118876
 ,-0.00085470,-0.00003968,-0.00455615,-0.00040246,0.02326911,-0.0206441
 6,-0.00010797,-0.00036404,-0.00245674,-0.00021802,0.00133560,-0.001226
 66,0.00002076,-0.00003023,0.00381088,0.00016865,-0.16386685,0.14201503
 ,-0.00450912,0.00494837,-0.05653966,-0.00285784,0.00117964,0.00410866,
 -0.00091467,-0.00099974,0.01000693,0.00008814,-0.00043535,0.00284817,0
 .00065865,-0.00152600,0.00454533,0.00019328,-0.00014836,0.00111213,0.0
 0004467,0.00006058,-0.00024849,-0.00021375,-0.00012969,0.00061267,0.00
 751064,-0.00294946,0.03355426\\0.00013029,-0.00001948,-0.00005385,0.00
 016784,0.00019205,0.00005590,0.00001499,-0.00016333,-0.00003689,-0.000
 08267,0.00011230,0.00008094,0.00050873,-0.00021300,-0.00014427,-0.0001
 6789,-0.00013071,0.00010640,-0.00019540,0.00014486,-0.00003063,-0.0001
 1799,-0.00011420,0.00002731,-0.00025791,0.00019151,-0.00000491\\\@


 THE WORLD OF CHEMICAL REACTIONS IS LIKE A STAGE,
 ON WHICH SCENE AFTER SCENE IS CEASELESSLY PLAYED.
 THE ACTORS ON IT ARE THE ELEMENTS.
   -- CLEMENS WINKLER   BER. 30,13(1897)
 (DISCOVERER OF GERMANIUM, FEB 6, 1886)
 Job cpu time:       0 days  0 hours  0 minutes  0.3 seconds.
 File lengths (MBytes):  RWF=      5 Int=      0 D2E=      0 Chk=      2 Scr=      1
 Normal termination of Gaussian 09 at Mon Jan  4 00:00:56 2016.
